<event>
 7    1  0.1093668E-008  0.1433653E+03  0.7546771E-02  0.1104732E+00
        -11   -1    0    0    0    0  0.00000000000E+00  0.00000000000E+00  0.18250000000E+03  0.18250000000E+03  0.00000000000E+00 0.  1.
         11   -1    0    0    0    0 -0.00000000000E+00 -0.00000000000E+00 -0.18250000000E+03  0.18250000000E+03  0.00000000000E+00 0. -1.
         23    2    1    2    0    0 -0.15505392922E+02  0.74214345362E+02 -0.82727093937E+02  0.14451069073E+03  0.91057022783E+02 0.  0.
        -11    1    1    2    0    0  0.97943521697E+02 -0.70566783885E+02  0.37600125374E+02  0.12643723288E+03  0.00000000000E+00 0.  1.
         11    1    1    2    0    0 -0.82438128775E+02 -0.36475614768E+01  0.45126968563E+02  0.94052076385E+02  0.00000000000E+00 0. -1.
        -15    1    3    3    0    0 -0.72737035309E+01  0.95090610628E+02 -0.60983595048E+02  0.11321346027E+03  0.17770000000E+01 0.  1.
         15    1    3    3    0    0 -0.82316893915E+01 -0.20876265266E+02 -0.21743498889E+02  0.31297230463E+02  0.17770000000E+01 0. -1.
</event>
<event>
 7    1  0.1093668E-008  0.1508963E+03  0.7546771E-02  0.1096828E+00
        -11   -1    0    0    0    0  0.00000000000E+00  0.00000000000E+00  0.18250000000E+03  0.18250000000E+03  0.00000000000E+00 0. -1.
         11   -1    0    0    0    0 -0.00000000000E+00 -0.00000000000E+00 -0.18250000000E+03  0.18250000000E+03  0.00000000000E+00 0.  1.
         23    2    1    2    0    0 -0.67567875317E+02 -0.23275792739E+02  0.78498702300E+02  0.14207158163E+03  0.94419848233E+02 0.  0.
        -11    1    1    2    0    0  0.94886293444E+02  0.93132177024E+02 -0.41428356426E+02  0.13925990018E+03  0.00000000000E+00 0. -1.
         11    1    1    2    0    0 -0.27318418126E+02 -0.69856384285E+02 -0.37070345874E+02  0.83668518198E+02  0.00000000000E+00 0.  1.
        -15    1    3    3    0    0 -0.90699065816E+02 -0.26570304933E+02  0.57742403084E+02  0.11076842730E+03  0.17770000000E+01 0.  1.
         15    1    3    3    0    0  0.23131190499E+02  0.32945121935E+01  0.20756299217E+02  0.31303154324E+02  0.17770000000E+01 0. -1.
</event>
<event>
 7    1  0.1093668E-008  0.1365092E+03  0.7546771E-02  0.1112407E+00
        -11   -1    0    0    0    0  0.00000000000E+00  0.00000000000E+00  0.18250000000E+03  0.18250000000E+03  0.00000000000E+00 0. -1.
         11   -1    0    0    0    0 -0.00000000000E+00 -0.00000000000E+00 -0.18250000000E+03  0.18250000000E+03  0.00000000000E+00 0. -1.
         23    2    1    2    0    0  0.11934529877E+02  0.60642927966E+02 -0.62007628578E+02  0.12473970655E+03  0.88854097664E+02 0.  0.
        -11    1    1    2    0    0  0.97115982462E+02 -0.32270635876E+02 -0.15488489022E+02  0.10350266316E+03  0.00000000000E+00 0. -1.
         11    1    1    2    0    0 -0.10905051234E+03 -0.28372292091E+02  0.77496117601E+02  0.13675763029E+03  0.00000000000E+00 0. -1.
        -15    1    3    3    0    0  0.43128364162E+02  0.51777059027E+02 -0.17503928923E+02  0.69645279047E+02  0.17770000000E+01 0. -1.
         15    1    3    3    0    0 -0.31193834286E+02  0.88658689393E+01 -0.44503699655E+02  0.55094427500E+02  0.17770000000E+01 0.  1.
</event>
<event>
 7    1  0.1093668E-008  0.1456208E+03  0.7546771E-02  0.1102309E+00
        -11   -1    0    0    0    0  0.00000000000E+00  0.00000000000E+00  0.18250000000E+03  0.18250000000E+03  0.00000000000E+00 0.  1.
         11   -1    0    0    0    0 -0.00000000000E+00 -0.00000000000E+00 -0.18250000000E+03  0.18250000000E+03  0.00000000000E+00 0.  1.
         23    2    1    2    0    0  0.10014273818E+03  0.71598991003E+01 -0.29583918620E+02  0.14010916293E+03  0.93142563481E+02 0.  0.
        -11    1    1    2    0    0 -0.76323466168E+02  0.49983466017E+02  0.97134731829E+02  0.13326205195E+03  0.00000000000E+00 0.  1.
         11    1    1    2    0    0 -0.23819272013E+02 -0.57143365117E+02 -0.67550813209E+02  0.91628785114E+02  0.00000000000E+00 0.  1.
        -15    1    3    3    0    0  0.10330419802E+03  0.33942102158E+01  0.65656378231E+01  0.10358350892E+03  0.17770000000E+01 0.  1.
         15    1    3    3    0    0 -0.31614598383E+01  0.37656888845E+01 -0.36149556443E+02  0.36525654013E+02  0.17770000000E+01 0. -1.
</event>
<event>
 7    1  0.1093668E-008  0.2120454E+03  0.7546771E-02  0.1047102E+00
        -11   -1    0    0    0    0  0.00000000000E+00  0.00000000000E+00  0.18250000000E+03  0.18250000000E+03  0.00000000000E+00 0. -1.
         11   -1    0    0    0    0 -0.00000000000E+00 -0.00000000000E+00 -0.18250000000E+03  0.18250000000E+03  0.00000000000E+00 0.  1.
         23    2    1    2    0    0  0.38784443793E+02  0.19818288130E+02  0.10895824927E+02  0.10134943595E+03  0.90862486984E+02 0.  0.
        -11    1    1    2    0    0 -0.10519851781E+03 -0.91461389111E+02 -0.62953857942E+02  0.15295457521E+03  0.00000000000E+00 0.  1.
         11    1    1    2    0    0  0.66414074014E+02  0.71643100981E+02  0.52058033015E+02  0.11069598885E+03  0.00000000000E+00 0. -1.
        -15    1    3    3    0    0  0.16204925241E+02  0.12869031031E+02 -0.40077457582E+02  0.45139471607E+02  0.17770000000E+01 0.  1.
         15    1    3    3    0    0  0.22579518552E+02  0.69492570990E+01  0.50973282508E+02  0.56209964339E+02  0.17770000000E+01 0. -1.
</event>
<event>
 7    1  0.1093668E-008  0.1807748E+03  0.7546771E-02  0.1069836E+00
        -11   -1    0    0    0    0  0.00000000000E+00  0.00000000000E+00  0.18250000000E+03  0.18250000000E+03  0.00000000000E+00 0.  1.
         11   -1    0    0    0    0 -0.00000000000E+00 -0.00000000000E+00 -0.18250000000E+03  0.18250000000E+03  0.00000000000E+00 0. -1.
         23    2    1    2    0    0 -0.14964231438E+02  0.40124933875E+02 -0.15580692627E+03  0.18470616715E+03  0.89479781895E+02 0.  0.
        -11    1    1    2    0    0  0.36492894084E+02 -0.28119042411E+02  0.14710930208E+03  0.15415433378E+03  0.00000000000E+00 0.  1.
         11    1    1    2    0    0 -0.21528662646E+02 -0.12005891464E+02  0.86976241908E+01  0.26139499072E+02  0.00000000000E+00 0. -1.
        -15    1    3    3    0    0 -0.46939789273E+02  0.77674879844E+01 -0.47657472285E+02  0.67365199325E+02  0.17770000000E+01 0.  1.
         15    1    3    3    0    0  0.31975557835E+02  0.32357445890E+02 -0.10814945399E+03  0.11734096782E+03  0.17770000000E+01 0. -1.
</event>
<event>
 7    1  0.1472048E-008  0.1495042E+03  0.7546771E-02  0.1098250E+00
        -11   -1    0    0    0    0  0.00000000000E+00  0.00000000000E+00  0.18250000000E+03  0.18250000000E+03  0.00000000000E+00 0. -1.
         11   -1    0    0    0    0 -0.00000000000E+00 -0.00000000000E+00 -0.18250000000E+03  0.18250000000E+03  0.00000000000E+00 0. -1.
         23    2    1    2    0    0 -0.48984673136E+01  0.22285427071E+02  0.10929822629E+03  0.14230188712E+03  0.88221820239E+02 0.  0.
        -11    1    1    2    0    0 -0.82450206025E+02  0.11414919998E+01 -0.21497782186E+01  0.82486126251E+02  0.00000000000E+00 0. -1.
         11    1    1    2    0    0  0.87348673338E+02 -0.23426919071E+02 -0.10714844807E+03  0.14021198663E+03  0.00000000000E+00 0. -1.
        -15    1    3    3    0    0  0.34194773184E+02  0.35450803203E+02  0.51648112447E+02  0.71391366489E+02  0.17770000000E+01 0.  1.
         15    1    3    3    0    0 -0.39093240497E+02 -0.13165376131E+02  0.57650113840E+02  0.70910520630E+02  0.17770000000E+01 0. -1.
</event>
<event>
 7    1  0.1093668E-008  0.1510262E+03  0.7546771E-02  0.1096696E+00
        -11   -1    0    0    0    0  0.00000000000E+00  0.00000000000E+00  0.18250000000E+03  0.18250000000E+03  0.00000000000E+00 0. -1.
         11   -1    0    0    0    0 -0.00000000000E+00 -0.00000000000E+00 -0.18250000000E+03  0.18250000000E+03  0.00000000000E+00 0. -1.
         23    2    1    2    0    0 -0.12312329871E+02  0.24830989921E+01  0.11821275056E+03  0.15006483233E+03  0.91582969273E+02 0.  0.
        -11    1    1    2    0    0 -0.57555991783E+02  0.54494333956E+02 -0.20262345454E+02  0.81810068248E+02  0.00000000000E+00 0. -1.
         11    1    1    2    0    0  0.69868321655E+02 -0.56977432949E+02 -0.97950405103E+02  0.13312509942E+03  0.00000000000E+00 0. -1.
        -15    1    3    3    0    0 -0.49538351014E+02  0.48079637794E+01  0.41813223756E+02  0.65028210392E+02  0.17770000000E+01 0.  1.
         15    1    3    3    0    0  0.37226021143E+02 -0.23248647873E+01  0.76399526800E+02  0.85036621939E+02  0.17770000000E+01 0. -1.
</event>
<event>
 7    1  0.1093668E-008  0.1716259E+03  0.7546771E-02  0.1077456E+00
        -11   -1    0    0    0    0  0.00000000000E+00  0.00000000000E+00  0.18250000000E+03  0.18250000000E+03  0.00000000000E+00 0.  1.
         11   -1    0    0    0    0 -0.00000000000E+00 -0.00000000000E+00 -0.18250000000E+03  0.18250000000E+03  0.00000000000E+00 0. -1.
         23    2    1    2    0    0 -0.22341790769E+02 -0.13892624877E+03 -0.48109242625E+02  0.17433294806E+03  0.90982522182E+02 0.  0.
        -11    1    1    2    0    0 -0.21501157453E+02  0.13347908740E+03  0.54988855164E+02  0.14595458450E+03  0.00000000000E+00 0.  1.
         11    1    1    2    0    0  0.43842948221E+02  0.54471613733E+01 -0.68796125388E+01  0.44712467438E+02  0.00000000000E+00 0. -1.
        -15    1    3    3    0    0  0.49989109864E+01  0.10891400035E+02  0.49014100120E+01  0.13068789343E+02  0.17770000000E+01 0.  1.
         15    1    3    3    0    0 -0.27340701755E+02 -0.14981764880E+03 -0.53010652637E+02  0.16126415872E+03  0.17770000000E+01 0. -1.
</event>
<event>
 7    1  0.1093668E-008  0.1401374E+03  0.7546771E-02  0.1108285E+00
        -11   -1    0    0    0    0  0.00000000000E+00  0.00000000000E+00  0.18250000000E+03  0.18250000000E+03  0.00000000000E+00 0. -1.
         11   -1    0    0    0    0 -0.00000000000E+00 -0.00000000000E+00 -0.18250000000E+03  0.18250000000E+03  0.00000000000E+00 0. -1.
         23    2    1    2    0    0 -0.66129826478E+01  0.12469089846E+03 -0.12401850515E+02  0.15725405405E+03  0.94781221354E+02 0.  0.
        -11    1    1    2    0    0  0.14606910276E+02 -0.65730787864E+02 -0.75776853608E+02  0.10137075438E+03  0.00000000000E+00 0. -1.
         11    1    1    2    0    0 -0.79939276278E+01 -0.58960110594E+02  0.88178704124E+02  0.10637519157E+03  0.00000000000E+00 0. -1.
        -15    1    3    3    0    0  0.22873311854E+02 -0.44260918761E+01 -0.81059356536E+01  0.24731409307E+02  0.17770000000E+01 0.  1.
         15    1    3    3    0    0 -0.29486294502E+02  0.12911699033E+03 -0.42959148617E+01  0.13252264474E+03  0.17770000000E+01 0. -1.
</event>
<event>
 7    1  0.1093668E-008  0.1528339E+03  0.7546771E-02  0.1094876E+00
        -11   -1    0    0    0    0  0.00000000000E+00  0.00000000000E+00  0.18250000000E+03  0.18250000000E+03  0.00000000000E+00 0.  1.
         11   -1    0    0    0    0 -0.00000000000E+00 -0.00000000000E+00 -0.18250000000E+03  0.18250000000E+03  0.00000000000E+00 0.  1.
         23    2    1    2    0    0 -0.39454793536E+02 -0.82571621775E+01 -0.11009713157E+03  0.15088455161E+03  0.94973196612E+02 0.  0.
        -11    1    1    2    0    0  0.10043074420E+03  0.47039739909E+02  0.74126590169E+02  0.13339348890E+03  0.00000000000E+00 0.  1.
         11    1    1    2    0    0 -0.60975950662E+02 -0.38782577732E+02  0.35970541403E+02  0.80721959488E+02  0.00000000000E+00 0.  1.
        -15    1    3    3    0    0  0.21545656423E+02  0.24056677194E+02 -0.48826351242E+02  0.58567135263E+02  0.17770000000E+01 0. -1.
         15    1    3    3    0    0 -0.61000449959E+02 -0.32313839372E+02 -0.61270780330E+02  0.92317416349E+02  0.17770000000E+01 0.  1.
</event>
<event>
 7    1  0.1093668E-008  0.1513924E+03  0.7546771E-02  0.1096325E+00
        -11   -1    0    0    0    0  0.00000000000E+00  0.00000000000E+00  0.18250000000E+03  0.18250000000E+03  0.00000000000E+00 0.  1.
         11   -1    0    0    0    0 -0.00000000000E+00 -0.00000000000E+00 -0.18250000000E+03  0.18250000000E+03  0.00000000000E+00 0. -1.
         23    2    1    2    0    0  0.32668585911E+02  0.12238649730E+02 -0.14034942427E+03  0.16942791746E+03  0.88265719655E+02 0.  0.
        -11    1    1    2    0    0  0.22666367421E+02 -0.58131319928E+02  0.49043835658E+02  0.79361907643E+02  0.00000000000E+00 0.  1.
         11    1    1    2    0    0 -0.55334953332E+02  0.45892670198E+02  0.91305588617E+02  0.11621017490E+03  0.00000000000E+00 0. -1.
        -15    1    3    3    0    0  0.25639898353E+02  0.11488196900E+02 -0.15259893100E+03  0.15517401370E+03  0.17770000000E+01 0. -1.
         15    1    3    3    0    0  0.70286875586E+01  0.75045282964E+00  0.12249506727E+02  0.14253903756E+02  0.17770000000E+01 0.  1.
</event>
<event>
 7    1  0.1093668E-008  0.1557572E+03  0.7546771E-02  0.1091991E+00
        -11   -1    0    0    0    0  0.00000000000E+00  0.00000000000E+00  0.18250000000E+03  0.18250000000E+03  0.00000000000E+00 0.  1.
         11   -1    0    0    0    0 -0.00000000000E+00 -0.00000000000E+00 -0.18250000000E+03  0.18250000000E+03  0.00000000000E+00 0. -1.
         23    2    1    2    0    0  0.41687577478E+02  0.74084836303E+02 -0.85388846380E+02  0.15043794816E+03  0.90077211732E+02 0.  0.
        -11    1    1    2    0    0 -0.72670168669E+02 -0.18013939789E+02  0.12023238486E+03  0.14163785444E+03  0.00000000000E+00 0.  1.
         11    1    1    2    0    0  0.30982591191E+02 -0.56070896514E+02 -0.34843538482E+02  0.72924197402E+02  0.00000000000E+00 0. -1.
        -15    1    3    3    0    0  0.16013596775E+02  0.35051332470E+02  0.13647744390E+02  0.40920042101E+02  0.17770000000E+01 0. -1.
         15    1    3    3    0    0  0.25673980704E+02  0.39033503833E+02 -0.99036590770E+02  0.10951790606E+03  0.17770000000E+01 0.  1.
</event>
<event>
 7    1  0.1093668E-008  0.1350780E+03  0.7546771E-02  0.1114072E+00
        -11   -1    0    0    0    0  0.00000000000E+00  0.00000000000E+00  0.18250000000E+03  0.18250000000E+03  0.00000000000E+00 0.  1.
         11   -1    0    0    0    0 -0.00000000000E+00 -0.00000000000E+00 -0.18250000000E+03  0.18250000000E+03  0.00000000000E+00 0. -1.
         23    2    1    2    0    0  0.62129051381E+02 -0.33801885923E+02  0.39965833500E+02  0.12725108592E+03  0.97943782357E+02 0.  0.
        -11    1    1    2    0    0  0.27815402118E+02  0.10719417626E+03  0.10347732770E+02  0.11122663167E+03  0.00000000000E+00 0. -1.
         11    1    1    2    0    0 -0.89944453499E+02 -0.73392290337E+02 -0.50313566270E+02  0.12652228241E+03  0.00000000000E+00 0.  1.
        -15    1    3    3    0    0  0.10641324883E+02 -0.44906207375E+02  0.55600007050E+02  0.72279483735E+02  0.17770000000E+01 0.  1.
         15    1    3    3    0    0  0.51487726499E+02  0.11104321452E+02 -0.15634173550E+02  0.54971602182E+02  0.17770000000E+01 0. -1.
</event>
<event>
 7    1  0.1093668E-008  0.1435897E+03  0.7546771E-02  0.1104488E+00
        -11   -1    0    0    0    0  0.00000000000E+00  0.00000000000E+00  0.18250000000E+03  0.18250000000E+03  0.00000000000E+00 0.  1.
         11   -1    0    0    0    0 -0.00000000000E+00 -0.00000000000E+00 -0.18250000000E+03  0.18250000000E+03  0.00000000000E+00 0.  1.
         23    2    1    2    0    0  0.21196986245E+02 -0.20364312817E+02  0.13660336630E+03  0.16878901049E+03  0.94684913871E+02 0.  0.
        -11    1    1    2    0    0 -0.73283446850E+02 -0.17008248860E+02 -0.59355535472E+02  0.95827050997E+02  0.00000000000E+00 0.  1.
         11    1    1    2    0    0  0.52086460605E+02  0.37372561677E+02 -0.77247830827E+02  0.10038393852E+03  0.00000000000E+00 0.  1.
        -15    1    3    3    0    0 -0.12077837831E+02 -0.17277358842E+02  0.13351643508E+03  0.13518201604E+03  0.17770000000E+01 0.  1.
         15    1    3    3    0    0  0.33274824076E+02 -0.30869539750E+01  0.30869312146E+01  0.33606994443E+02  0.17770000000E+01 0.  1.
</event>
<event>
 7    1  0.1093668E-008  0.1358262E+03  0.7546771E-02  0.1113198E+00
        -11   -1    0    0    0    0  0.00000000000E+00  0.00000000000E+00  0.18250000000E+03  0.18250000000E+03  0.00000000000E+00 0.  1.
         11   -1    0    0    0    0 -0.00000000000E+00 -0.00000000000E+00 -0.18250000000E+03  0.18250000000E+03  0.00000000000E+00 0. -1.
         23    2    1    2    0    0  0.23752657601E+02  0.79023334592E+01  0.48646792360E+01  0.92153313680E+02  0.88554686499E+02 0.  0.
        -11    1    1    2    0    0  0.67387015175E+02 -0.11424182068E+03 -0.63400238081E+01  0.13278704496E+03  0.00000000000E+00 0.  1.
         11    1    1    2    0    0 -0.91139672776E+02  0.10633948722E+03  0.14753445721E+01  0.14005964136E+03  0.00000000000E+00 0. -1.
        -15    1    3    3    0    0  0.97429925550E+01  0.49270010787E+01 -0.41835924482E+02  0.43273589519E+02  0.17770000000E+01 0. -1.
         15    1    3    3    0    0  0.14009665046E+02  0.29753323805E+01  0.46700603718E+02  0.48879724162E+02  0.17770000000E+01 0.  1.
</event>
<event>
 7    1  0.1093668E-008  0.2200641E+03  0.7546771E-02  0.1041953E+00
        -11   -1    0    0    0    0  0.00000000000E+00  0.00000000000E+00  0.18250000000E+03  0.18250000000E+03  0.00000000000E+00 0.  1.
         11   -1    0    0    0    0 -0.00000000000E+00 -0.00000000000E+00 -0.18250000000E+03  0.18250000000E+03  0.00000000000E+00 0. -1.
         23    2    1    2    0    0  0.23170415199E+02  0.82574544022E+01  0.56963865525E+01  0.95346269257E+02  0.91942419741E+02 0.  0.
        -11    1    1    2    0    0 -0.14168718910E+03  0.86701218258E+01  0.29257335019E+02  0.14493592454E+03  0.00000000000E+00 0.  1.
         11    1    1    2    0    0  0.11851677390E+03 -0.16927576228E+02 -0.34953721572E+02  0.12471780621E+03  0.00000000000E+00 0. -1.
        -15    1    3    3    0    0  0.15118296722E+02  0.33553175282E+02 -0.32274814836E+02  0.48981627872E+02  0.17770000000E+01 0.  1.
         15    1    3    3    0    0  0.80521184774E+01 -0.25295720880E+02  0.37971201389E+02  0.46364641385E+02  0.17770000000E+01 0. -1.
</event>
<event>
 7    1  0.1093668E-008  0.1580976E+03  0.7546771E-02  0.1089730E+00
        -11   -1    0    0    0    0  0.00000000000E+00  0.00000000000E+00  0.18250000000E+03  0.18250000000E+03  0.00000000000E+00 0.  1.
         11   -1    0    0    0    0 -0.00000000000E+00 -0.00000000000E+00 -0.18250000000E+03  0.18250000000E+03  0.00000000000E+00 0.  1.
         23    2    1    2    0    0 -0.75390391985E+02 -0.10722728183E+02 -0.84574392560E+02  0.14183575066E+03  0.84651427543E+02 0.  0.
        -11    1    1    2    0    0  0.15488149349E+02 -0.36290661945E+02 -0.52908559863E+02  0.66001595598E+02  0.00000000000E+00 0.  1.
         11    1    1    2    0    0  0.59902242636E+02  0.47013390128E+02  0.13748295242E+03  0.15716265374E+03  0.00000000000E+00 0.  1.
        -15    1    3    3    0    0 -0.80584357063E+02 -0.23321915733E+02 -0.93358035458E+02  0.12552541922E+03  0.17770000000E+01 0.  1.
         15    1    3    3    0    0  0.51939650778E+01  0.12599187550E+02  0.87836428978E+01  0.16310331441E+02  0.17770000000E+01 0. -1.
</event>
<event>
 7    1  0.1093668E-008  0.1445946E+03  0.7546771E-02  0.1103405E+00
        -11   -1    0    0    0    0  0.00000000000E+00  0.00000000000E+00  0.18250000000E+03  0.18250000000E+03  0.00000000000E+00 0. -1.
         11   -1    0    0    0    0 -0.00000000000E+00 -0.00000000000E+00 -0.18250000000E+03  0.18250000000E+03  0.00000000000E+00 0.  1.
         23    2    1    2    0    0 -0.46137001685E+02 -0.67925879989E+02  0.38431247263E+02  0.13321740706E+03  0.97608240845E+02 0.  0.
        -11    1    1    2    0    0  0.59218553190E+02 -0.48942880342E+01  0.75412529285E+02  0.96009586346E+02  0.00000000000E+00 0. -1.
         11    1    1    2    0    0 -0.13081551505E+02  0.72820168023E+02 -0.11384377655E+03  0.13577300659E+03  0.00000000000E+00 0.  1.
        -15    1    3    3    0    0 -0.28366898904E+02  0.14450925699E+02 -0.13046220049E+02  0.34451005698E+02  0.17770000000E+01 0.  1.
         15    1    3    3    0    0 -0.17770102781E+02 -0.82376805688E+02  0.51477467312E+02  0.98766401363E+02  0.17770000000E+01 0. -1.
</event>
<event>
 7    1  0.1093668E-008  0.1602050E+03  0.7546771E-02  0.1087731E+00
        -11   -1    0    0    0    0  0.00000000000E+00  0.00000000000E+00  0.18250000000E+03  0.18250000000E+03  0.00000000000E+00 0.  1.
         11   -1    0    0    0    0 -0.00000000000E+00 -0.00000000000E+00 -0.18250000000E+03  0.18250000000E+03  0.00000000000E+00 0.  1.
         23    2    1    2    0    0 -0.29774193827E+01 -0.45250666681E+02 -0.10447633887E+03  0.14661286258E+03  0.92323010295E+02 0.  0.
        -11    1    1    2    0    0  0.56809538538E+02  0.82922106717E+02  0.11401286859E+03  0.15199451850E+03  0.00000000000E+00 0.  1.
         11    1    1    2    0    0 -0.53832119155E+02 -0.37671440036E+02 -0.95365297180E+01  0.66392618913E+02  0.00000000000E+00 0.  1.
        -15    1    3    3    0    0 -0.41272144685E+01 -0.68830740487E+02 -0.10154547394E+03  0.12275726350E+03  0.17770000000E+01 0.  1.
         15    1    3    3    0    0  0.11497950858E+01  0.23580073806E+02 -0.29308649309E+01  0.23855599084E+02  0.17770000000E+01 0. -1.
</event>
<event>
 7    1  0.1093668E-008  0.1292992E+03  0.7546771E-02  0.1121034E+00
        -11   -1    0    0    0    0  0.00000000000E+00  0.00000000000E+00  0.18250000000E+03  0.18250000000E+03  0.00000000000E+00 0. -1.
         11   -1    0    0    0    0 -0.00000000000E+00 -0.00000000000E+00 -0.18250000000E+03  0.18250000000E+03  0.00000000000E+00 0. -1.
         23    2    1    2    0    0  0.14950008545E+01  0.66802478935E+01 -0.47709349369E+02  0.10194841395E+03  0.89835607365E+02 0.  0.
        -11    1    1    2    0    0 -0.86212319385E+02 -0.84572439965E+02 -0.29686374510E+02  0.12436375053E+03  0.00000000000E+00 0. -1.
         11    1    1    2    0    0  0.84717318530E+02  0.77892192072E+02  0.77395723880E+02  0.13868783551E+03  0.00000000000E+00 0. -1.
        -15    1    3    3    0    0  0.10779365667E+02 -0.37902402893E+02 -0.39153919536E+02  0.55578539143E+02  0.17770000000E+01 0.  1.
         15    1    3    3    0    0 -0.92843648128E+01  0.44582650786E+02 -0.85554298327E+01  0.46369874808E+02  0.17770000000E+01 0. -1.
</event>
<event>
 7    1  0.1093668E-008  0.1569790E+03  0.7546771E-02  0.1090805E+00
        -11   -1    0    0    0    0  0.00000000000E+00  0.00000000000E+00  0.18250000000E+03  0.18250000000E+03  0.00000000000E+00 0.  1.
         11   -1    0    0    0    0 -0.00000000000E+00 -0.00000000000E+00 -0.18250000000E+03  0.18250000000E+03  0.00000000000E+00 0.  1.
         23    2    1    2    0    0 -0.42718585016E+02 -0.75069377026E+02 -0.49799580615E+02  0.13483488586E+03  0.90775323427E+02 0.  0.
        -11    1    1    2    0    0  0.50185936569E+02  0.93901446665E+02  0.11805005835E+03  0.15897146345E+03  0.00000000000E+00 0.  1.
         11    1    1    2    0    0 -0.74673515534E+01 -0.18832069639E+02 -0.68250477739E+02  0.71193650684E+02  0.00000000000E+00 0.  1.
        -15    1    3    3    0    0 -0.67214444646E+02 -0.38310035861E+02 -0.15602910181E+02  0.78943327469E+02  0.17770000000E+01 0.  1.
         15    1    3    3    0    0  0.24495859630E+02 -0.36759341165E+02 -0.34196670434E+02  0.55891558394E+02  0.17770000000E+01 0. -1.
</event>
<event>
 7    1  0.1093668E-008  0.1523954E+03  0.7546771E-02  0.1095315E+00
        -11   -1    0    0    0    0  0.00000000000E+00  0.00000000000E+00  0.18250000000E+03  0.18250000000E+03  0.00000000000E+00 0.  1.
         11   -1    0    0    0    0 -0.00000000000E+00 -0.00000000000E+00 -0.18250000000E+03  0.18250000000E+03  0.00000000000E+00 0. -1.
         23    2    1    2    0    0  0.51538624531E+02 -0.53178267539E+01  0.77076239482E+02  0.13118827937E+03  0.92655862479E+02 0.  0.
        -11    1    1    2    0    0  0.70003251711E+02  0.37251331906E+02  0.11414069497E+02  0.80114904739E+02  0.00000000000E+00 0.  1.
         11    1    1    2    0    0 -0.12154187624E+03 -0.31933505152E+02 -0.88490308979E+02  0.15369681589E+03  0.00000000000E+00 0. -1.
        -15    1    3    3    0    0  0.65017837817E+02  0.24088984064E+02  0.68921682282E+02  0.97780132978E+02  0.17770000000E+01 0.  1.
         15    1    3    3    0    0 -0.13479213287E+02 -0.29406810817E+02  0.81545572000E+01  0.33408146393E+02  0.17770000000E+01 0. -1.
</event>
<event>
 7    1  0.1093668E-008  0.2164779E+03  0.7546771E-02  0.1044226E+00
        -11   -1    0    0    0    0  0.00000000000E+00  0.00000000000E+00  0.18250000000E+03  0.18250000000E+03  0.00000000000E+00 0.  1.
         11   -1    0    0    0    0 -0.00000000000E+00 -0.00000000000E+00 -0.18250000000E+03  0.18250000000E+03  0.00000000000E+00 0. -1.
         23    2    1    2    0    0  0.21154603323E+02  0.21145578801E+02 -0.13560160908E+01  0.95844919899E+02  0.91048103474E+02 0.  0.
        -11    1    1    2    0    0 -0.13357533020E+03 -0.64853621372E+02  0.32308559856E+01  0.14852205046E+03  0.00000000000E+00 0. -1.
         11    1    1    2    0    0  0.11242072687E+03  0.43708042571E+02 -0.18748398949E+01  0.12063302964E+03  0.00000000000E+00 0.  1.
        -15    1    3    3    0    0  0.31362141591E+02  0.34730184050E+02  0.33127114804E+02  0.57361424961E+02  0.17770000000E+01 0.  1.
         15    1    3    3    0    0 -0.10207538268E+02 -0.13584605249E+02 -0.34483130895E+02  0.38483494937E+02  0.17770000000E+01 0. -1.
</event>
<event>
 7    1  0.1093668E-008  0.1238914E+03  0.7546771E-02  0.1127923E+00
        -11   -1    0    0    0    0  0.00000000000E+00  0.00000000000E+00  0.18250000000E+03  0.18250000000E+03  0.00000000000E+00 0. -1.
         11   -1    0    0    0    0 -0.00000000000E+00 -0.00000000000E+00 -0.18250000000E+03  0.18250000000E+03  0.00000000000E+00 0.  1.
         23    2    1    2    0    0  0.34965349486E+02  0.45607964193E+02 -0.21421593481E+01  0.11063112652E+03  0.94509233656E+02 0.  0.
        -11    1    1    2    0    0  0.93315259104E+02 -0.61943590629E+02  0.41108540427E+02  0.11930908640E+03  0.00000000000E+00 0. -1.
         11    1    1    2    0    0 -0.12828060859E+03  0.16335626436E+02 -0.38966381079E+02  0.13505978708E+03  0.00000000000E+00 0.  1.
        -15    1    3    3    0    0 -0.24957606388E+02 -0.45810652081E+00 -0.21047137324E+02  0.32699108500E+02  0.17770000000E+01 0.  1.
         15    1    3    3    0    0  0.59922955873E+02  0.46066070714E+02  0.18904977976E+02  0.77932018021E+02  0.17770000000E+01 0. -1.
</event>
<event>
 7    1  0.1093668E-008  0.1337414E+03  0.7546771E-02  0.1115647E+00
        -11   -1    0    0    0    0  0.00000000000E+00  0.00000000000E+00  0.18250000000E+03  0.18250000000E+03  0.00000000000E+00 0.  1.
         11   -1    0    0    0    0 -0.00000000000E+00 -0.00000000000E+00 -0.18250000000E+03  0.18250000000E+03  0.00000000000E+00 0. -1.
         23    2    1    2    0    0 -0.23183059518E+02  0.21530419226E+02  0.56432813999E+01  0.95593398844E+02  0.90029095725E+02 0.  0.
        -11    1    1    2    0    0  0.10052079540E+03  0.72105782425E+02  0.52952617122E+02  0.13456468269E+03  0.00000000000E+00 0.  1.
         11    1    1    2    0    0 -0.77337735886E+02 -0.93636201651E+02 -0.58595898522E+02  0.13484191846E+03  0.00000000000E+00 0. -1.
        -15    1    3    3    0    0 -0.27524911861E+02 -0.23214123636E+01 -0.37179696011E+02  0.46351885105E+02  0.17770000000E+01 0. -1.
         15    1    3    3    0    0  0.43418523433E+01  0.23851831590E+02  0.42822977411E+02  0.49241513739E+02  0.17770000000E+01 0.  1.
</event>
<event>
 7    1  0.1093668E-008  0.1808503E+03  0.7546771E-02  0.1069776E+00
        -11   -1    0    0    0    0  0.00000000000E+00  0.00000000000E+00  0.18250000000E+03  0.18250000000E+03  0.00000000000E+00 0.  1.
         11   -1    0    0    0    0 -0.00000000000E+00 -0.00000000000E+00 -0.18250000000E+03  0.18250000000E+03  0.00000000000E+00 0.  1.
         23    2    1    2    0    0 -0.65937514659E+02 -0.13681835643E+03 -0.47141003204E+02  0.18258122002E+03  0.89702894177E+02 0.  0.
        -11    1    1    2    0    0  0.94051724563E+01 -0.69556869963E+01  0.23339524588E+02  0.26106938896E+02  0.00000000000E+00 0.  1.
         11    1    1    2    0    0  0.56532342203E+02  0.14377404343E+03  0.23801478616E+02  0.15631184109E+03  0.00000000000E+00 0.  1.
        -15    1    3    3    0    0 -0.46319535524E+01  0.12008797360E+02 -0.12285204912E+02  0.17881560236E+02  0.17770000000E+01 0. -1.
         15    1    3    3    0    0 -0.61305561107E+02 -0.14882715379E+03 -0.34855798292E+02  0.16469965978E+03  0.17770000000E+01 0.  1.
</event>
<event>
 7    1  0.1093668E-008  0.1463188E+03  0.7546771E-02  0.1101570E+00
        -11   -1    0    0    0    0  0.00000000000E+00  0.00000000000E+00  0.18250000000E+03  0.18250000000E+03  0.00000000000E+00 0. -1.
         11   -1    0    0    0    0 -0.00000000000E+00 -0.00000000000E+00 -0.18250000000E+03  0.18250000000E+03  0.00000000000E+00 0. -1.
         23    2    1    2    0    0 -0.16240031520E+02  0.23504657974E+02  0.87907779869E+02  0.13064983540E+03  0.92333061027E+02 0.  0.
        -11    1    1    2    0    0  0.78005608458E+02  0.34293586717E+02  0.29033129904E+02  0.90021373423E+02  0.00000000000E+00 0. -1.
         11    1    1    2    0    0 -0.61765576938E+02 -0.57798244692E+02 -0.11694090977E+03  0.14432879118E+03  0.00000000000E+00 0. -1.
        -15    1    3    3    0    0  0.29275133709E+02  0.17576222660E+02  0.75787594513E+02  0.83143696501E+02  0.17770000000E+01 0. -1.
         15    1    3    3    0    0 -0.45515165230E+02  0.59284353139E+01  0.12120185355E+02  0.47506138900E+02  0.17770000000E+01 0.  1.
</event>
<event>
 7    1  0.1093668E-008  0.1679778E+03  0.7546771E-02  0.1080640E+00
        -11   -1    0    0    0    0  0.00000000000E+00  0.00000000000E+00  0.18250000000E+03  0.18250000000E+03  0.00000000000E+00 0.  1.
         11   -1    0    0    0    0 -0.00000000000E+00 -0.00000000000E+00 -0.18250000000E+03  0.18250000000E+03  0.00000000000E+00 0. -1.
         23    2    1    2    0    0  0.10368146339E+01 -0.49171042035E+02  0.11961264353E+03  0.15739095749E+03  0.89698732695E+02 0.  0.
        -11    1    1    2    0    0  0.67023409879E+00  0.99985182724E+02 -0.12072430250E+03  0.15675408509E+03  0.00000000000E+00 0. -1.
         11    1    1    2    0    0 -0.17070487327E+01 -0.50814140689E+02  0.11116589677E+01  0.50854957428E+02  0.00000000000E+00 0.  1.
        -15    1    3    3    0    0 -0.29183850869E+02  0.88617321662E+01  0.15113684289E+02  0.34085313998E+02  0.17770000000E+01 0. -1.
         15    1    3    3    0    0  0.30220665503E+02 -0.58032774201E+02  0.10449895924E+03  0.12330564349E+03  0.17770000000E+01 0.  1.
</event>
<event>
 7    1  0.1093668E-008  0.1501110E+03  0.7546771E-02  0.1097628E+00
        -11   -1    0    0    0    0  0.00000000000E+00  0.00000000000E+00  0.18250000000E+03  0.18250000000E+03  0.00000000000E+00 0.  1.
         11   -1    0    0    0    0 -0.00000000000E+00 -0.00000000000E+00 -0.18250000000E+03  0.18250000000E+03  0.00000000000E+00 0.  1.
         23    2    1    2    0    0 -0.19190627470E+02 -0.37105136950E+02 -0.12598655105E+03  0.16153057112E+03  0.92056737878E+02 0.  0.
        -11    1    1    2    0    0 -0.58539966736E+02  0.42345149168E+02  0.95635619553E+02  0.11985913019E+03  0.00000000000E+00 0.  1.
         11    1    1    2    0    0  0.77730594206E+02 -0.52400122179E+01  0.30350931500E+02  0.83610298687E+02  0.00000000000E+00 0.  1.
        -15    1    3    3    0    0 -0.51648907193E+02 -0.19714391834E+02 -0.40871190385E+02  0.68774114259E+02  0.17770000000E+01 0.  1.
         15    1    3    3    0    0  0.32458279724E+02 -0.17390745116E+02 -0.85115360669E+02  0.92756456860E+02  0.17770000000E+01 0. -1.
</event>
<event>
 7    1  0.1093668E-008  0.1382431E+03  0.7546771E-02  0.1110419E+00
        -11   -1    0    0    0    0  0.00000000000E+00  0.00000000000E+00  0.18250000000E+03  0.18250000000E+03  0.00000000000E+00 0.  1.
         11   -1    0    0    0    0 -0.00000000000E+00 -0.00000000000E+00 -0.18250000000E+03  0.18250000000E+03  0.00000000000E+00 0. -1.
         23    2    1    2    0    0  0.42006489031E+00  0.84319678283E+02 -0.12452196214E+02  0.13190607733E+03  0.10066862195E+03 0.  0.
        -11    1    1    2    0    0  0.88120573740E+02 -0.28515948781E+02 -0.55815783088E+02  0.10813785874E+03  0.00000000000E+00 0. -1.
         11    1    1    2    0    0 -0.88540638630E+02 -0.55803729502E+02  0.68267979302E+02  0.12495606393E+03  0.00000000000E+00 0.  1.
        -15    1    3    3    0    0 -0.22272971167E+02 -0.83499813352E+01 -0.26273439986E+02  0.35486036840E+02  0.17770000000E+01 0.  1.
         15    1    3    3    0    0  0.22693036057E+02  0.92669659618E+02  0.13821243772E+02  0.96420040488E+02  0.17770000000E+01 0. -1.
</event>
<event>
 7    1  0.1093668E-008  0.1884119E+03  0.7546771E-02  0.1063844E+00
        -11   -1    0    0    0    0  0.00000000000E+00  0.00000000000E+00  0.18250000000E+03  0.18250000000E+03  0.00000000000E+00 0.  1.
         11   -1    0    0    0    0 -0.00000000000E+00 -0.00000000000E+00 -0.18250000000E+03  0.18250000000E+03  0.00000000000E+00 0. -1.
         23    2    1    2    0    0  0.11169200136E+02 -0.28481386331E+02 -0.16290316299E+03  0.18841194305E+03  0.89586156149E+02 0.  0.
        -11    1    1    2    0    0 -0.32262865193E+02  0.57517044638E+01  0.52292300252E+02  0.61712715387E+02  0.00000000000E+00 0. -1.
         11    1    1    2    0    0  0.21093665058E+02  0.22729681867E+02  0.11061086274E+03  0.11487534156E+03  0.00000000000E+00 0.  1.
        -15    1    3    3    0    0 -0.98756265426E+01 -0.29753645694E+02 -0.84511703832E+01  0.32517494392E+02  0.17770000000E+01 0.  1.
         15    1    3    3    0    0  0.21044826678E+02  0.12722593632E+01 -0.15445199261E+03  0.15589444866E+03  0.17770000000E+01 0. -1.
</event>
<event>
 7    1  0.1093668E-008  0.1585701E+03  0.7546771E-02  0.1089279E+00
        -11   -1    0    0    0    0  0.00000000000E+00  0.00000000000E+00  0.18250000000E+03  0.18250000000E+03  0.00000000000E+00 0.  1.
         11   -1    0    0    0    0 -0.00000000000E+00 -0.00000000000E+00 -0.18250000000E+03  0.18250000000E+03  0.00000000000E+00 0.  1.
         23    2    1    2    0    0  0.61159435740E+02 -0.17548284873E+02 -0.12372351418E+03  0.16545849276E+03  0.89557724297E+02 0.  0.
        -11    1    1    2    0    0 -0.96736953951E+02  0.48613831039E+02  0.75154115227E+02  0.13179333771E+03  0.00000000000E+00 0.  1.
         11    1    1    2    0    0  0.35577518210E+02 -0.31065546166E+02  0.48569398958E+02  0.67748169538E+02  0.00000000000E+00 0.  1.
        -15    1    3    3    0    0 -0.21004389540E+02 -0.14201127056E+02 -0.44565680129E+02  0.51304132036E+02  0.17770000000E+01 0. -1.
         15    1    3    3    0    0  0.82163825281E+02 -0.33471578173E+01 -0.79157834056E+02  0.11415436072E+03  0.17770000000E+01 0.  1.
</event>
<event>
 7    1  0.1093668E-008  0.1381909E+03  0.7546771E-02  0.1110479E+00
        -11   -1    0    0    0    0  0.00000000000E+00  0.00000000000E+00  0.18250000000E+03  0.18250000000E+03  0.00000000000E+00 0.  1.
         11   -1    0    0    0    0 -0.00000000000E+00 -0.00000000000E+00 -0.18250000000E+03  0.18250000000E+03  0.00000000000E+00 0.  1.
         23    2    1    2    0    0 -0.56945888931E+02 -0.12682276049E+02 -0.96928096156E+02  0.14529640141E+03  0.91171892859E+02 0.  0.
        -11    1    1    2    0    0  0.61317924319E+02  0.93885244527E+02  0.34944898100E+02  0.11745413099E+03  0.00000000000E+00 0.  1.
         11    1    1    2    0    0 -0.43720353883E+01 -0.81202968478E+02  0.61983198056E+02  0.10224946760E+03  0.00000000000E+00 0.  1.
        -15    1    3    3    0    0 -0.68800901835E+02 -0.38010354595E+02 -0.59797715834E+02  0.98778923348E+02  0.17770000000E+01 0.  1.
         15    1    3    3    0    0  0.11855012905E+02  0.25328078546E+02 -0.37130380322E+02  0.46517478066E+02  0.17770000000E+01 0. -1.
</event>
<event>
 7    1  0.1093668E-008  0.1552276E+03  0.7546771E-02  0.1092508E+00
        -11   -1    0    0    0    0  0.00000000000E+00  0.00000000000E+00  0.18250000000E+03  0.18250000000E+03  0.00000000000E+00 0.  1.
         11   -1    0    0    0    0 -0.00000000000E+00 -0.00000000000E+00 -0.18250000000E+03  0.18250000000E+03  0.00000000000E+00 0.  1.
         23    2    1    2    0    0  0.98777004692E+02  0.29788336892E+01 -0.26029903412E+02  0.13516906364E+03  0.88472310846E+02 0.  0.
        -11    1    1    2    0    0 -0.14851601460E+03 -0.50473754797E+02  0.16587779372E+01  0.15686732630E+03  0.00000000000E+00 0.  1.
         11    1    1    2    0    0  0.49739009905E+02  0.47494921107E+02  0.24371125474E+02  0.72963610068E+02  0.00000000000E+00 0.  1.
        -15    1    3    3    0    0  0.53723929845E+02  0.97386312710E+01 -0.57853160905E+02  0.79569136811E+02  0.17770000000E+01 0.  1.
         15    1    3    3    0    0  0.45053074847E+02 -0.67597975818E+01  0.31823257493E+02  0.55599926825E+02  0.17770000000E+01 0. -1.
</event>
<event>
 7    1  0.1093668E-008  0.1237758E+03  0.7546771E-02  0.1128074E+00
        -11   -1    0    0    0    0  0.00000000000E+00  0.00000000000E+00  0.18250000000E+03  0.18250000000E+03  0.00000000000E+00 0. -1.
         11   -1    0    0    0    0 -0.00000000000E+00 -0.00000000000E+00 -0.18250000000E+03  0.18250000000E+03  0.00000000000E+00 0.  1.
         23    2    1    2    0    0 -0.19135381909E+02 -0.11548249697E+02  0.57611614705E+02  0.10985212939E+03  0.90823274944E+02 0.  0.
        -11    1    1    2    0    0  0.94471164629E+02 -0.75539271802E+02  0.10411913791E+02  0.12140589145E+03  0.00000000000E+00 0. -1.
         11    1    1    2    0    0 -0.75335782720E+02  0.87087521498E+02 -0.68023528496E+02  0.13374197915E+03  0.00000000000E+00 0.  1.
        -15    1    3    3    0    0 -0.25856928884E+02  0.27344930474E+02 -0.26766382915E+01  0.37770995691E+02  0.17770000000E+01 0.  1.
         15    1    3    3    0    0  0.67215469747E+01 -0.38893180171E+02  0.60288252997E+02  0.72081133703E+02  0.17770000000E+01 0. -1.
</event>
<event>
 7    1  0.1093668E-008  0.1411256E+03  0.7546771E-02  0.1107186E+00
        -11   -1    0    0    0    0  0.00000000000E+00  0.00000000000E+00  0.18250000000E+03  0.18250000000E+03  0.00000000000E+00 0.  1.
         11   -1    0    0    0    0 -0.00000000000E+00 -0.00000000000E+00 -0.18250000000E+03  0.18250000000E+03  0.00000000000E+00 0. -1.
         23    2    1    2    0    0 -0.43966464677E+02  0.93347361847E+02  0.19427363221E+02  0.14055573922E+03  0.93443637589E+02 0.  0.
        -11    1    1    2    0    0 -0.54476598874E+02 -0.63855526615E+02  0.52504716722E+02  0.99004915950E+02  0.00000000000E+00 0.  1.
         11    1    1    2    0    0  0.98443063550E+02 -0.29491835232E+02 -0.71932079943E+02  0.12543934483E+03  0.00000000000E+00 0. -1.
        -15    1    3    3    0    0  0.12795517682E+02 -0.82892639267E+01  0.18614452436E+02  0.24126598138E+02  0.17770000000E+01 0.  1.
         15    1    3    3    0    0 -0.56761982359E+02  0.10163662577E+03  0.81291078490E+00  0.11642914108E+03  0.17770000000E+01 0. -1.
</event>
<event>
 7    1  0.1093668E-008  0.1469412E+03  0.7546771E-02  0.1100914E+00
        -11   -1    0    0    0    0  0.00000000000E+00  0.00000000000E+00  0.18250000000E+03  0.18250000000E+03  0.00000000000E+00 0.  1.
         11   -1    0    0    0    0 -0.00000000000E+00 -0.00000000000E+00 -0.18250000000E+03  0.18250000000E+03  0.00000000000E+00 0.  1.
         23    2    1    2    0    0  0.91830385369E+00 -0.88121428105E+02  0.10048427960E+03  0.16430833407E+03  0.95571485413E+02 0.  0.
        -11    1    1    2    0    0 -0.30137093042E+02  0.10434199882E+03 -0.15925538977E+02  0.10976848312E+03  0.00000000000E+00 0.  1.
         11    1    1    2    0    0  0.29218789188E+02 -0.16220570715E+02 -0.84558740626E+02  0.90923182810E+02  0.00000000000E+00 0.  1.
        -15    1    3    3    0    0  0.24557812723E+02 -0.55343527920E+02  0.10736647812E+03  0.12327493906E+03  0.17770000000E+01 0.  1.
         15    1    3    3    0    0 -0.23639508869E+02 -0.32777900186E+02 -0.68821985180E+01  0.41033395004E+02  0.17770000000E+01 0. -1.
</event>
<event>
 7    1  0.1093668E-008  0.1310807E+03  0.7546771E-02  0.1118845E+00
        -11   -1    0    0    0    0  0.00000000000E+00  0.00000000000E+00  0.18250000000E+03  0.18250000000E+03  0.00000000000E+00 0.  1.
         11   -1    0    0    0    0 -0.00000000000E+00 -0.00000000000E+00 -0.18250000000E+03  0.18250000000E+03  0.00000000000E+00 0.  1.
         23    2    1    2    0    0 -0.97988764990E+01 -0.73014013647E+01  0.40364753587E+02  0.99467978572E+02  0.90084610154E+02 0.  0.
        -11    1    1    2    0    0  0.68390232659E+02  0.10131776214E+03  0.40061033950E+02  0.12863669495E+03  0.00000000000E+00 0.  1.
         11    1    1    2    0    0 -0.58591356160E+02 -0.94016360772E+02 -0.80425787537E+02  0.13689532647E+03  0.00000000000E+00 0.  1.
        -15    1    3    3    0    0 -0.55611239224E+01 -0.43492366167E+02 -0.15381478420E+01  0.43909402659E+02  0.17770000000E+01 0.  1.
         15    1    3    3    0    0 -0.42377525766E+01  0.36190964803E+02  0.41902901429E+02  0.55558575913E+02  0.17770000000E+01 0. -1.
</event>
<event>
 7    1  0.1093668E-008  0.1428651E+03  0.7546771E-02  0.1105275E+00
        -11   -1    0    0    0    0  0.00000000000E+00  0.00000000000E+00  0.18250000000E+03  0.18250000000E+03  0.00000000000E+00 0.  1.
         11   -1    0    0    0    0 -0.00000000000E+00 -0.00000000000E+00 -0.18250000000E+03  0.18250000000E+03  0.00000000000E+00 0.  1.
         23    2    1    2    0    0  0.35850591326E+02 -0.15005117811E+02 -0.69634577289E+02  0.12164605975E+03  0.91860606570E+02 0.  0.
        -11    1    1    2    0    0  0.57895501125E+02  0.68851039254E+02 -0.31500490391E+02  0.95313354530E+02  0.00000000000E+00 0.  1.
         11    1    1    2    0    0 -0.93746092451E+02 -0.53845921443E+02  0.10113506768E+03  0.14804058572E+03  0.00000000000E+00 0.  1.
        -15    1    3    3    0    0 -0.27821951894E+02 -0.14528764443E+02 -0.67861232251E+01  0.32161393018E+02  0.17770000000E+01 0.  1.
         15    1    3    3    0    0  0.63672543220E+02 -0.47635336800E+00 -0.62848454064E+02  0.89484666731E+02  0.17770000000E+01 0. -1.
</event>
<event>
 7    1  0.1093668E-008  0.1305473E+03  0.7546771E-02  0.1119496E+00
        -11   -1    0    0    0    0  0.00000000000E+00  0.00000000000E+00  0.18250000000E+03  0.18250000000E+03  0.00000000000E+00 0.  1.
         11   -1    0    0    0    0 -0.00000000000E+00 -0.00000000000E+00 -0.18250000000E+03  0.18250000000E+03  0.00000000000E+00 0. -1.
         23    2    1    2    0    0  0.15135983937E+01 -0.15406637967E+02  0.38808948679E+02  0.10058330616E+03  0.91494325004E+02 0.  0.
        -11    1    1    2    0    0  0.12209541459E+03 -0.90516776634E+01  0.22186288271E+02  0.12442449325E+03  0.00000000000E+00 0.  1.
         11    1    1    2    0    0 -0.12360901299E+03  0.24458315630E+02 -0.60995236949E+02  0.13999220059E+03  0.00000000000E+00 0. -1.
        -15    1    3    3    0    0 -0.18710540982E+02 -0.41680210885E+02  0.47838357408E+02  0.66173941184E+02  0.17770000000E+01 0.  1.
         15    1    3    3    0    0  0.20224139375E+02  0.26273572918E+02 -0.90294087298E+01  0.34409364981E+02  0.17770000000E+01 0. -1.
</event>
<event>
 7    1  0.1093668E-008  0.1555291E+03  0.7546771E-02  0.1092213E+00
        -11   -1    0    0    0    0  0.00000000000E+00  0.00000000000E+00  0.18250000000E+03  0.18250000000E+03  0.00000000000E+00 0.  1.
         11   -1    0    0    0    0 -0.00000000000E+00 -0.00000000000E+00 -0.18250000000E+03  0.18250000000E+03  0.00000000000E+00 0.  1.
         23    2    1    2    0    0  0.83329581111E+02 -0.64434119370E+01 -0.71551443721E+02  0.14290001600E+03  0.91189192502E+02 0.  0.
        -11    1    1    2    0    0  0.57987568887E+02 -0.24019203909E+02  0.39072076254E+02  0.73933128195E+02  0.00000000000E+00 0.  1.
         11    1    1    2    0    0 -0.14131715000E+03  0.30462615846E+02  0.32479367467E+02  0.14816685580E+03  0.00000000000E+00 0.  1.
        -15    1    3    3    0    0  0.10237746820E+03 -0.45301365253E+01 -0.68883084491E+02  0.12348969670E+03  0.17770000000E+01 0.  1.
         15    1    3    3    0    0 -0.19047887092E+02 -0.19132754117E+01 -0.26683592299E+01  0.19410319303E+02  0.17770000000E+01 0. -1.
</event>
<event>
 7    1  0.1093668E-008  0.1552025E+03  0.7546771E-02  0.1092533E+00
        -11   -1    0    0    0    0  0.00000000000E+00  0.00000000000E+00  0.18250000000E+03  0.18250000000E+03  0.00000000000E+00 0.  1.
         11   -1    0    0    0    0 -0.00000000000E+00 -0.00000000000E+00 -0.18250000000E+03  0.18250000000E+03  0.00000000000E+00 0.  1.
         23    2    1    2    0    0  0.30058027528E+02 -0.17751603519E+01  0.13756951518E+03  0.17112267558E+03  0.97216060276E+02 0.  0.
        -11    1    1    2    0    0  0.18888260276E+02 -0.56591706451E+02 -0.50259566196E+02  0.78009048254E+02  0.00000000000E+00 0.  1.
         11    1    1    2    0    0 -0.48946287804E+02  0.58366866803E+02 -0.87309948987E+02  0.11586827617E+03  0.00000000000E+00 0.  1.
        -15    1    3    3    0    0  0.30139803698E+02  0.39562868706E+02  0.35924307554E+02  0.61378676667E+02  0.17770000000E+01 0.  1.
         15    1    3    3    0    0 -0.81776170001E-01 -0.41338029058E+02  0.10164520763E+03  0.10974399891E+03  0.17770000000E+01 0. -1.
</event>
<event>
 7    1  0.1093668E-008  0.1897769E+03  0.7546771E-02  0.1062806E+00
        -11   -1    0    0    0    0  0.00000000000E+00  0.00000000000E+00  0.18250000000E+03  0.18250000000E+03  0.00000000000E+00 0.  1.
         11   -1    0    0    0    0 -0.00000000000E+00 -0.00000000000E+00 -0.18250000000E+03  0.18250000000E+03  0.00000000000E+00 0.  1.
         23    2    1    2    0    0 -0.41845108028E+02  0.11538043878E+03 -0.11335914431E+03  0.18977688237E+03  0.90007281717E+02 0.  0.
        -11    1    1    2    0    0  0.40213437383E+02 -0.69511341751E+02  0.42663095653E+02  0.90934519897E+02  0.00000000000E+00 0.  1.
         11    1    1    2    0    0  0.16316706446E+01 -0.45869097033E+02  0.70696048661E+02  0.84288597734E+02  0.00000000000E+00 0.  1.
        -15    1    3    3    0    0 -0.29999232982E+02  0.12098526412E+03 -0.12163890850E+03  0.17417396448E+03  0.17770000000E+01 0.  1.
         15    1    3    3    0    0 -0.11845875046E+02 -0.56048253348E+01  0.82797641849E+01  0.15602917887E+02  0.17770000000E+01 0. -1.
</event>
<event>
 7    1  0.1093668E-008  0.1847387E+03  0.7546771E-02  0.1066687E+00
        -11   -1    0    0    0    0  0.00000000000E+00  0.00000000000E+00  0.18250000000E+03  0.18250000000E+03  0.00000000000E+00 0. -1.
         11   -1    0    0    0    0 -0.00000000000E+00 -0.00000000000E+00 -0.18250000000E+03  0.18250000000E+03  0.00000000000E+00 0.  1.
         23    2    1    2    0    0  0.72270194484E+02  0.11510748133E+03  0.76241288658E+02  0.18320885981E+03  0.96332958786E+02 0.  0.
        -11    1    1    2    0    0 -0.92721600188E+02 -0.10912284056E+03 -0.71074912091E+02  0.15986473220E+03  0.00000000000E+00 0.  1.
         11    1    1    2    0    0  0.20451405704E+02 -0.59846407676E+01 -0.51663765673E+01  0.21926407987E+02  0.00000000000E+00 0. -1.
        -15    1    3    3    0    0  0.67619552227E+02  0.10720725061E+03  0.97544005350E+02  0.15994933303E+03  0.17770000000E+01 0. -1.
         15    1    3    3    0    0  0.46506422568E+01  0.79002307190E+01 -0.21302716692E+02  0.23259526785E+02  0.17770000000E+01 0.  1.
</event>
<event>
 7    1  0.1093668E-008  0.1542588E+03  0.7546771E-02  0.1093461E+00
        -11   -1    0    0    0    0  0.00000000000E+00  0.00000000000E+00  0.18250000000E+03  0.18250000000E+03  0.00000000000E+00 0.  1.
         11   -1    0    0    0    0 -0.00000000000E+00 -0.00000000000E+00 -0.18250000000E+03  0.18250000000E+03  0.00000000000E+00 0. -1.
         23    2    1    2    0    0  0.46641606170E+02 -0.65581905689E+02 -0.36818795249E+02  0.12824419566E+03  0.92814461472E+02 0.  0.
        -11    1    1    2    0    0 -0.10462872943E+03  0.88482142282E+02  0.82065904937E+02  0.15972186224E+03  0.00000000000E+00 0.  1.
         11    1    1    2    0    0  0.57987123257E+02 -0.22900236593E+02 -0.45247109688E+02  0.77033942095E+02  0.00000000000E+00 0. -1.
        -15    1    3    3    0    0  0.55815830801E+02 -0.52485675322E+02  0.11337425568E+02  0.77471594985E+02  0.17770000000E+01 0.  1.
         15    1    3    3    0    0 -0.91742246317E+01 -0.13096230367E+02 -0.48156220817E+02  0.50772600680E+02  0.17770000000E+01 0. -1.
</event>
<event>
 7    1  0.1093668E-008  0.1742849E+03  0.7546771E-02  0.1075189E+00
        -11   -1    0    0    0    0  0.00000000000E+00  0.00000000000E+00  0.18250000000E+03  0.18250000000E+03  0.00000000000E+00 0. -1.
         11   -1    0    0    0    0 -0.00000000000E+00 -0.00000000000E+00 -0.18250000000E+03  0.18250000000E+03  0.00000000000E+00 0.  1.
         23    2    1    2    0    0 -0.17160476567E+02 -0.12670808076E+02  0.13547069921E+03  0.16456709266E+03  0.90966951740E+02 0.  0.
        -11    1    1    2    0    0 -0.20912995157E+02  0.27004876647E+02  0.20099817186E+02  0.39631040613E+02  0.00000000000E+00 0. -1.
         11    1    1    2    0    0  0.38073471725E+02 -0.14334068572E+02 -0.15557051640E+03  0.16080186673E+03  0.00000000000E+00 0.  1.
        -15    1    3    3    0    0 -0.39976118135E+02 -0.26977919339E+02  0.32659887235E+02  0.58272842012E+02  0.17770000000E+01 0.  1.
         15    1    3    3    0    0  0.22815641568E+02  0.14307111263E+02  0.10281081198E+03  0.10629425065E+03  0.17770000000E+01 0. -1.
</event>
<event>
 7    1  0.1093668E-008  0.1520897E+03  0.7546771E-02  0.1095622E+00
        -11   -1    0    0    0    0  0.00000000000E+00  0.00000000000E+00  0.18250000000E+03  0.18250000000E+03  0.00000000000E+00 0. -1.
         11   -1    0    0    0    0 -0.00000000000E+00 -0.00000000000E+00 -0.18250000000E+03  0.18250000000E+03  0.00000000000E+00 0.  1.
         23    2    1    2    0    0 -0.19350370848E+02 -0.10198661711E+02  0.83151923276E+02  0.12604233647E+03  0.92162783620E+02 0.  0.
        -11    1    1    2    0    0  0.38970661693E+02 -0.27704221805E+02 -0.15122907402E+03  0.15860791030E+03  0.00000000000E+00 0.  1.
         11    1    1    2    0    0 -0.19620290845E+02  0.37902883516E+02  0.68077150747E+02  0.80349753239E+02  0.00000000000E+00 0. -1.
        -15    1    3    3    0    0  0.28304321680E+02  0.22694027046E+02  0.26039157953E+02  0.44691710251E+02  0.17770000000E+01 0.  1.
         15    1    3    3    0    0 -0.47654692527E+02 -0.32892688757E+02  0.57112765323E+02  0.81350626214E+02  0.17770000000E+01 0. -1.
</event>
<event>
 7    1  0.1748651E-008  0.1868441E+03  0.7546771E-02  0.1065049E+00
        -11   -1    0    0    0    0  0.00000000000E+00  0.00000000000E+00  0.18250000000E+03  0.18250000000E+03  0.00000000000E+00 0.  1.
         11   -1    0    0    0    0 -0.00000000000E+00 -0.00000000000E+00 -0.18250000000E+03  0.18250000000E+03  0.00000000000E+00 0.  1.
         23    2    1    2    0    0  0.32708609222E+01 -0.44640464419E+02  0.15628780493E+03  0.18684413421E+03  0.92094423956E+02 0.  0.
        -11    1    1    2    0    0  0.27070627367E+02 -0.16586316634E+01 -0.31032568843E+02  0.41213957029E+02  0.00000000000E+00 0.  1.
         11    1    1    2    0    0 -0.30341488289E+02  0.46299096082E+02 -0.12525523608E+03  0.13694190876E+03  0.00000000000E+00 0.  1.
        -15    1    3    3    0    0  0.19777943014E+01  0.20911201136E+01 -0.11847791054E+02  0.12321214855E+02  0.17770000000E+01 0. -1.
         15    1    3    3    0    0  0.12930666208E+01 -0.46731584532E+02  0.16813559598E+03  0.17452291935E+03  0.17770000000E+01 0.  1.
</event>
<event>
 7    1  0.1093668E-008  0.1557771E+03  0.7546771E-02  0.1091971E+00
        -11   -1    0    0    0    0  0.00000000000E+00  0.00000000000E+00  0.18250000000E+03  0.18250000000E+03  0.00000000000E+00 0.  1.
         11   -1    0    0    0    0 -0.00000000000E+00 -0.00000000000E+00 -0.18250000000E+03  0.18250000000E+03  0.00000000000E+00 0. -1.
         23    2    1    2    0    0 -0.15116514596E+03  0.18892962269E+02 -0.21370337906E+02  0.17766585654E+03  0.88885431099E+02 0.  0.
        -11    1    1    2    0    0  0.10095701372E+03  0.24864783557E+02  0.49354881050E+02  0.11509335499E+03  0.00000000000E+00 0.  1.
         11    1    1    2    0    0  0.50208132243E+02 -0.43757745826E+02 -0.27984543144E+02  0.72240788465E+02  0.00000000000E+00 0. -1.
        -15    1    3    3    0    0 -0.10202208096E+03 -0.29756075164E+02 -0.40875079525E+01  0.10636632204E+03  0.17770000000E+01 0. -1.
         15    1    3    3    0    0 -0.49143064999E+02  0.48649037433E+02 -0.17282829953E+02  0.71299534506E+02  0.17770000000E+01 0.  1.
</event>
<event>
 7    1  0.1093668E-008  0.2160528E+03  0.7546771E-02  0.1044498E+00
        -11   -1    0    0    0    0  0.00000000000E+00  0.00000000000E+00  0.18250000000E+03  0.18250000000E+03  0.00000000000E+00 0.  1.
         11   -1    0    0    0    0 -0.00000000000E+00 -0.00000000000E+00 -0.18250000000E+03  0.18250000000E+03  0.00000000000E+00 0. -1.
         23    2    1    2    0    0 -0.70860604864E+01  0.18245429945E+02 -0.55414287549E+02  0.10943458097E+03  0.92315092381E+02 0.  0.
        -11    1    1    2    0    0  0.98101471842E+02 -0.16163906711E+02  0.11090579900E+03  0.14894719504E+03  0.00000000000E+00 0.  1.
         11    1    1    2    0    0 -0.91015411356E+02 -0.20815232334E+01 -0.55491511451E+02  0.10661822399E+03  0.00000000000E+00 0. -1.
        -15    1    3    3    0    0  0.14659913321E+02  0.22237495523E+02  0.18359666002E+02  0.32398369256E+02  0.17770000000E+01 0.  1.
         15    1    3    3    0    0 -0.21745973808E+02 -0.39920655784E+01 -0.73773953551E+02  0.77036211719E+02  0.17770000000E+01 0. -1.
</event>
<event>
 7    1  0.1093668E-008  0.1497822E+03  0.7546771E-02  0.1097965E+00
        -11   -1    0    0    0    0  0.00000000000E+00  0.00000000000E+00  0.18250000000E+03  0.18250000000E+03  0.00000000000E+00 0.  1.
         11   -1    0    0    0    0 -0.00000000000E+00 -0.00000000000E+00 -0.18250000000E+03  0.18250000000E+03  0.00000000000E+00 0. -1.
         23    2    1    2    0    0  0.43634947394E+02 -0.57617390507E+02  0.63570522761E+02  0.13119446243E+03  0.89145966172E+02 0.  0.
        -11    1    1    2    0    0 -0.50327709194E+02 -0.46885371132E+02  0.45604651074E+02  0.82528180269E+02  0.00000000000E+00 0.  1.
         11    1    1    2    0    0  0.66927617999E+01  0.10450276164E+03 -0.10917517384E+03  0.15127735730E+03  0.00000000000E+00 0. -1.
        -15    1    3    3    0    0  0.95463804719E+01 -0.49269359367E+02 -0.85766457439E+01  0.50944280678E+02  0.17770000000E+01 0.  1.
         15    1    3    3    0    0  0.34088566922E+02 -0.83480311403E+01  0.72147168505E+02  0.80250181750E+02  0.17770000000E+01 0. -1.
</event>
<event>
 7    1  0.1093668E-008  0.1463163E+03  0.7546771E-02  0.1101572E+00
        -11   -1    0    0    0    0  0.00000000000E+00  0.00000000000E+00  0.18250000000E+03  0.18250000000E+03  0.00000000000E+00 0.  1.
         11   -1    0    0    0    0 -0.00000000000E+00 -0.00000000000E+00 -0.18250000000E+03  0.18250000000E+03  0.00000000000E+00 0.  1.
         23    2    1    2    0    0  0.87034536660E+02  0.72057403625E+02 -0.43542820529E+02  0.15070607746E+03  0.89716579151E+02 0.  0.
        -11    1    1    2    0    0 -0.64880989676E+02  0.51171853857E+02  0.31798678534E+02  0.88539581008E+02  0.00000000000E+00 0.  1.
         11    1    1    2    0    0 -0.22153546984E+02 -0.12322925748E+03  0.11744141995E+02  0.12575434153E+03  0.00000000000E+00 0.  1.
        -15    1    3    3    0    0 -0.17448044193E+01  0.53504803949E+02 -0.16489730252E+02  0.56043530589E+02  0.17770000000E+01 0. -1.
         15    1    3    3    0    0  0.88779341080E+02  0.18552599675E+02 -0.27053090277E+02  0.94662546869E+02  0.17770000000E+01 0.  1.
</event>
<event>
 7    1  0.1093668E-008  0.1607324E+03  0.7546771E-02  0.1087236E+00
        -11   -1    0    0    0    0  0.00000000000E+00  0.00000000000E+00  0.18250000000E+03  0.18250000000E+03  0.00000000000E+00 0.  1.
         11   -1    0    0    0    0 -0.00000000000E+00 -0.00000000000E+00 -0.18250000000E+03  0.18250000000E+03  0.00000000000E+00 0.  1.
         23    2    1    2    0    0 -0.14666343007E+03 -0.59133429775E+00  0.29243730246E+02  0.17738054771E+03  0.95384231156E+02 0.  0.
        -11    1    1    2    0    0  0.11529983983E+03  0.23325292840E+02  0.25683866288E+02  0.12040674125E+03  0.00000000000E+00 0.  1.
         11    1    1    2    0    0  0.31363590236E+02 -0.22733958542E+02 -0.54927596534E+02  0.67212711033E+02  0.00000000000E+00 0.  1.
        -15    1    3    3    0    0 -0.85995741052E+02 -0.17050640648E+02  0.61110484948E+02  0.10688143396E+03  0.17770000000E+01 0.  1.
         15    1    3    3    0    0 -0.60667689016E+02  0.16459306351E+02 -0.31866754702E+02  0.70499113755E+02  0.17770000000E+01 0. -1.
</event>
<event>
 7    1  0.1093668E-008  0.1856401E+03  0.7546771E-02  0.1065982E+00
        -11   -1    0    0    0    0  0.00000000000E+00  0.00000000000E+00  0.18250000000E+03  0.18250000000E+03  0.00000000000E+00 0. -1.
         11   -1    0    0    0    0 -0.00000000000E+00 -0.00000000000E+00 -0.18250000000E+03  0.18250000000E+03  0.00000000000E+00 0.  1.
         23    2    1    2    0    0 -0.70990484566E+02 -0.13470571848E+03  0.52618075637E+02  0.18564013392E+03  0.92240543946E+02 0.  0.
        -11    1    1    2    0    0  0.16762137298E+01  0.48848058279E+02 -0.48622428342E+02  0.68942606768E+02  0.00000000000E+00 0.  1.
         11    1    1    2    0    0  0.69314270836E+02  0.85857660202E+02 -0.39956472954E+01  0.11041725931E+03  0.00000000000E+00 0. -1.
        -15    1    3    3    0    0 -0.82792515729E+02 -0.70840037523E+02  0.13522550441E+02  0.10981315348E+03  0.17770000000E+01 0. -1.
         15    1    3    3    0    0  0.11802031163E+02 -0.63865680957E+02  0.39095525196E+02  0.75826980443E+02  0.17770000000E+01 0.  1.
</event>
<event>
 7    1  0.1093668E-008  0.1847189E+03  0.7546771E-02  0.1066702E+00
        -11   -1    0    0    0    0  0.00000000000E+00  0.00000000000E+00  0.18250000000E+03  0.18250000000E+03  0.00000000000E+00 0.  1.
         11   -1    0    0    0    0 -0.00000000000E+00 -0.00000000000E+00 -0.18250000000E+03  0.18250000000E+03  0.00000000000E+00 0. -1.
         23    2    1    2    0    0  0.13585910930E+03 -0.29936475964E+02  0.83615288967E+02  0.18471886284E+03  0.88179655066E+02 0.  0.
        -11    1    1    2    0    0 -0.34736876941E+02 -0.26699591352E+02 -0.23442571807E+02  0.49689767266E+02  0.00000000000E+00 0.  1.
         11    1    1    2    0    0 -0.10112223236E+03  0.56636067317E+02 -0.60172717160E+02  0.13059136989E+03  0.00000000000E+00 0. -1.
        -15    1    3    3    0    0  0.14192785558E+03 -0.31674826268E+02  0.55195613774E+02  0.15555232019E+03  0.17770000000E+01 0.  1.
         15    1    3    3    0    0 -0.60687462765E+01  0.17383503034E+01  0.28419675193E+02  0.29166542651E+02  0.17770000000E+01 0. -1.
</event>
<event>
 7    1  0.1093668E-008  0.1896411E+03  0.7546771E-02  0.1062908E+00
        -11   -1    0    0    0    0  0.00000000000E+00  0.00000000000E+00  0.18250000000E+03  0.18250000000E+03  0.00000000000E+00 0.  1.
         11   -1    0    0    0    0 -0.00000000000E+00 -0.00000000000E+00 -0.18250000000E+03  0.18250000000E+03  0.00000000000E+00 0. -1.
         23    2    1    2    0    0  0.37744224946E+02  0.11100042947E+03 -0.11804183529E+03  0.18964105364E+03  0.91017209848E+02 0.  0.
        -11    1    1    2    0    0 -0.47708750641E+02 -0.95918909531E+02  0.81553112303E+02  0.13463830146E+03  0.00000000000E+00 0. -1.
         11    1    1    2    0    0  0.99645256959E+01 -0.15081519944E+02  0.36488722982E+02  0.40720644900E+02  0.00000000000E+00 0.  1.
        -15    1    3    3    0    0  0.29658208630E+01 -0.12805405245E+02  0.23542522189E+01  0.13471255673E+02  0.17770000000E+01 0. -1.
         15    1    3    3    0    0  0.34778404083E+02  0.12380583472E+03 -0.12039608750E+03  0.17616979797E+03  0.17770000000E+01 0.  1.
</event>
<event>
 7    1  0.1093668E-008  0.1639615E+03  0.7546771E-02  0.1084251E+00
        -11   -1    0    0    0    0  0.00000000000E+00  0.00000000000E+00  0.18250000000E+03  0.18250000000E+03  0.00000000000E+00 0. -1.
         11   -1    0    0    0    0 -0.00000000000E+00 -0.00000000000E+00 -0.18250000000E+03  0.18250000000E+03  0.00000000000E+00 0. -1.
         23    2    1    2    0    0  0.11234827164E+02  0.39289600268E+02  0.10815448339E+03  0.14737729665E+03  0.91393551522E+02 0.  0.
        -11    1    1    2    0    0  0.43455595904E+02 -0.12411866026E+02  0.38144842568E+02  0.59139430570E+02  0.00000000000E+00 0. -1.
         11    1    1    2    0    0 -0.54690423068E+02 -0.26877734242E+02 -0.14629932596E+03  0.15848327278E+03  0.00000000000E+00 0. -1.
        -15    1    3    3    0    0 -0.29764170746E+02  0.27861475446E+02  0.12522451512E+02  0.42686498979E+02  0.17770000000E+01 0.  1.
         15    1    3    3    0    0  0.40998997910E+02  0.11428124822E+02  0.95632031883E+02  0.10469079767E+03  0.17770000000E+01 0. -1.
</event>
<event>
 7    1  0.1093668E-008  0.1387245E+03  0.7546771E-02  0.1109873E+00
        -11   -1    0    0    0    0  0.00000000000E+00  0.00000000000E+00  0.18250000000E+03  0.18250000000E+03  0.00000000000E+00 0.  1.
         11   -1    0    0    0    0 -0.00000000000E+00 -0.00000000000E+00 -0.18250000000E+03  0.18250000000E+03  0.00000000000E+00 0.  1.
         23    2    1    2    0    0 -0.55508552448E+02  0.11471443005E+02  0.30317036451E+02  0.12026909985E+03  0.10165008746E+03 0.  0.
        -11    1    1    2    0    0  0.10558694841E+01 -0.75039142364E+02  0.77736419003E+02  0.10805062974E+03  0.00000000000E+00 0.  1.
         11    1    1    2    0    0  0.54452682963E+02  0.63567699359E+02 -0.10805345545E+03  0.13668027041E+03  0.00000000000E+00 0.  1.
        -15    1    3    3    0    0 -0.27307524285E+02 -0.39944213440E+02  0.37390360423E+02  0.61175467726E+02  0.17770000000E+01 0. -1.
         15    1    3    3    0    0 -0.28201028163E+02  0.51415656445E+02 -0.70733239724E+01  0.59093632128E+02  0.17770000000E+01 0.  1.
</event>
<event>
 7    1  0.1093668E-008  0.1617569E+03  0.7546771E-02  0.1086281E+00
        -11   -1    0    0    0    0  0.00000000000E+00  0.00000000000E+00  0.18250000000E+03  0.18250000000E+03  0.00000000000E+00 0. -1.
         11   -1    0    0    0    0 -0.00000000000E+00 -0.00000000000E+00 -0.18250000000E+03  0.18250000000E+03  0.00000000000E+00 0.  1.
         23    2    1    2    0    0 -0.62952842044E+02 -0.85321758334E+02 -0.90498153431E+02  0.16688937946E+03  0.91756669700E+02 0.  0.
        -11    1    1    2    0    0  0.51244229026E+01  0.10867214005E+03  0.79592871063E+02  0.13479955066E+03  0.00000000000E+00 0. -1.
         11    1    1    2    0    0  0.57828419142E+02 -0.23350381715E+02  0.10905282368E+02  0.63311069887E+02  0.00000000000E+00 0.  1.
        -15    1    3    3    0    0 -0.82774349893E+02 -0.77735523489E+02 -0.56685913896E+02  0.12692854358E+03  0.17770000000E+01 0.  1.
         15    1    3    3    0    0  0.19821507849E+02 -0.75862348455E+01 -0.33812239536E+02  0.39960835876E+02  0.17770000000E+01 0. -1.
</event>
<event>
 7    1  0.1093668E-008  0.1606368E+03  0.7546771E-02  0.1087326E+00
        -11   -1    0    0    0    0  0.00000000000E+00  0.00000000000E+00  0.18250000000E+03  0.18250000000E+03  0.00000000000E+00 0.  1.
         11   -1    0    0    0    0 -0.00000000000E+00 -0.00000000000E+00 -0.18250000000E+03  0.18250000000E+03  0.00000000000E+00 0. -1.
         23    2    1    2    0    0 -0.46467272859E+02  0.60667248961E+02  0.90442351153E+02  0.15000303655E+03  0.92094351334E+02 0.  0.
        -11    1    1    2    0    0 -0.41402984965E+00 -0.41972731352E+02  0.50279769756E+02  0.65497609457E+02  0.00000000000E+00 0.  1.
         11    1    1    2    0    0  0.46881302708E+02 -0.18694517609E+02 -0.14072212091E+03  0.14949935400E+03  0.00000000000E+00 0. -1.
        -15    1    3    3    0    0  0.21860465059E+02 -0.74580353665E+01  0.17210326600E+02  0.28859232401E+02  0.17770000000E+01 0. -1.
         15    1    3    3    0    0 -0.68327737917E+02  0.68125284328E+02  0.73232024553E+02  0.12114380415E+03  0.17770000000E+01 0.  1.
</event>
<event>
 7    1  0.1093668E-008  0.1593980E+03  0.7546771E-02  0.1088493E+00
        -11   -1    0    0    0    0  0.00000000000E+00  0.00000000000E+00  0.18250000000E+03  0.18250000000E+03  0.00000000000E+00 0.  1.
         11   -1    0    0    0    0 -0.00000000000E+00 -0.00000000000E+00 -0.18250000000E+03  0.18250000000E+03  0.00000000000E+00 0. -1.
         23    2    1    2    0    0  0.13594853164E+03 -0.47997813643E+02  0.24262195075E+02  0.17259545884E+03  0.91731918832E+02 0.  0.
        -11    1    1    2    0    0 -0.12362644059E+03 -0.35266873452E+01  0.17548765324E+02  0.12491554547E+03  0.00000000000E+00 0.  1.
         11    1    1    2    0    0 -0.12322091054E+02  0.51524500988E+02 -0.41810960399E+02  0.67488995692E+02  0.00000000000E+00 0. -1.
        -15    1    3    3    0    0  0.12433977055E+03 -0.37384067925E+01  0.24528773260E+02  0.12680367768E+03  0.17770000000E+01 0.  1.
         15    1    3    3    0    0  0.11608761085E+02 -0.44259406850E+02 -0.26657818473E+00  0.45791781158E+02  0.17770000000E+01 0. -1.
</event>
<event>
 7    1  0.1093668E-008  0.1517049E+03  0.7546771E-02  0.1096009E+00
        -11   -1    0    0    0    0  0.00000000000E+00  0.00000000000E+00  0.18250000000E+03  0.18250000000E+03  0.00000000000E+00 0. -1.
         11   -1    0    0    0    0 -0.00000000000E+00 -0.00000000000E+00 -0.18250000000E+03  0.18250000000E+03  0.00000000000E+00 0.  1.
         23    2    1    2    0    0 -0.59285792565E+02  0.10029028775E+03 -0.35948697769E+02  0.15288778552E+03  0.92246512535E+02 0.  0.
        -11    1    1    2    0    0 -0.31870219614E+02 -0.57183106858E+02 -0.47780186101E+02  0.81046682795E+02  0.00000000000E+00 0.  1.
         11    1    1    2    0    0  0.91156012179E+02 -0.43107180889E+02  0.83728883870E+02  0.13106553168E+03  0.00000000000E+00 0. -1.
        -15    1    3    3    0    0 -0.56835135732E+02  0.53179832815E+02 -0.61493847045E+02  0.99211784710E+02  0.17770000000E+01 0.  1.
         15    1    3    3    0    0 -0.24506568327E+01  0.47110454932E+02  0.25545149277E+02  0.53676000814E+02  0.17770000000E+01 0. -1.
</event>
<event>
 7    1  0.1093668E-008  0.1616240E+03  0.7546771E-02  0.1086404E+00
        -11   -1    0    0    0    0  0.00000000000E+00  0.00000000000E+00  0.18250000000E+03  0.18250000000E+03  0.00000000000E+00 0.  1.
         11   -1    0    0    0    0 -0.00000000000E+00 -0.00000000000E+00 -0.18250000000E+03  0.18250000000E+03  0.00000000000E+00 0.  1.
         23    2    1    2    0    0  0.53678177319E+01  0.36797157422E+02  0.10733887930E+03  0.14548120327E+03  0.90886199360E+02 0.  0.
        -11    1    1    2    0    0 -0.37128462169E+02 -0.54234672788E+01 -0.15188553466E+03  0.15645175722E+03  0.00000000000E+00 0.  1.
         11    1    1    2    0    0  0.31760644437E+02 -0.31373690143E+02  0.44546655357E+02  0.63067039503E+02  0.00000000000E+00 0.  1.
        -15    1    3    3    0    0  0.16910940670E+02 -0.81664855814E+01 -0.84881774430E+01  0.20685219032E+02  0.17770000000E+01 0. -1.
         15    1    3    3    0    0 -0.11543122938E+02  0.44963643003E+02  0.11582705674E+03  0.12479598424E+03  0.17770000000E+01 0.  1.
</event>
<event>
 7    1  0.1093668E-008  0.1664614E+03  0.7546771E-02  0.1081990E+00
        -11   -1    0    0    0    0  0.00000000000E+00  0.00000000000E+00  0.18250000000E+03  0.18250000000E+03  0.00000000000E+00 0. -1.
         11   -1    0    0    0    0 -0.00000000000E+00 -0.00000000000E+00 -0.18250000000E+03  0.18250000000E+03  0.00000000000E+00 0. -1.
         23    2    1    2    0    0 -0.78585853986E+02  0.26796129501E+01  0.88088813656E+02  0.14993019953E+03  0.92393229557E+02 0.  0.
        -11    1    1    2    0    0 -0.10685447777E+02 -0.35987050388E+02  0.40372625457E+02  0.55128898738E+02  0.00000000000E+00 0. -1.
         11    1    1    2    0    0  0.89271301763E+02  0.33307437438E+02 -0.12846143911E+03  0.15994090173E+03  0.00000000000E+00 0. -1.
        -15    1    3    3    0    0 -0.36304786503E+02 -0.27606410301E+02  0.86573670996E+02  0.97868839022E+02  0.17770000000E+01 0.  1.
         15    1    3    3    0    0 -0.42281067483E+02  0.30286023251E+02  0.15151426598E+01  0.52061360510E+02  0.17770000000E+01 0. -1.
</event>
<event>
 7    1  0.1093668E-008  0.2072519E+03  0.7546771E-02  0.1050299E+00
        -11   -1    0    0    0    0  0.00000000000E+00  0.00000000000E+00  0.18250000000E+03  0.18250000000E+03  0.00000000000E+00 0.  1.
         11   -1    0    0    0    0 -0.00000000000E+00 -0.00000000000E+00 -0.18250000000E+03  0.18250000000E+03  0.00000000000E+00 0.  1.
         23    2    1    2    0    0 -0.67416739143E+01  0.28963473576E+02  0.65707519684E+02  0.11277658537E+03  0.86699175872E+02 0.  0.
        -11    1    1    2    0    0  0.44068276256E+02  0.70485889990E+01  0.83270021011E+02  0.94475351168E+02  0.00000000000E+00 0.  1.
         11    1    1    2    0    0 -0.37326602342E+02 -0.36012062576E+02 -0.14897754070E+03  0.15774806346E+03  0.00000000000E+00 0.  1.
        -15    1    3    3    0    0  0.23134283804E+02 -0.18087665211E+02  0.41396367974E+01  0.29709477305E+02  0.17770000000E+01 0. -1.
         15    1    3    3    0    0 -0.29875957719E+02  0.47051138788E+02  0.61567882887E+02  0.83067108069E+02  0.17770000000E+01 0.  1.
</event>
<event>
 7    1  0.1093668E-008  0.1447302E+03  0.7546771E-02  0.1103260E+00
        -11   -1    0    0    0    0  0.00000000000E+00  0.00000000000E+00  0.18250000000E+03  0.18250000000E+03  0.00000000000E+00 0.  1.
         11   -1    0    0    0    0 -0.00000000000E+00 -0.00000000000E+00 -0.18250000000E+03  0.18250000000E+03  0.00000000000E+00 0. -1.
         23    2    1    2    0    0 -0.58719235536E+02  0.48140054577E+02 -0.58231533788E+02  0.13318996899E+03  0.92645792326E+02 0.  0.
        -11    1    1    2    0    0  0.76855450208E+02  0.24310338004E+02  0.11327733942E+03  0.13903060234E+03  0.00000000000E+00 0.  1.
         11    1    1    2    0    0 -0.18136214671E+02 -0.72450392581E+02 -0.55045805629E+02  0.92779428674E+02  0.00000000000E+00 0. -1.
        -15    1    3    3    0    0 -0.12896240076E+02  0.16263304573E+02  0.25259820576E+02  0.32741782912E+02  0.17770000000E+01 0.  1.
         15    1    3    3    0    0 -0.45822995460E+02  0.31876750004E+02 -0.83491354364E+02  0.10044818608E+03  0.17770000000E+01 0. -1.
</event>
<event>
 7    1  0.1093668E-008  0.2228624E+03  0.7546771E-02  0.1040212E+00
        -11   -1    0    0    0    0  0.00000000000E+00  0.00000000000E+00  0.18250000000E+03  0.18250000000E+03  0.00000000000E+00 0. -1.
         11   -1    0    0    0    0 -0.00000000000E+00 -0.00000000000E+00 -0.18250000000E+03  0.18250000000E+03  0.00000000000E+00 0.  1.
         23    2    1    2    0    0 -0.30410198520E+01 -0.11921103296E-01 -0.22660157511E+02  0.97439547170E+02  0.94719241289E+02 0.  0.
        -11    1    1    2    0    0  0.66852398002E+02  0.74106645082E+02  0.10120301351E+03  0.14213756684E+03  0.00000000000E+00 0. -1.
         11    1    1    2    0    0 -0.63811378150E+02 -0.74094723978E+02 -0.78542855995E+02  0.12542288599E+03  0.00000000000E+00 0.  1.
        -15    1    3    3    0    0  0.21664093246E+02 -0.25687622891E+02  0.22056954649E+02  0.40234983327E+02  0.17770000000E+01 0. -1.
         15    1    3    3    0    0 -0.24705113098E+02  0.25675701788E+02 -0.44717112160E+02  0.57204563843E+02  0.17770000000E+01 0.  1.
</event>
<event>
 7    1  0.1093668E-008  0.1388625E+03  0.7546771E-02  0.1109717E+00
        -11   -1    0    0    0    0  0.00000000000E+00  0.00000000000E+00  0.18250000000E+03  0.18250000000E+03  0.00000000000E+00 0.  1.
         11   -1    0    0    0    0 -0.00000000000E+00 -0.00000000000E+00 -0.18250000000E+03  0.18250000000E+03  0.00000000000E+00 0.  1.
         23    2    1    2    0    0  0.36268124833E+02  0.37245110315E+02  0.10238805228E+03  0.14728532058E+03  0.92233818559E+02 0.  0.
        -11    1    1    2    0    0 -0.81592322588E+02  0.47704020411E+02 -0.37903165855E+02  0.10183138343E+03  0.00000000000E+00 0.  1.
         11    1    1    2    0    0  0.45324197755E+02 -0.84949130726E+02 -0.64484886429E+02  0.11588329600E+03  0.00000000000E+00 0.  1.
        -15    1    3    3    0    0  0.61596445349E+02  0.42522298164E+02  0.53750030584E+02  0.92165565357E+02  0.17770000000E+01 0.  1.
         15    1    3    3    0    0 -0.25328320516E+02 -0.52771878490E+01  0.48638021700E+02  0.55119755221E+02  0.17770000000E+01 0. -1.
</event>
<event>
 7    1  0.1111070E-008  0.1390127E+03  0.7546771E-02  0.1109548E+00
        -11   -1    0    0    0    0  0.00000000000E+00  0.00000000000E+00  0.18250000000E+03  0.18250000000E+03  0.00000000000E+00 0.  1.
         11   -1    0    0    0    0 -0.00000000000E+00 -0.00000000000E+00 -0.18250000000E+03  0.18250000000E+03  0.00000000000E+00 0.  1.
         23    2    1    2    0    0  0.28207413255E+02  0.68356566139E+02  0.41161323048E+02  0.12700086552E+03  0.94692592274E+02 0.  0.
        -11    1    1    2    0    0 -0.37269477022E+02 -0.35382648675E+02  0.89354103034E+02  0.10307813286E+03  0.00000000000E+00 0.  1.
         11    1    1    2    0    0  0.90620637677E+01 -0.32973917464E+02 -0.13051542608E+03  0.13492100162E+03  0.00000000000E+00 0.  1.
        -15    1    3    3    0    0  0.16297331524E+02  0.44438258116E+02  0.71984416580E+02  0.86170039797E+02  0.17770000000E+01 0.  1.
         15    1    3    3    0    0  0.11910081731E+02  0.23918308022E+02 -0.30823093532E+02  0.40830825725E+02  0.17770000000E+01 0. -1.
</event>
<event>
 7    1  0.1093668E-008  0.1507685E+03  0.7546771E-02  0.1096958E+00
        -11   -1    0    0    0    0  0.00000000000E+00  0.00000000000E+00  0.18250000000E+03  0.18250000000E+03  0.00000000000E+00 0. -1.
         11   -1    0    0    0    0 -0.00000000000E+00 -0.00000000000E+00 -0.18250000000E+03  0.18250000000E+03  0.00000000000E+00 0. -1.
         23    2    1    2    0    0  0.30140646341E+02  0.36346892952E+02 -0.10372391206E+03  0.14552717559E+03  0.90498363037E+02 0.  0.
        -11    1    1    2    0    0 -0.94360231784E+02 -0.72956067226E+02  0.69091689673E+02  0.13784085994E+03  0.00000000000E+00 0. -1.
         11    1    1    2    0    0  0.64219585443E+02  0.36609174274E+02  0.34632222390E+02  0.81631964469E+02  0.00000000000E+00 0. -1.
        -15    1    3    3    0    0 -0.26366397239E+02  0.69175871533E-02 -0.62931147484E+01  0.27165197835E+02  0.17770000000E+01 0.  1.
         15    1    3    3    0    0  0.56507043580E+02  0.36339975365E+02 -0.97430797314E+02  0.11836197775E+03  0.17770000000E+01 0. -1.
</event>
<event>
 7    1  0.1093668E-008  0.2105231E+03  0.7546771E-02  0.1048107E+00
        -11   -1    0    0    0    0  0.00000000000E+00  0.00000000000E+00  0.18250000000E+03  0.18250000000E+03  0.00000000000E+00 0. -1.
         11   -1    0    0    0    0 -0.00000000000E+00 -0.00000000000E+00 -0.18250000000E+03  0.18250000000E+03  0.00000000000E+00 0.  1.
         23    2    1    2    0    0  0.28368814389E+01  0.15137762002E+02 -0.59969878303E+02  0.11253750331E+03  0.93973951774E+02 0.  0.
        -11    1    1    2    0    0  0.36856999842E+02 -0.60132569409E+02  0.13743630367E+03  0.15447686528E+03  0.00000000000E+00 0. -1.
         11    1    1    2    0    0 -0.39693881280E+02  0.44994807406E+02 -0.77466425364E+02  0.97985631413E+02  0.00000000000E+00 0.  1.
        -15    1    3    3    0    0  0.12424555976E+02 -0.22380963399E+02 -0.68235679567E+02  0.72900910892E+02  0.17770000000E+01 0.  1.
         15    1    3    3    0    0 -0.95876745375E+01  0.37518725401E+02  0.82658012638E+01  0.39636592415E+02  0.17770000000E+01 0. -1.
</event>
<event>
 7    1  0.1093668E-008  0.1690052E+03  0.7546771E-02  0.1079735E+00
        -11   -1    0    0    0    0  0.00000000000E+00  0.00000000000E+00  0.18250000000E+03  0.18250000000E+03  0.00000000000E+00 0. -1.
         11   -1    0    0    0    0 -0.00000000000E+00 -0.00000000000E+00 -0.18250000000E+03  0.18250000000E+03  0.00000000000E+00 0. -1.
         23    2    1    2    0    0 -0.36368467253E+02  0.41775908286E+02 -0.13120937814E+03  0.16958436663E+03  0.92060113906E+02 0.  0.
        -11    1    1    2    0    0  0.76974982711E+02 -0.59669179357E+02  0.10767213313E+03  0.14518556120E+03  0.00000000000E+00 0. -1.
         11    1    1    2    0    0 -0.40606515458E+02  0.17893271071E+02  0.23537245001E+02  0.50230072163E+02  0.00000000000E+00 0. -1.
        -15    1    3    3    0    0  0.12040439203E+02  0.50748824300E+02 -0.39395144778E+02  0.65387693835E+02  0.17770000000E+01 0.  1.
         15    1    3    3    0    0 -0.48408906456E+02 -0.89729160139E+01 -0.91814233358E+02  0.10419667280E+03  0.17770000000E+01 0. -1.
</event>
<event>
 7    1  0.1093668E-008  0.1578342E+03  0.7546771E-02  0.1089983E+00
        -11   -1    0    0    0    0  0.00000000000E+00  0.00000000000E+00  0.18250000000E+03  0.18250000000E+03  0.00000000000E+00 0.  1.
         11   -1    0    0    0    0 -0.00000000000E+00 -0.00000000000E+00 -0.18250000000E+03  0.18250000000E+03  0.00000000000E+00 0.  1.
         23    2    1    2    0    0  0.11776379723E+02 -0.81692964333E+02  0.11111815273E+03  0.16654596428E+03  0.92616903487E+02 0.  0.
        -11    1    1    2    0    0 -0.29399482040E+02  0.14310640453E+02 -0.12346329111E+03  0.12771964699E+03  0.00000000000E+00 0.  1.
         11    1    1    2    0    0  0.17623102318E+02  0.67382323880E+02  0.12345138381E+02  0.70734388726E+02  0.00000000000E+00 0.  1.
        -15    1    3    3    0    0 -0.31880230842E+02 -0.69754354521E+02  0.83976824000E+02  0.11374218123E+03  0.17770000000E+01 0.  1.
         15    1    3    3    0    0  0.43656610565E+02 -0.11938609812E+02  0.27141328733E+02  0.52803783053E+02  0.17770000000E+01 0. -1.
</event>
<event>
 7    1  0.1093668E-008  0.1579923E+03  0.7546771E-02  0.1089831E+00
        -11   -1    0    0    0    0  0.00000000000E+00  0.00000000000E+00  0.18250000000E+03  0.18250000000E+03  0.00000000000E+00 0. -1.
         11   -1    0    0    0    0 -0.00000000000E+00 -0.00000000000E+00 -0.18250000000E+03  0.18250000000E+03  0.00000000000E+00 0. -1.
         23    2    1    2    0    0 -0.61628668106E+02 -0.41008731161E+02 -0.98604159325E+02  0.14884900101E+03  0.83387265817E+02 0.  0.
        -11    1    1    2    0    0  0.98877171334E+02  0.87902561496E+02  0.71950845764E+02  0.15060039686E+03  0.00000000000E+00 0. -1.
         11    1    1    2    0    0 -0.37248503228E+02 -0.46893830335E+02  0.26653313561E+02  0.65550602133E+02  0.00000000000E+00 0. -1.
        -15    1    3    3    0    0 -0.25460295899E+02 -0.15624586415E+02 -0.10022427268E+03  0.10459644799E+03  0.17770000000E+01 0. -1.
         15    1    3    3    0    0 -0.36168372207E+02 -0.25384144746E+02  0.16201133552E+01  0.44252553021E+02  0.17770000000E+01 0.  1.
</event>
<event>
 7    1  0.1093668E-008  0.1331201E+03  0.7546771E-02  0.1116387E+00
        -11   -1    0    0    0    0  0.00000000000E+00  0.00000000000E+00  0.18250000000E+03  0.18250000000E+03  0.00000000000E+00 0. -1.
         11   -1    0    0    0    0 -0.00000000000E+00 -0.00000000000E+00 -0.18250000000E+03  0.18250000000E+03  0.00000000000E+00 0. -1.
         23    2    1    2    0    0  0.66453643617E+02  0.46106982753E+02 -0.46335133618E+00  0.11352389090E+03  0.79658762874E+02 0.  0.
        -11    1    1    2    0    0  0.12610285981E+02  0.29853173378E+02 -0.98551610428E+02  0.10374319829E+03  0.00000000000E+00 0. -1.
         11    1    1    2    0    0 -0.79063929598E+02 -0.75960156131E+02  0.99014961764E+02  0.14773291081E+03  0.00000000000E+00 0. -1.
        -15    1    3    3    0    0  0.45390979443E+02 -0.15808420640E+02 -0.43101871366E+00  0.48099799210E+02  0.17770000000E+01 0.  1.
         15    1    3    3    0    0  0.21062664174E+02  0.61915403393E+02 -0.32332622521E-01  0.65424091693E+02  0.17770000000E+01 0. -1.
</event>
<event>
 7    1  0.1093668E-008  0.1697216E+03  0.7546771E-02  0.1079107E+00
        -11   -1    0    0    0    0  0.00000000000E+00  0.00000000000E+00  0.18250000000E+03  0.18250000000E+03  0.00000000000E+00 0.  1.
         11   -1    0    0    0    0 -0.00000000000E+00 -0.00000000000E+00 -0.18250000000E+03  0.18250000000E+03  0.00000000000E+00 0. -1.
         23    2    1    2    0    0 -0.14532487864E+01 -0.11584981734E+02 -0.15957993750E+03  0.18455061978E+03  0.91961138935E+02 0.  0.
        -11    1    1    2    0    0  0.26786563387E+02 -0.21475466471E+02  0.34730260280E+02  0.48835505704E+02  0.00000000000E+00 0. -1.
         11    1    1    2    0    0 -0.25333314601E+02  0.33060448205E+02  0.12484967722E+03  0.13161387452E+03  0.00000000000E+00 0.  1.
        -15    1    3    3    0    0 -0.32089770754E+02 -0.27581135246E+02 -0.34062098498E+02  0.54349394584E+02  0.17770000000E+01 0.  1.
         15    1    3    3    0    0  0.30636521968E+02  0.15996153512E+02 -0.12551783900E+03  0.13020122519E+03  0.17770000000E+01 0. -1.
</event>
<event>
 7    1  0.1093668E-008  0.2134700E+03  0.7546771E-02  0.1046169E+00
        -11   -1    0    0    0    0  0.00000000000E+00  0.00000000000E+00  0.18250000000E+03  0.18250000000E+03  0.00000000000E+00 0. -1.
         11   -1    0    0    0    0 -0.00000000000E+00 -0.00000000000E+00 -0.18250000000E+03  0.18250000000E+03  0.00000000000E+00 0.  1.
         23    2    1    2    0    0  0.24721820788E+02 -0.27769847787E+02  0.25752989099E+02  0.10327575531E+03  0.92845744750E+02 0.  0.
        -11    1    1    2    0    0 -0.49979802810E+02  0.73086710445E+02 -0.12297024932E+03  0.15152996453E+03  0.00000000000E+00 0.  1.
         11    1    1    2    0    0  0.25257982021E+02 -0.45316862657E+02  0.97217260216E+02  0.11019428016E+03  0.00000000000E+00 0. -1.
        -15    1    3    3    0    0  0.43043413037E+02 -0.51707272182E+02  0.68478150374E+01  0.67649299347E+02  0.17770000000E+01 0. -1.
         15    1    3    3    0    0 -0.18321592249E+02  0.23937424395E+02  0.18905174062E+02  0.35626455963E+02  0.17770000000E+01 0.  1.
</event>
<event>
 7    1  0.1093668E-008  0.1525727E+03  0.7546771E-02  0.1095137E+00
        -11   -1    0    0    0    0  0.00000000000E+00  0.00000000000E+00  0.18250000000E+03  0.18250000000E+03  0.00000000000E+00 0. -1.
         11   -1    0    0    0    0 -0.00000000000E+00 -0.00000000000E+00 -0.18250000000E+03  0.18250000000E+03  0.00000000000E+00 0. -1.
         23    2    1    2    0    0  0.26191715416E+02 -0.72009189483E+02 -0.45620147553E+02  0.12556405554E+03  0.88395728713E+02 0.  0.
        -11    1    1    2    0    0 -0.60947227754E+02  0.14096504408E+03  0.51529251253E+02  0.16199065392E+03  0.00000000000E+00 0. -1.
         11    1    1    2    0    0  0.34755512338E+02 -0.68955854592E+02 -0.59091036992E+01  0.77445290541E+02  0.00000000000E+00 0. -1.
        -15    1    3    3    0    0  0.52449972212E+02 -0.27973008649E+02 -0.41804853700E+01  0.59616465720E+02  0.17770000000E+01 0. -1.
         15    1    3    3    0    0 -0.26258256796E+02 -0.44036180834E+02 -0.41439662183E+02  0.65947589822E+02  0.17770000000E+01 0.  1.
</event>
<event>
 7    1  0.1093668E-008  0.1620042E+03  0.7546771E-02  0.1086051E+00
        -11   -1    0    0    0    0  0.00000000000E+00  0.00000000000E+00  0.18250000000E+03  0.18250000000E+03  0.00000000000E+00 0.  1.
         11   -1    0    0    0    0 -0.00000000000E+00 -0.00000000000E+00 -0.18250000000E+03  0.18250000000E+03  0.00000000000E+00 0. -1.
         23    2    1    2    0    0 -0.88621915098E+02  0.90602157476E+02  0.23033693612E+02  0.15853291086E+03  0.92409620755E+02 0.  0.
        -11    1    1    2    0    0  0.73812454417E+02 -0.11858599470E+03  0.31702234045E+02  0.14323389337E+03  0.00000000000E+00 0.  1.
         11    1    1    2    0    0  0.14809460681E+02  0.27983837225E+02 -0.54735927656E+02  0.63233195775E+02  0.00000000000E+00 0. -1.
        -15    1    3    3    0    0 -0.52266678868E+02  0.63827142514E+02  0.58451139317E+02  0.10112073604E+03  0.17770000000E+01 0.  1.
         15    1    3    3    0    0 -0.36355236230E+02  0.26775014962E+02 -0.35417445705E+02  0.57412174814E+02  0.17770000000E+01 0. -1.
</event>
<event>
 7    1  0.1093668E-008  0.1392327E+03  0.7546771E-02  0.1109300E+00
        -11   -1    0    0    0    0  0.00000000000E+00  0.00000000000E+00  0.18250000000E+03  0.18250000000E+03  0.00000000000E+00 0.  1.
         11   -1    0    0    0    0 -0.00000000000E+00 -0.00000000000E+00 -0.18250000000E+03  0.18250000000E+03  0.00000000000E+00 0. -1.
         23    2    1    2    0    0  0.27024271821E+02  0.67373483330E+02  0.75688392376E+00  0.11737002382E+03  0.92226092264E+02 0.  0.
        -11    1    1    2    0    0  0.40057401766E+02  0.26755237667E+02  0.89057824911E+02  0.10125084867E+03  0.00000000000E+00 0.  1.
         11    1    1    2    0    0 -0.67081673587E+02 -0.94128720997E+02 -0.89814708835E+02  0.14637912751E+03  0.00000000000E+00 0. -1.
        -15    1    3    3    0    0  0.33378720852E+02  0.51105670300E+02  0.40939810552E+02  0.73519754894E+02  0.17770000000E+01 0.  1.
         15    1    3    3    0    0 -0.63544490312E+01  0.16267813029E+02 -0.40182926629E+02  0.43850268924E+02  0.17770000000E+01 0. -1.
</event>
<event>
 7    1  0.1093668E-008  0.1660359E+03  0.7546771E-02  0.1082372E+00
        -11   -1    0    0    0    0  0.00000000000E+00  0.00000000000E+00  0.18250000000E+03  0.18250000000E+03  0.00000000000E+00 0.  1.
         11   -1    0    0    0    0 -0.00000000000E+00 -0.00000000000E+00 -0.18250000000E+03  0.18250000000E+03  0.00000000000E+00 0. -1.
         23    2    1    2    0    0 -0.83401557065E+01 -0.27623090661E+02 -0.11013530880E+03  0.14576768081E+03  0.91026574093E+02 0.  0.
        -11    1    1    2    0    0  0.39049650483E+02  0.38793388070E+02  0.15456831901E+03  0.16407671194E+03  0.00000000000E+00 0.  1.
         11    1    1    2    0    0 -0.30709494776E+02 -0.11170297409E+02 -0.44433010212E+02  0.55155607241E+02  0.00000000000E+00 0. -1.
        -15    1    3    3    0    0  0.89800485314E+01  0.20775448411E+02  0.16031445081E+01  0.22759356969E+02  0.17770000000E+01 0. -1.
         15    1    3    3    0    0 -0.17320204238E+02 -0.48398539072E+02 -0.11173845331E+03  0.12300832385E+03  0.17770000000E+01 0.  1.
</event>
<event>
 7    1  0.1093668E-008  0.1794834E+03  0.7546771E-02  0.1070882E+00
        -11   -1    0    0    0    0  0.00000000000E+00  0.00000000000E+00  0.18250000000E+03  0.18250000000E+03  0.00000000000E+00 0. -1.
         11   -1    0    0    0    0 -0.00000000000E+00 -0.00000000000E+00 -0.18250000000E+03  0.18250000000E+03  0.00000000000E+00 0. -1.
         23    2    1    2    0    0  0.21770160221E+02  0.92413681453E+02 -0.11279214543E+03  0.17361439193E+03  0.91682389902E+02 0.  0.
        -11    1    1    2    0    0 -0.12089062393E+02 -0.12013661109E+03  0.10725999511E+03  0.16150435693E+03  0.00000000000E+00 0. -1.
         11    1    1    2    0    0 -0.96810978276E+01  0.27722929641E+02  0.55321503148E+01  0.29881251148E+02  0.00000000000E+00 0. -1.
        -15    1    3    3    0    0  0.31272690406E+02  0.53700599659E+01 -0.12580668661E+01  0.31805018008E+02  0.17770000000E+01 0.  1.
         15    1    3    3    0    0 -0.95025301855E+01  0.87043621487E+02 -0.11153407856E+03  0.14180937392E+03  0.17770000000E+01 0. -1.
</event>
<event>
 7    1  0.1093668E-008  0.1346656E+03  0.7546771E-02  0.1114556E+00
        -11   -1    0    0    0    0  0.00000000000E+00  0.00000000000E+00  0.18250000000E+03  0.18250000000E+03  0.00000000000E+00 0.  1.
         11   -1    0    0    0    0 -0.00000000000E+00 -0.00000000000E+00 -0.18250000000E+03  0.18250000000E+03  0.00000000000E+00 0.  1.
         23    2    1    2    0    0  0.26014860564E+02 -0.41203949117E+01  0.66618641718E+02  0.11743906213E+03  0.93059869254E+02 0.  0.
        -11    1    1    2    0    0 -0.75144210061E+02 -0.66139954456E+02  0.42531595822E+02  0.10876618282E+03  0.00000000000E+00 0.  1.
         11    1    1    2    0    0  0.49129349496E+02  0.70260349368E+02 -0.10915023754E+03  0.13879475505E+03  0.00000000000E+00 0.  1.
        -15    1    3    3    0    0 -0.74699216500E+01 -0.36442597450E+02  0.59685898346E+02  0.70352162929E+02  0.17770000000E+01 0.  1.
         15    1    3    3    0    0  0.33484782214E+02  0.32322202538E+02  0.69327433714E+01  0.47086899203E+02  0.17770000000E+01 0. -1.
</event>
<event>
 7    1  0.1093668E-008  0.1824971E+03  0.7546771E-02  0.1068457E+00
        -11   -1    0    0    0    0  0.00000000000E+00  0.00000000000E+00  0.18250000000E+03  0.18250000000E+03  0.00000000000E+00 0.  1.
         11   -1    0    0    0    0 -0.00000000000E+00 -0.00000000000E+00 -0.18250000000E+03  0.18250000000E+03  0.00000000000E+00 0. -1.
         23    2    1    2    0    0  0.87262700242E+02  0.56040447505E+02 -0.11898236110E+03  0.18229373531E+03  0.91207966046E+02 0.  0.
        -11    1    1    2    0    0 -0.13196650665E+02 -0.12637278814E+02 -0.14959905105E+02  0.23614638793E+02  0.00000000000E+00 0. -1.
         11    1    1    2    0    0 -0.74066049577E+02 -0.43403168691E+02  0.13394226621E+03  0.15909162589E+03  0.00000000000E+00 0.  1.
        -15    1    3    3    0    0 -0.12341680195E+01  0.41085108316E+02 -0.12454563078E+02  0.42985848445E+02  0.17770000000E+01 0.  1.
         15    1    3    3    0    0  0.88496868261E+02  0.14955339189E+02 -0.10652779803E+03  0.13930788687E+03  0.17770000000E+01 0. -1.
</event>
<event>
 7    1  0.1093668E-008  0.1690587E+03  0.7546771E-02  0.1079688E+00
        -11   -1    0    0    0    0  0.00000000000E+00  0.00000000000E+00  0.18250000000E+03  0.18250000000E+03  0.00000000000E+00 0. -1.
         11   -1    0    0    0    0 -0.00000000000E+00 -0.00000000000E+00 -0.18250000000E+03  0.18250000000E+03  0.00000000000E+00 0.  1.
         23    2    1    2    0    0 -0.13819258009E+03 -0.16811469907E+02  0.52823929717E+02  0.18037079695E+03  0.10180099276E+03 0.  0.
        -11    1    1    2    0    0  0.43739756409E+02 -0.25263274731E+02  0.23892773384E+02  0.55877222201E+02  0.00000000000E+00 0. -1.
         11    1    1    2    0    0  0.94452823685E+02  0.42074744637E+02 -0.76716703102E+02  0.12875198085E+03  0.00000000000E+00 0.  1.
        -15    1    3    3    0    0 -0.13985410979E+03  0.82650614351E+01  0.62454196494E+02  0.15339872116E+03  0.17770000000E+01 0. -1.
         15    1    3    3    0    0  0.16615296938E+01 -0.25076531342E+02 -0.96302667767E+01  0.26972075787E+02  0.17770000000E+01 0.  1.
</event>
<event>
 7    1  0.1093668E-008  0.1305426E+03  0.7546771E-02  0.1119502E+00
        -11   -1    0    0    0    0  0.00000000000E+00  0.00000000000E+00  0.18250000000E+03  0.18250000000E+03  0.00000000000E+00 0. -1.
         11   -1    0    0    0    0 -0.00000000000E+00 -0.00000000000E+00 -0.18250000000E+03  0.18250000000E+03  0.00000000000E+00 0. -1.
         23    2    1    2    0    0 -0.27251458970E+02  0.19866776147E+02 -0.93532347777E+02  0.13490573392E+03  0.91180733455E+02 0.  0.
        -11    1    1    2    0    0 -0.19544371036E+02 -0.10723177282E+03  0.32666930531E+02  0.11378824145E+03  0.00000000000E+00 0. -1.
         11    1    1    2    0    0  0.46795830006E+02  0.87364996672E+02  0.60865417246E+02  0.11630602463E+03  0.00000000000E+00 0. -1.
        -15    1    3    3    0    0  0.13641587660E+02  0.46020538842E+02 -0.54058128539E+02  0.72314741922E+02  0.17770000000E+01 0.  1.
         15    1    3    3    0    0 -0.40893046630E+02 -0.26153762695E+02 -0.39474219238E+02  0.62590991998E+02  0.17770000000E+01 0. -1.
</event>
<event>
 7    1  0.1093668E-008  0.1600805E+03  0.7546771E-02  0.1087849E+00
        -11   -1    0    0    0    0  0.00000000000E+00  0.00000000000E+00  0.18250000000E+03  0.18250000000E+03  0.00000000000E+00 0.  1.
         11   -1    0    0    0    0 -0.00000000000E+00 -0.00000000000E+00 -0.18250000000E+03  0.18250000000E+03  0.00000000000E+00 0.  1.
         23    2    1    2    0    0  0.42301337645E+02  0.98173555182E+02 -0.30389772625E+02  0.14519191204E+03  0.93432879319E+02 0.  0.
        -11    1    1    2    0    0 -0.27740294540E+00  0.12267860121E+02 -0.66113536321E+02  0.67242672681E+02  0.00000000000E+00 0.  1.
         11    1    1    2    0    0 -0.42023934700E+02 -0.11044141530E+03  0.96503308947E+02  0.15256541528E+03  0.00000000000E+00 0.  1.
        -15    1    3    3    0    0  0.29268675531E+02  0.82626928387E+01 -0.43786544825E+02  0.53341791281E+02  0.17770000000E+01 0.  1.
         15    1    3    3    0    0  0.13032662114E+02  0.89910862343E+02  0.13396772200E+02  0.91850120759E+02  0.17770000000E+01 0. -1.
</event>
<event>
 7    1  0.1093668E-008  0.1469916E+03  0.7546771E-02  0.1100861E+00
        -11   -1    0    0    0    0  0.00000000000E+00  0.00000000000E+00  0.18250000000E+03  0.18250000000E+03  0.00000000000E+00 0. -1.
         11   -1    0    0    0    0 -0.00000000000E+00 -0.00000000000E+00 -0.18250000000E+03  0.18250000000E+03  0.00000000000E+00 0. -1.
         23    2    1    2    0    0  0.10030394780E+03  0.49355998548E+02 -0.10306584638E+03  0.17818171326E+03  0.92893798044E+02 0.  0.
        -11    1    1    2    0    0 -0.17236182956E+02 -0.67860509210E+02  0.55345513675E+02  0.89248308651E+02  0.00000000000E+00 0. -1.
         11    1    1    2    0    0 -0.83067764840E+02  0.18504510662E+02  0.47720332704E+02  0.97569978087E+02  0.00000000000E+00 0. -1.
        -15    1    3    3    0    0  0.83432102350E+02  0.39898767551E+02 -0.12061838573E+03  0.15200256596E+03  0.17770000000E+01 0. -1.
         15    1    3    3    0    0  0.16871845446E+02  0.94572309967E+01  0.17552539347E+02  0.26179147301E+02  0.17770000000E+01 0.  1.
</event>
<event>
 7    1  0.1093668E-008  0.1296782E+03  0.7546771E-02  0.1120565E+00
        -11   -1    0    0    0    0  0.00000000000E+00  0.00000000000E+00  0.18250000000E+03  0.18250000000E+03  0.00000000000E+00 0. -1.
         11   -1    0    0    0    0 -0.00000000000E+00 -0.00000000000E+00 -0.18250000000E+03  0.18250000000E+03  0.00000000000E+00 0. -1.
         23    2    1    2    0    0  0.44367487697E+02 -0.52402851874E+02  0.67060288710E+02  0.12722984954E+03  0.83521371180E+02 0.  0.
        -11    1    1    2    0    0 -0.78662950479E+02 -0.51252677785E+02 -0.85569257434E+02  0.12703068360E+03  0.00000000000E+00 0. -1.
         11    1    1    2    0    0  0.34295462782E+02  0.10365552966E+03  0.18508968724E+02  0.11073946686E+03  0.00000000000E+00 0. -1.
        -15    1    3    3    0    0 -0.11857406431E+02  0.15203278187E+02  0.18431834070E+02  0.26732526837E+02  0.17770000000E+01 0.  1.
         15    1    3    3    0    0  0.56224894128E+02 -0.67606130061E+02  0.48628454640E+02  0.10049732271E+03  0.17770000000E+01 0. -1.
</event>
<event>
 7    1  0.1093668E-008  0.1536798E+03  0.7546771E-02  0.1094034E+00
        -11   -1    0    0    0    0  0.00000000000E+00  0.00000000000E+00  0.18250000000E+03  0.18250000000E+03  0.00000000000E+00 0.  1.
         11   -1    0    0    0    0 -0.00000000000E+00 -0.00000000000E+00 -0.18250000000E+03  0.18250000000E+03  0.00000000000E+00 0. -1.
         23    2    1    2    0    0 -0.71443371392E+02  0.33115516734E+02 -0.40064653711E+02  0.12657614094E+03  0.90639672404E+02 0.  0.
        -11    1    1    2    0    0 -0.46855779835E+02  0.55026519460E+02 -0.25965303914E+02  0.76795696202E+02  0.00000000000E+00 0. -1.
         11    1    1    2    0    0  0.11829915123E+03 -0.88142036194E+02  0.66029957625E+02  0.16162816286E+03  0.00000000000E+00 0.  1.
        -15    1    3    3    0    0  0.97650876062E+01  0.30812376687E+02  0.63581811540E+01  0.32990054405E+02  0.17770000000E+01 0.  1.
         15    1    3    3    0    0 -0.81208458998E+02  0.23031400472E+01 -0.46422834865E+02  0.93586086534E+02  0.17770000000E+01 0. -1.
</event>
<event>
 7    1  0.1093668E-008  0.1947711E+03  0.7546771E-02  0.1059086E+00
        -11   -1    0    0    0    0  0.00000000000E+00  0.00000000000E+00  0.18250000000E+03  0.18250000000E+03  0.00000000000E+00 0.  1.
         11   -1    0    0    0    0 -0.00000000000E+00 -0.00000000000E+00 -0.18250000000E+03  0.18250000000E+03  0.00000000000E+00 0.  1.
         23    2    1    2    0    0 -0.23249563465E+02 -0.28327848036E+01  0.16722797002E+03  0.19477113985E+03  0.97067173075E+02 0.  0.
        -11    1    1    2    0    0  0.13003502019E+00 -0.46669416943E+01 -0.64332225105E+02  0.64501414254E+02  0.00000000000E+00 0.  1.
         11    1    1    2    0    0  0.23119528445E+02  0.74997264979E+01 -0.10289574492E+03  0.10572744590E+03  0.00000000000E+00 0.  1.
        -15    1    3    3    0    0 -0.16613291247E+02  0.44899959526E+02  0.10969400904E+03  0.11969937828E+03  0.17770000000E+01 0.  1.
         15    1    3    3    0    0 -0.66362722176E+01 -0.47732744330E+02  0.57533960986E+02  0.75071761574E+02  0.17770000000E+01 0. -1.
</event>
<event>
 7    1  0.1093668E-008  0.1568506E+03  0.7546771E-02  0.1090929E+00
        -11   -1    0    0    0    0  0.00000000000E+00  0.00000000000E+00  0.18250000000E+03  0.18250000000E+03  0.00000000000E+00 0.  1.
         11   -1    0    0    0    0 -0.00000000000E+00 -0.00000000000E+00 -0.18250000000E+03  0.18250000000E+03  0.00000000000E+00 0.  1.
         23    2    1    2    0    0  0.10442745409E+03 -0.15925159357E+02  0.38603184615E+02  0.14332243378E+03  0.88839238481E+02 0.  0.
        -11    1    1    2    0    0  0.34574326928E+02 -0.43714423881E+02 -0.42942988273E+02  0.70359329016E+02  0.00000000000E+00 0.  1.
         11    1    1    2    0    0 -0.13900178102E+03  0.59639583238E+02  0.43398036576E+01  0.15131823720E+03  0.00000000000E+00 0.  1.
        -15    1    3    3    0    0  0.10791315250E+03  0.97104803695E+01  0.43788580285E+02  0.11687659904E+03  0.17770000000E+01 0.  1.
         15    1    3    3    0    0 -0.34856984117E+01 -0.25635639726E+02 -0.51853956695E+01  0.26445834735E+02  0.17770000000E+01 0. -1.
</event>
<event>
 7    1  0.1093668E-008  0.1341177E+03  0.7546771E-02  0.1115202E+00
        -11   -1    0    0    0    0  0.00000000000E+00  0.00000000000E+00  0.18250000000E+03  0.18250000000E+03  0.00000000000E+00 0.  1.
         11   -1    0    0    0    0 -0.00000000000E+00 -0.00000000000E+00 -0.18250000000E+03  0.18250000000E+03  0.00000000000E+00 0. -1.
         23    2    1    2    0    0  0.14512278132E+02  0.20042718723E+02  0.34921826384E+02  0.93371442559E+02  0.82984188477E+02 0.  0.
        -11    1    1    2    0    0 -0.12864593579E+02 -0.11481784410E+03  0.66092304207E+02  0.13310457456E+03  0.00000000000E+00 0.  1.
         11    1    1    2    0    0 -0.16476845530E+01  0.94775125380E+02 -0.10101413059E+03  0.13852398288E+03  0.00000000000E+00 0. -1.
        -15    1    3    3    0    0 -0.24410236623E+02  0.33193614397E+02  0.30686161751E+01  0.41355166823E+02  0.17770000000E+01 0. -1.
         15    1    3    3    0    0  0.38922514754E+02 -0.13150895674E+02  0.31853210209E+02  0.52016275736E+02  0.17770000000E+01 0.  1.
</event>
<event>
 7    1  0.1093668E-008  0.1443708E+03  0.7546771E-02  0.1103646E+00
        -11   -1    0    0    0    0  0.00000000000E+00  0.00000000000E+00  0.18250000000E+03  0.18250000000E+03  0.00000000000E+00 0. -1.
         11   -1    0    0    0    0 -0.00000000000E+00 -0.00000000000E+00 -0.18250000000E+03  0.18250000000E+03  0.00000000000E+00 0. -1.
         23    2    1    2    0    0  0.11402341594E+02 -0.42050311773E+02 -0.90339986367E+02  0.13735193374E+03  0.93840281602E+02 0.  0.
        -11    1    1    2    0    0 -0.87425666066E+02 -0.33152154003E+02  0.10278404108E+02  0.94063584841E+02  0.00000000000E+00 0. -1.
         11    1    1    2    0    0  0.76023324472E+02  0.75202465776E+02  0.80061582259E+02  0.13358448142E+03  0.00000000000E+00 0. -1.
        -15    1    3    3    0    0 -0.18111125843E+02 -0.24153333123E+02 -0.97477648765E+02  0.10206099215E+03  0.17770000000E+01 0. -1.
         15    1    3    3    0    0  0.29513467437E+02 -0.17896978650E+02  0.71376623985E+01  0.35290941592E+02  0.17770000000E+01 0.  1.
</event>
<event>
 7    1  0.1093668E-008  0.1356974E+03  0.7546771E-02  0.1113348E+00
        -11   -1    0    0    0    0  0.00000000000E+00  0.00000000000E+00  0.18250000000E+03  0.18250000000E+03  0.00000000000E+00 0. -1.
         11   -1    0    0    0    0 -0.00000000000E+00 -0.00000000000E+00 -0.18250000000E+03  0.18250000000E+03  0.00000000000E+00 0.  1.
         23    2    1    2    0    0  0.26118166389E+02  0.46336744984E+02  0.94222867160E+02  0.14174618319E+03  0.91568439986E+02 0.  0.
        -11    1    1    2    0    0  0.45800501990E+02 -0.94645533922E+02 -0.15668744273E+02  0.10630603285E+03  0.00000000000E+00 0. -1.
         11    1    1    2    0    0 -0.71918668379E+02  0.48308788938E+02 -0.78554122887E+02  0.11694778396E+03  0.00000000000E+00 0.  1.
        -15    1    3    3    0    0 -0.18297151602E+02 -0.14828092975E+02  0.46998960495E+02  0.52599601849E+02  0.17770000000E+01 0. -1.
         15    1    3    3    0    0  0.44415317991E+02  0.61164837959E+02  0.47223906665E+02  0.89146581340E+02  0.17770000000E+01 0.  1.
</event>
<event>
 7    1  0.1093668E-008  0.1344188E+03  0.7546771E-02  0.1114846E+00
        -11   -1    0    0    0    0  0.00000000000E+00  0.00000000000E+00  0.18250000000E+03  0.18250000000E+03  0.00000000000E+00 0.  1.
         11   -1    0    0    0    0 -0.00000000000E+00 -0.00000000000E+00 -0.18250000000E+03  0.18250000000E+03  0.00000000000E+00 0.  1.
         23    2    1    2    0    0  0.72948138759E+02 -0.16028615272E+02  0.61588412420E+02  0.13251582952E+03  0.90492900674E+02 0.  0.
        -11    1    1    2    0    0  0.17958068801E+01 -0.34920160151E+02 -0.11987786690E+03  0.12487331773E+03  0.00000000000E+00 0.  1.
         11    1    1    2    0    0 -0.74743945639E+02  0.50948775423E+02  0.58289454482E+02  0.10761085275E+03  0.00000000000E+00 0.  1.
        -15    1    3    3    0    0  0.94202282030E+02 -0.12099696305E+02  0.44470158700E+02  0.10488672621E+03  0.17770000000E+01 0.  1.
         15    1    3    3    0    0 -0.21254143271E+02 -0.39289189677E+01  0.17118253720E+02  0.27629103312E+02  0.17770000000E+01 0. -1.
</event>
<event>
 7    1  0.1093668E-008  0.1289571E+03  0.7546771E-02  0.1121458E+00
        -11   -1    0    0    0    0  0.00000000000E+00  0.00000000000E+00  0.18250000000E+03  0.18250000000E+03  0.00000000000E+00 0.  1.
         11   -1    0    0    0    0 -0.00000000000E+00 -0.00000000000E+00 -0.18250000000E+03  0.18250000000E+03  0.00000000000E+00 0.  1.
         23    2    1    2    0    0  0.10850274019E+02 -0.29539201127E+02  0.67180299363E+02  0.11794292122E+03  0.91689951438E+02 0.  0.
        -11    1    1    2    0    0 -0.90005737986E+02  0.94018725156E+02 -0.11236189970E+02  0.13063998437E+03  0.00000000000E+00 0.  1.
         11    1    1    2    0    0  0.79155463967E+02 -0.64479524029E+02 -0.55944109393E+02  0.11641709441E+03  0.00000000000E+00 0.  1.
        -15    1    3    3    0    0  0.43825117304E+02  0.66019281017E+01  0.48021577041E+02  0.65371675456E+02  0.17770000000E+01 0. -1.
         15    1    3    3    0    0 -0.32974843285E+02 -0.36141129229E+02  0.19158722322E+02  0.52571245768E+02  0.17770000000E+01 0.  1.
</event>
<event>
 7    1  0.1093668E-008  0.1270375E+03  0.7546771E-02  0.1123869E+00
        -11   -1    0    0    0    0  0.00000000000E+00  0.00000000000E+00  0.18250000000E+03  0.18250000000E+03  0.00000000000E+00 0. -1.
         11   -1    0    0    0    0 -0.00000000000E+00 -0.00000000000E+00 -0.18250000000E+03  0.18250000000E+03  0.00000000000E+00 0.  1.
         23    2    1    2    0    0  0.52174486966E+02 -0.24966031250E+02 -0.52637130161E+02  0.11939645572E+03  0.90218436917E+02 0.  0.
        -11    1    1    2    0    0  0.18373769742E+02  0.11918946092E+03  0.40754752622E+02  0.12729757605E+03  0.00000000000E+00 0. -1.
         11    1    1    2    0    0 -0.70548256708E+02 -0.94223429666E+02  0.11882377539E+02  0.11830596823E+03  0.00000000000E+00 0.  1.
        -15    1    3    3    0    0 -0.94618225044E+01  0.24425969237E+02 -0.23356296267E+02  0.35140124681E+02  0.17770000000E+01 0. -1.
         15    1    3    3    0    0  0.61636309470E+02 -0.49392000487E+02 -0.29280833893E+02  0.84256331036E+02  0.17770000000E+01 0.  1.
</event>
<event>
 7    1  0.1093668E-008  0.1602198E+03  0.7546771E-02  0.1087718E+00
        -11   -1    0    0    0    0  0.00000000000E+00  0.00000000000E+00  0.18250000000E+03  0.18250000000E+03  0.00000000000E+00 0.  1.
         11   -1    0    0    0    0 -0.00000000000E+00 -0.00000000000E+00 -0.18250000000E+03  0.18250000000E+03  0.00000000000E+00 0.  1.
         23    2    1    2    0    0 -0.60215589432E+02  0.10707378486E+03 -0.64294959163E+02  0.16595140916E+03  0.91188353505E+02 0.  0.
        -11    1    1    2    0    0  0.13011997923E+02 -0.13032194913E+03  0.24896939428E+02  0.13331534086E+03  0.00000000000E+00 0.  1.
         11    1    1    2    0    0  0.47203591510E+02  0.23248164278E+02  0.39398019735E+02  0.65733249978E+02  0.00000000000E+00 0.  1.
        -15    1    3    3    0    0 -0.11123202437E+02  0.10307428344E+03 -0.42482207304E+02  0.11205324273E+03  0.17770000000E+01 0.  1.
         15    1    3    3    0    0 -0.49092386995E+02  0.39995014160E+01 -0.21812751859E+02  0.53898166435E+02  0.17770000000E+01 0. -1.
</event>
<event>
 7    1  0.1093668E-008  0.1547912E+03  0.7546771E-02  0.1092936E+00
        -11   -1    0    0    0    0  0.00000000000E+00  0.00000000000E+00  0.18250000000E+03  0.18250000000E+03  0.00000000000E+00 0.  1.
         11   -1    0    0    0    0 -0.00000000000E+00 -0.00000000000E+00 -0.18250000000E+03  0.18250000000E+03  0.00000000000E+00 0. -1.
         23    2    1    2    0    0 -0.73312813291E+02  0.53277192130E+02  0.21644883604E+02  0.13136004370E+03  0.92594450704E+02 0.  0.
        -11    1    1    2    0    0  0.14167069097E+03 -0.43833491020E+02 -0.53477535701E+02  0.15764455728E+03  0.00000000000E+00 0.  1.
         11    1    1    2    0    0 -0.68357877683E+02 -0.94437011099E+01  0.31832652098E+02  0.75995399016E+02  0.00000000000E+00 0. -1.
        -15    1    3    3    0    0 -0.12591974579E+02  0.23631820004E+02 -0.34346410909E+02  0.43587319393E+02  0.17770000000E+01 0.  1.
         15    1    3    3    0    0 -0.60720838712E+02  0.29645372126E+02  0.55991294513E+02  0.87772724309E+02  0.17770000000E+01 0. -1.
</event>
<event>
 7    1  0.1093668E-008  0.1276466E+03  0.7546771E-02  0.1123099E+00
        -11   -1    0    0    0    0  0.00000000000E+00  0.00000000000E+00  0.18250000000E+03  0.18250000000E+03  0.00000000000E+00 0.  1.
         11   -1    0    0    0    0 -0.00000000000E+00 -0.00000000000E+00 -0.18250000000E+03  0.18250000000E+03  0.00000000000E+00 0. -1.
         23    2    1    2    0    0 -0.27329055078E+02 -0.42483402733E+02 -0.12237088985E+02  0.10446970065E+03  0.90622597884E+02 0.  0.
        -11    1    1    2    0    0 -0.98093245627E+02  0.50772962310E+02 -0.48852364380E+02  0.12077554407E+03  0.00000000000E+00 0. -1.
         11    1    1    2    0    0  0.12542230071E+03 -0.82895595765E+01  0.61089453365E+02  0.13975475528E+03  0.00000000000E+00 0.  1.
        -15    1    3    3    0    0 -0.39740433890E+02 -0.65835441063E+02 -0.12692922731E+02  0.77960729872E+02  0.17770000000E+01 0. -1.
         15    1    3    3    0    0  0.12411378812E+02  0.23352038330E+02  0.45583374587E+00  0.26508970776E+02  0.17770000000E+01 0.  1.
</event>
<event>
 7    1  0.1093668E-008  0.1666677E+03  0.7546771E-02  0.1081806E+00
        -11   -1    0    0    0    0  0.00000000000E+00  0.00000000000E+00  0.18250000000E+03  0.18250000000E+03  0.00000000000E+00 0. -1.
         11   -1    0    0    0    0 -0.00000000000E+00 -0.00000000000E+00 -0.18250000000E+03  0.18250000000E+03  0.00000000000E+00 0.  1.
         23    2    1    2    0    0 -0.15504852774E+03 -0.20665758955E+02 -0.49458874753E+01  0.18176853075E+03  0.92456570446E+02 0.  0.
        -11    1    1    2    0    0  0.40229706911E+02 -0.36911036300E+02  0.45262603237E+01  0.54784495538E+02  0.00000000000E+00 0. -1.
         11    1    1    2    0    0  0.11481882083E+03  0.57576795255E+02  0.41962715158E+00  0.12844697371E+03  0.00000000000E+00 0.  1.
        -15    1    3    3    0    0 -0.71759340237E+02 -0.39886575269E+01 -0.48077269492E+02  0.86486379684E+02  0.17770000000E+01 0.  1.
         15    1    3    3    0    0 -0.83289187507E+02 -0.16677101428E+02  0.43131382017E+02  0.95282151064E+02  0.17770000000E+01 0. -1.
</event>
<event>
 7    1  0.1093668E-008  0.1361096E+03  0.7546771E-02  0.1112869E+00
        -11   -1    0    0    0    0  0.00000000000E+00  0.00000000000E+00  0.18250000000E+03  0.18250000000E+03  0.00000000000E+00 0.  1.
         11   -1    0    0    0    0 -0.00000000000E+00 -0.00000000000E+00 -0.18250000000E+03  0.18250000000E+03  0.00000000000E+00 0.  1.
         23    2    1    2    0    0 -0.18906559444E+02 -0.77534861846E+02  0.91667469682E+02  0.15075406828E+03  0.89189412567E+02 0.  0.
        -11    1    1    2    0    0 -0.42980624599E+02  0.10060231341E+03 -0.10942232346E+02  0.10994494987E+03  0.00000000000E+00 0.  1.
         11    1    1    2    0    0  0.61887184043E+02 -0.23067451563E+02 -0.80725237337E+02  0.10430098184E+03  0.00000000000E+00 0.  1.
        -15    1    3    3    0    0 -0.21994685561E+02 -0.42891054535E+02  0.10332435469E+03  0.11402845590E+03  0.17770000000E+01 0.  1.
         15    1    3    3    0    0  0.30881261172E+01 -0.34643807311E+02 -0.11656885012E+02  0.36725612386E+02  0.17770000000E+01 0. -1.
</event>
<event>
 7    1  0.1093668E-008  0.1294828E+03  0.7546771E-02  0.1120806E+00
        -11   -1    0    0    0    0  0.00000000000E+00  0.00000000000E+00  0.18250000000E+03  0.18250000000E+03  0.00000000000E+00 0.  1.
         11   -1    0    0    0    0 -0.00000000000E+00 -0.00000000000E+00 -0.18250000000E+03  0.18250000000E+03  0.00000000000E+00 0. -1.
         23    2    1    2    0    0  0.33865725978E+02  0.15259774685E+02  0.92067341520E+00  0.10338237795E+03  0.96474454187E+02 0.  0.
        -11    1    1    2    0    0 -0.16258627459E+02 -0.78036940135E+02  0.10826599412E+03  0.13444564878E+03  0.00000000000E+00 0.  1.
         11    1    1    2    0    0 -0.17607098518E+02  0.62777165451E+02 -0.10918666753E+03  0.12717197328E+03  0.00000000000E+00 0. -1.
        -15    1    3    3    0    0 -0.31361579393E+02  0.16868968389E+02  0.11054112811E+02  0.37329102528E+02  0.17770000000E+01 0.  1.
         15    1    3    3    0    0  0.65227305371E+02 -0.16091937040E+01 -0.10133439395E+02  0.66053275417E+02  0.17770000000E+01 0. -1.
</event>
<event>
 7    1  0.1093668E-008  0.1485582E+03  0.7546771E-02  0.1099226E+00
        -11   -1    0    0    0    0  0.00000000000E+00  0.00000000000E+00  0.18250000000E+03  0.18250000000E+03  0.00000000000E+00 0.  1.
         11   -1    0    0    0    0 -0.00000000000E+00 -0.00000000000E+00 -0.18250000000E+03  0.18250000000E+03  0.00000000000E+00 0.  1.
         23    2    1    2    0    0 -0.36933268581E+02 -0.72677785466E+01  0.82102232581E+02  0.12945057676E+03  0.92735043509E+02 0.  0.
        -11    1    1    2    0    0  0.18880162931E+02 -0.58173955443E+02 -0.13583648060E+03  0.14897053100E+03  0.00000000000E+00 0.  1.
         11    1    1    2    0    0  0.18053105649E+02  0.65441733990E+02  0.53734248023E+02  0.86578892241E+02  0.00000000000E+00 0.  1.
        -15    1    3    3    0    0 -0.35567676845E+01  0.12871944180E+02 -0.17727160625E+02  0.22265387851E+02  0.17770000000E+01 0. -1.
         15    1    3    3    0    0 -0.33376500896E+02 -0.20139722726E+02  0.99829393207E+02  0.10718518891E+03  0.17770000000E+01 0.  1.
</event>
<event>
 7    1  0.1093668E-008  0.1897444E+03  0.7546771E-02  0.1062830E+00
        -11   -1    0    0    0    0  0.00000000000E+00  0.00000000000E+00  0.18250000000E+03  0.18250000000E+03  0.00000000000E+00 0.  1.
         11   -1    0    0    0    0 -0.00000000000E+00 -0.00000000000E+00 -0.18250000000E+03  0.18250000000E+03  0.00000000000E+00 0. -1.
         23    2    1    2    0    0  0.57949943267E+02  0.56111487480E+02 -0.14533186571E+03  0.18919269404E+03  0.90364978469E+02 0.  0.
        -11    1    1    2    0    0 -0.71238635953E+01 -0.49224218185E+00 -0.42582013440E+01  0.83140852520E+01  0.00000000000E+00 0. -1.
         11    1    1    2    0    0 -0.50826079672E+02 -0.55619245298E+02  0.14959006706E+03  0.16749322071E+03  0.00000000000E+00 0.  1.
        -15    1    3    3    0    0 -0.17990237243E+02 -0.90408260233E+01 -0.16712209479E+02  0.26226720076E+02  0.17770000000E+01 0.  1.
         15    1    3    3    0    0  0.75940180510E+02  0.65152313503E+02 -0.12861965623E+03  0.16296597396E+03  0.17770000000E+01 0. -1.
</event>
<event>
 7    1  0.1093668E-008  0.1565588E+03  0.7546771E-02  0.1091212E+00
        -11   -1    0    0    0    0  0.00000000000E+00  0.00000000000E+00  0.18250000000E+03  0.18250000000E+03  0.00000000000E+00 0.  1.
         11   -1    0    0    0    0 -0.00000000000E+00 -0.00000000000E+00 -0.18250000000E+03  0.18250000000E+03  0.00000000000E+00 0. -1.
         23    2    1    2    0    0  0.88042815786E+02  0.41230366233E+02 -0.54914560758E+02  0.14423403564E+03  0.91303710446E+02 0.  0.
        -11    1    1    2    0    0  0.18442548301E+02 -0.50471691850E+02 -0.48246896544E+02  0.72216911400E+02  0.00000000000E+00 0. -1.
         11    1    1    2    0    0 -0.10648536409E+03  0.92413256175E+01  0.10316145730E+03  0.14854905296E+03  0.00000000000E+00 0.  1.
        -15    1    3    3    0    0  0.77238649912E+02  0.32888646701E+02  0.36758224879E+01  0.84048447469E+02  0.17770000000E+01 0.  1.
         15    1    3    3    0    0  0.10804165874E+02  0.83417195320E+01 -0.58590383246E+02  0.60185588166E+02  0.17770000000E+01 0. -1.
</event>
<event>
 7    1  0.1093668E-008  0.2119289E+03  0.7546771E-02  0.1047178E+00
        -11   -1    0    0    0    0  0.00000000000E+00  0.00000000000E+00  0.18250000000E+03  0.18250000000E+03  0.00000000000E+00 0. -1.
         11   -1    0    0    0    0 -0.00000000000E+00 -0.00000000000E+00 -0.18250000000E+03  0.18250000000E+03  0.00000000000E+00 0.  1.
         23    2    1    2    0    0  0.24634139122E+02  0.20567459537E+02 -0.53563809144E+02  0.10774222588E+03  0.87803441767E+02 0.  0.
        -11    1    1    2    0    0  0.12108458390E+01 -0.40493093003E+02 -0.95988066923E+02  0.10418668687E+03  0.00000000000E+00 0.  1.
         11    1    1    2    0    0 -0.25844984961E+02  0.19925633466E+02  0.14955187607E+03  0.15307108725E+03  0.00000000000E+00 0. -1.
        -15    1    3    3    0    0  0.42865972743E+02  0.96145858055E+01  0.60887184427E+01  0.44386508093E+02  0.17770000000E+01 0.  1.
         15    1    3    3    0    0 -0.18231833621E+02  0.10952873732E+02 -0.59652527587E+02  0.63355717790E+02  0.17770000000E+01 0. -1.
</event>
<event>
 7    1  0.1093668E-008  0.1286012E+03  0.7546771E-02  0.1121902E+00
        -11   -1    0    0    0    0  0.00000000000E+00  0.00000000000E+00  0.18250000000E+03  0.18250000000E+03  0.00000000000E+00 0. -1.
         11   -1    0    0    0    0 -0.00000000000E+00 -0.00000000000E+00 -0.18250000000E+03  0.18250000000E+03  0.00000000000E+00 0. -1.
         23    2    1    2    0    0  0.25250438348E+02  0.27063258180E+02 -0.31145571321E+02  0.10328802842E+03  0.91259879587E+02 0.  0.
        -11    1    1    2    0    0 -0.11505625637E+02  0.11570925454E+03  0.96809829633E+01  0.11668218561E+03  0.00000000000E+00 0. -1.
         11    1    1    2    0    0 -0.13744812711E+02 -0.14277251272E+03  0.21464588358E+02  0.14502978597E+03  0.00000000000E+00 0. -1.
        -15    1    3    3    0    0  0.33441921635E+02  0.46705070632E+01  0.25139684023E+02  0.42134750511E+02  0.17770000000E+01 0. -1.
         15    1    3    3    0    0 -0.81914832872E+01  0.22392751117E+02 -0.56285255344E+02  0.61153277910E+02  0.17770000000E+01 0.  1.
</event>
<event>
 7    1  0.1093668E-008  0.2093177E+03  0.7546771E-02  0.1048910E+00
        -11   -1    0    0    0    0  0.00000000000E+00  0.00000000000E+00  0.18250000000E+03  0.18250000000E+03  0.00000000000E+00 0. -1.
         11   -1    0    0    0    0 -0.00000000000E+00 -0.00000000000E+00 -0.18250000000E+03  0.18250000000E+03  0.00000000000E+00 0. -1.
         23    2    1    2    0    0 -0.19439384691E+02 -0.18909345180E+02 -0.64996267832E+02  0.11603550426E+03  0.92218601189E+02 0.  0.
        -11    1    1    2    0    0 -0.65628629692E+02 -0.45068145506E+02 -0.48613964803E+02  0.93282218823E+02  0.00000000000E+00 0. -1.
         11    1    1    2    0    0  0.85068014384E+02  0.63977490685E+02  0.11361023264E+03  0.15568227691E+03  0.00000000000E+00 0. -1.
        -15    1    3    3    0    0 -0.14271575240E+02  0.33497083387E+02 -0.48798766421E+02  0.60911491432E+02  0.17770000000E+01 0. -1.
         15    1    3    3    0    0 -0.51678094509E+01 -0.52406428567E+02 -0.16197501411E+02  0.55124012832E+02  0.17770000000E+01 0.  1.
</event>
<event>
 7    1  0.1093668E-008  0.1554230E+03  0.7546771E-02  0.1092317E+00
        -11   -1    0    0    0    0  0.00000000000E+00  0.00000000000E+00  0.18250000000E+03  0.18250000000E+03  0.00000000000E+00 0. -1.
         11   -1    0    0    0    0 -0.00000000000E+00 -0.00000000000E+00 -0.18250000000E+03  0.18250000000E+03  0.00000000000E+00 0. -1.
         23    2    1    2    0    0  0.45843236847E+02  0.22100717246E+02  0.85429686833E+02  0.13473592179E+03  0.90914757665E+02 0.  0.
        -11    1    1    2    0    0 -0.10477933639E+03 -0.65607052030E+02 -0.95640186468E+02  0.15630111925E+03  0.00000000000E+00 0. -1.
         11    1    1    2    0    0  0.58936099542E+02  0.43506334784E+02  0.10210499635E+02  0.73962958962E+02  0.00000000000E+00 0. -1.
        -15    1    3    3    0    0  0.49585702379E+02  0.51683595284E+02  0.73290782836E+02  0.10249210935E+03  0.17770000000E+01 0. -1.
         15    1    3    3    0    0 -0.37424655319E+01 -0.29582878039E+02  0.12138903996E+02  0.32243812438E+02  0.17770000000E+01 0.  1.
</event>
<event>
 7    1  0.1093668E-008  0.1839421E+03  0.7546771E-02  0.1067313E+00
        -11   -1    0    0    0    0  0.00000000000E+00  0.00000000000E+00  0.18250000000E+03  0.18250000000E+03  0.00000000000E+00 0.  1.
         11   -1    0    0    0    0 -0.00000000000E+00 -0.00000000000E+00 -0.18250000000E+03  0.18250000000E+03  0.00000000000E+00 0. -1.
         23    2    1    2    0    0 -0.31406544538E+01 -0.44824350077E+02 -0.15370557112E+03  0.18394209595E+03  0.90499756891E+02 0.  0.
        -11    1    1    2    0    0 -0.14289813519E+02 -0.21237025248E+02  0.58684077085E+02  0.64023674645E+02  0.00000000000E+00 0. -1.
         11    1    1    2    0    0  0.17430467973E+02  0.66061375325E+02  0.95021494038E+02  0.11703422941E+03  0.00000000000E+00 0.  1.
        -15    1    3    3    0    0  0.27340642970E+02 -0.40852001872E+02 -0.14319383499E+03  0.15140683249E+03  0.17770000000E+01 0. -1.
         15    1    3    3    0    0 -0.30481297424E+02 -0.39723482057E+01 -0.10511736128E+02  0.32535263459E+02  0.17770000000E+01 0.  1.
</event>
<event>
 7    1  0.1093668E-008  0.1564190E+03  0.7546771E-02  0.1091347E+00
        -11   -1    0    0    0    0  0.00000000000E+00  0.00000000000E+00  0.18250000000E+03  0.18250000000E+03  0.00000000000E+00 0.  1.
         11   -1    0    0    0    0 -0.00000000000E+00 -0.00000000000E+00 -0.18250000000E+03  0.18250000000E+03  0.00000000000E+00 0. -1.
         23    2    1    2    0    0  0.17637822472E+02  0.11644462433E+03  0.58488375788E+02  0.16040603844E+03  0.91862744066E+02 0.  0.
        -11    1    1    2    0    0 -0.29774114033E+02 -0.43194532013E+02  0.50433793484E+02  0.72772474106E+02  0.00000000000E+00 0.  1.
         11    1    1    2    0    0  0.12136291561E+02 -0.73250092316E+02 -0.10892216927E+03  0.13182148746E+03  0.00000000000E+00 0. -1.
        -15    1    3    3    0    0  0.47117460399E+02  0.36528534259E+02  0.51018643633E+01  0.59862973853E+02  0.17770000000E+01 0.  1.
         15    1    3    3    0    0 -0.29479637927E+02  0.79916090070E+02  0.53386511424E+02  0.10054306458E+03  0.17770000000E+01 0. -1.
</event>
<event>
 7    1  0.1093668E-008  0.1393609E+03  0.7546771E-02  0.1109155E+00
        -11   -1    0    0    0    0  0.00000000000E+00  0.00000000000E+00  0.18250000000E+03  0.18250000000E+03  0.00000000000E+00 0.  1.
         11   -1    0    0    0    0 -0.00000000000E+00 -0.00000000000E+00 -0.18250000000E+03  0.18250000000E+03  0.00000000000E+00 0. -1.
         23    2    1    2    0    0  0.13363319862E+02  0.44209512836E+02 -0.91451792215E+02  0.13734567762E+03  0.91473195633E+02 0.  0.
        -11    1    1    2    0    0 -0.10352764070E+03 -0.33113491620E+01  0.73562333496E+02  0.12704469423E+03  0.00000000000E+00 0.  1.
         11    1    1    2    0    0  0.90164320835E+02 -0.40898163674E+02  0.17889458719E+02  0.10060962815E+03  0.00000000000E+00 0. -1.
        -15    1    3    3    0    0  0.77557526989E+01  0.35141824737E+02 -0.11007006463E+03  0.11581742703E+03  0.17770000000E+01 0.  1.
         15    1    3    3    0    0  0.56075671635E+01  0.90676880999E+01  0.18618272417E+02  0.21528250597E+02  0.17770000000E+01 0. -1.
</event>
<event>
 7    1  0.1093668E-008  0.1549993E+03  0.7546771E-02  0.1092732E+00
        -11   -1    0    0    0    0  0.00000000000E+00  0.00000000000E+00  0.18250000000E+03  0.18250000000E+03  0.00000000000E+00 0. -1.
         11   -1    0    0    0    0 -0.00000000000E+00 -0.00000000000E+00 -0.18250000000E+03  0.18250000000E+03  0.00000000000E+00 0.  1.
         23    2    1    2    0    0  0.31155445565E+02  0.66285934027E+02 -0.97714357781E+02  0.15437237788E+03  0.94436478633E+02 0.  0.
        -11    1    1    2    0    0  0.44018424655E+02 -0.81487275885E+02  0.96738655143E+02  0.13392596925E+03  0.00000000000E+00 0. -1.
         11    1    1    2    0    0 -0.75173870219E+02  0.15201341858E+02  0.97570263730E+00  0.76701652874E+02  0.00000000000E+00 0.  1.
        -15    1    3    3    0    0  0.52771209707E+02  0.28859542965E+02 -0.93123310176E+02  0.11087282093E+03  0.17770000000E+01 0.  1.
         15    1    3    3    0    0 -0.21615764142E+02  0.37426391062E+02 -0.45910476046E+01  0.43499556946E+02  0.17770000000E+01 0. -1.
</event>
<event>
 7    1  0.1093668E-008  0.1647471E+03  0.7546771E-02  0.1083536E+00
        -11   -1    0    0    0    0  0.00000000000E+00  0.00000000000E+00  0.18250000000E+03  0.18250000000E+03  0.00000000000E+00 0. -1.
         11   -1    0    0    0    0 -0.00000000000E+00 -0.00000000000E+00 -0.18250000000E+03  0.18250000000E+03  0.00000000000E+00 0.  1.
         23    2    1    2    0    0 -0.91307839624E+02 -0.34136890998E+02 -0.63937445362E+02  0.14912078535E+03  0.92986895846E+02 0.  0.
        -11    1    1    2    0    0  0.23594872595E+01 -0.11886051194E+02 -0.57333766519E+02  0.58600393995E+02  0.00000000000E+00 0.  1.
         11    1    1    2    0    0  0.88948352365E+02  0.46022942192E+02  0.12127121188E+03  0.15727882066E+03  0.00000000000E+00 0. -1.
        -15    1    3    3    0    0 -0.22271691452E+02 -0.40031869019E+02  0.10895290876E+02  0.47121586025E+02  0.17770000000E+01 0. -1.
         15    1    3    3    0    0 -0.69036148172E+02  0.58949780208E+01 -0.74832736238E+02  0.10199919932E+03  0.17770000000E+01 0.  1.
</event>
<event>
 7    1  0.1093668E-008  0.1555660E+03  0.7546771E-02  0.1092177E+00
        -11   -1    0    0    0    0  0.00000000000E+00  0.00000000000E+00  0.18250000000E+03  0.18250000000E+03  0.00000000000E+00 0.  1.
         11   -1    0    0    0    0 -0.00000000000E+00 -0.00000000000E+00 -0.18250000000E+03  0.18250000000E+03  0.00000000000E+00 0.  1.
         23    2    1    2    0    0  0.95596012652E+02 -0.20625321196E+02  0.12832108190E+02  0.13312828433E+03  0.89411831319E+02 0.  0.
        -11    1    1    2    0    0  0.52185026358E+02 -0.31216282289E+02 -0.40189594371E+02  0.72889894715E+02  0.00000000000E+00 0.  1.
         11    1    1    2    0    0 -0.14778103901E+03  0.51841603485E+02  0.27357486180E+02  0.15898182095E+03  0.00000000000E+00 0.  1.
        -15    1    3    3    0    0  0.21310788453E+02 -0.29339163715E+02 -0.29843439154E+02  0.46997072478E+02  0.17770000000E+01 0. -1.
         15    1    3    3    0    0  0.74285224198E+02  0.87138425192E+01  0.42675547344E+02  0.86131211856E+02  0.17770000000E+01 0.  1.
</event>
<event>
 7    1  0.1093668E-008  0.1492102E+03  0.7546771E-02  0.1098553E+00
        -11   -1    0    0    0    0  0.00000000000E+00  0.00000000000E+00  0.18250000000E+03  0.18250000000E+03  0.00000000000E+00 0.  1.
         11   -1    0    0    0    0 -0.00000000000E+00 -0.00000000000E+00 -0.18250000000E+03  0.18250000000E+03  0.00000000000E+00 0. -1.
         23    2    1    2    0    0 -0.10928091906E+03 -0.88061288249E+02  0.22715053972E+02  0.16945589293E+03  0.92207462893E+02 0.  0.
        -11    1    1    2    0    0  0.83095120587E+02 -0.12705012888E+02  0.13855245826E+02  0.85194977873E+02  0.00000000000E+00 0.  1.
         11    1    1    2    0    0  0.26185798476E+02  0.10076630114E+03 -0.36570299798E+02  0.11034912919E+03  0.00000000000E+00 0. -1.
        -15    1    3    3    0    0 -0.37608548059E+02  0.10334358907E+02  0.27273746234E+02  0.47625799980E+02  0.17770000000E+01 0.  1.
         15    1    3    3    0    0 -0.71672371004E+02 -0.98395647156E+02 -0.45586922612E+01  0.12183009295E+03  0.17770000000E+01 0. -1.
</event>
<event>
 7    1  0.1093668E-008  0.1531490E+03  0.7546771E-02  0.1094562E+00
        -11   -1    0    0    0    0  0.00000000000E+00  0.00000000000E+00  0.18250000000E+03  0.18250000000E+03  0.00000000000E+00 0.  1.
         11   -1    0    0    0    0 -0.00000000000E+00 -0.00000000000E+00 -0.18250000000E+03  0.18250000000E+03  0.00000000000E+00 0.  1.
         23    2    1    2    0    0 -0.27131772141E+02  0.49791216865E+02  0.70536930939E+02  0.12770895506E+03  0.90104496231E+02 0.  0.
        -11    1    1    2    0    0 -0.61124145869E+02  0.19955746850E+02  0.43088848851E+02  0.77401821270E+02  0.00000000000E+00 0.  1.
         11    1    1    2    0    0  0.88255918010E+02 -0.69746963715E+02 -0.11362577979E+03  0.15988922367E+03  0.00000000000E+00 0.  1.
        -15    1    3    3    0    0 -0.43112307417E+02 -0.37749361259E+01  0.54326232678E+02  0.69479626363E+02  0.17770000000E+01 0.  1.
         15    1    3    3    0    0  0.15980535276E+02  0.53566152991E+02  0.16210698261E+02  0.58229328702E+02  0.17770000000E+01 0. -1.
</event>
<event>
 7    1  0.1093668E-008  0.1702348E+03  0.7546771E-02  0.1078660E+00
        -11   -1    0    0    0    0  0.00000000000E+00  0.00000000000E+00  0.18250000000E+03  0.18250000000E+03  0.00000000000E+00 0.  1.
         11   -1    0    0    0    0 -0.00000000000E+00 -0.00000000000E+00 -0.18250000000E+03  0.18250000000E+03  0.00000000000E+00 0. -1.
         23    2    1    2    0    0  0.66221177981E+02 -0.90697222809E+02  0.92331392613E+02  0.17093742434E+03  0.89907098386E+02 0.  0.
        -11    1    1    2    0    0 -0.89772781867E+01  0.33887327142E+02  0.30937371765E+02  0.46755357299E+02  0.00000000000E+00 0.  1.
         11    1    1    2    0    0 -0.57243899794E+02  0.56809895668E+02 -0.12326876438E+03  0.14730721836E+03  0.00000000000E+00 0. -1.
        -15    1    3    3    0    0  0.33737202526E+02 -0.47443602010E+02 -0.61469260599E+01  0.58566514622E+02  0.17770000000E+01 0.  1.
         15    1    3    3    0    0  0.32483975454E+02 -0.43253620799E+02  0.98478318673E+02  0.11237090972E+03  0.17770000000E+01 0. -1.
</event>
<event>
 7    1  0.1093668E-008  0.1258901E+03  0.7546771E-02  0.1125332E+00
        -11   -1    0    0    0    0  0.00000000000E+00  0.00000000000E+00  0.18250000000E+03  0.18250000000E+03  0.00000000000E+00 0.  1.
         11   -1    0    0    0    0 -0.00000000000E+00 -0.00000000000E+00 -0.18250000000E+03  0.18250000000E+03  0.00000000000E+00 0. -1.
         23    2    1    2    0    0 -0.13690471826E+02 -0.43226932820E+02 -0.23479776870E+02  0.10809433985E+03  0.95273761583E+02 0.  0.
        -11    1    1    2    0    0  0.11151840129E+03  0.14647101647E+02  0.82173377325E+02  0.13929592727E+03  0.00000000000E+00 0.  1.
         11    1    1    2    0    0 -0.97827929466E+02  0.28579831173E+02 -0.58693600454E+02  0.11760973288E+03  0.00000000000E+00 0. -1.
        -15    1    3    3    0    0 -0.10251198653E+02  0.51488185231E+01 -0.50999693965E+02  0.52304148206E+02  0.17770000000E+01 0.  1.
         15    1    3    3    0    0 -0.34392731725E+01 -0.48375751343E+02  0.27519917094E+02  0.55790191645E+02  0.17770000000E+01 0. -1.
</event>
<event>
 7    1  0.1093668E-008  0.1439829E+03  0.7546771E-02  0.1104064E+00
        -11   -1    0    0    0    0  0.00000000000E+00  0.00000000000E+00  0.18250000000E+03  0.18250000000E+03  0.00000000000E+00 0. -1.
         11   -1    0    0    0    0 -0.00000000000E+00 -0.00000000000E+00 -0.18250000000E+03  0.18250000000E+03  0.00000000000E+00 0. -1.
         23    2    1    2    0    0  0.73580034681E+02  0.40897332412E+02  0.87538733199E+02  0.15178432416E+03  0.91043055467E+02 0.  0.
        -11    1    1    2    0    0  0.42207172688E+02 -0.91862677261E+01 -0.82422770493E+02  0.93055607229E+02  0.00000000000E+00 0. -1.
         11    1    1    2    0    0 -0.11578720737E+03 -0.31711064685E+02 -0.51159627064E+01  0.12016006861E+03  0.00000000000E+00 0. -1.
        -15    1    3    3    0    0  0.43436804620E+01 -0.22149032606E+02  0.41839464694E+02  0.47572531362E+02  0.17770000000E+01 0.  1.
         15    1    3    3    0    0  0.69236354219E+02  0.63046365017E+02  0.45699268505E+02  0.10421179280E+03  0.17770000000E+01 0. -1.
</event>
<event>
 7    1  0.1093668E-008  0.1678577E+03  0.7546771E-02  0.1080747E+00
        -11   -1    0    0    0    0  0.00000000000E+00  0.00000000000E+00  0.18250000000E+03  0.18250000000E+03  0.00000000000E+00 0.  1.
         11   -1    0    0    0    0 -0.00000000000E+00 -0.00000000000E+00 -0.18250000000E+03  0.18250000000E+03  0.00000000000E+00 0. -1.
         23    2    1    2    0    0  0.73474748186E+01 -0.52785021029E+02  0.14904641735E+03  0.18194993966E+03  0.89725705271E+02 0.  0.
        -11    1    1    2    0    0  0.39106311226E+00 -0.26377422717E+02 -0.43754673267E+02  0.51092003212E+02  0.00000000000E+00 0.  1.
         11    1    1    2    0    0 -0.77385379309E+01  0.79162443745E+02 -0.10529174408E+03  0.13195805713E+03  0.00000000000E+00 0. -1.
        -15    1    3    3    0    0  0.40943600420E+01 -0.33767920309E+01 -0.12114368370E+02  0.13344742732E+02  0.17770000000E+01 0. -1.
         15    1    3    3    0    0  0.32531147766E+01 -0.49408228998E+02  0.16116078572E+03  0.16860519693E+03  0.17770000000E+01 0.  1.
</event>
<event>
 7    1  0.1093668E-008  0.1482330E+03  0.7546771E-02  0.1099564E+00
        -11   -1    0    0    0    0  0.00000000000E+00  0.00000000000E+00  0.18250000000E+03  0.18250000000E+03  0.00000000000E+00 0.  1.
         11   -1    0    0    0    0 -0.00000000000E+00 -0.00000000000E+00 -0.18250000000E+03  0.18250000000E+03  0.00000000000E+00 0. -1.
         23    2    1    2    0    0  0.71063904916E+02  0.60755024711E+02  0.11161305654E+02  0.13131917653E+03  0.91536330330E+02 0.  0.
        -11    1    1    2    0    0  0.74976594880E+02 -0.42522550340E+02 -0.63238227093E+01  0.86427124220E+02  0.00000000000E+00 0.  1.
         11    1    1    2    0    0 -0.14604049980E+03 -0.18232474372E+02 -0.48374829449E+01  0.14725369925E+03  0.00000000000E+00 0. -1.
        -15    1    3    3    0    0 -0.95111196780E+01 -0.16249568590E+02  0.55500207351E+01  0.19709650835E+02  0.17770000000E+01 0. -1.
         15    1    3    3    0    0  0.80575024594E+02  0.77004593301E+02  0.56112849191E+01  0.11160952569E+03  0.17770000000E+01 0.  1.
</event>
<event>
 7    1  0.1093668E-008  0.1217993E+03  0.7546771E-02  0.1130693E+00
        -11   -1    0    0    0    0  0.00000000000E+00  0.00000000000E+00  0.18250000000E+03  0.18250000000E+03  0.00000000000E+00 0.  1.
         11   -1    0    0    0    0 -0.00000000000E+00 -0.00000000000E+00 -0.18250000000E+03  0.18250000000E+03  0.00000000000E+00 0. -1.
         23    2    1    2    0    0 -0.17067475103E+02  0.59611450894E+02  0.12638536589E+02  0.11331590870E+03  0.93999674329E+02 0.  0.
        -11    1    1    2    0    0  0.35912022752E+02 -0.69121594519E+02  0.10579874108E+03  0.13138052299E+03  0.00000000000E+00 0.  1.
         11    1    1    2    0    0 -0.18844547649E+02  0.95101436248E+01 -0.11843727766E+03  0.12030356831E+03  0.00000000000E+00 0. -1.
        -15    1    3    3    0    0 -0.12986427842E+02 -0.22087651200E+02  0.17932095225E+02  0.31324581590E+02  0.17770000000E+01 0.  1.
         15    1    3    3    0    0 -0.40810472616E+01  0.81699102094E+02 -0.52935586362E+01  0.81991327113E+02  0.17770000000E+01 0. -1.
</event>
<event>
 7    1  0.1093668E-008  0.1446125E+03  0.7546771E-02  0.1103386E+00
        -11   -1    0    0    0    0  0.00000000000E+00  0.00000000000E+00  0.18250000000E+03  0.18250000000E+03  0.00000000000E+00 0.  1.
         11   -1    0    0    0    0 -0.00000000000E+00 -0.00000000000E+00 -0.18250000000E+03  0.18250000000E+03  0.00000000000E+00 0. -1.
         23    2    1    2    0    0 -0.97401889412E+02 -0.63401242940E+02  0.77766667781E+02  0.16671682304E+03  0.90774439127E+02 0.  0.
        -11    1    1    2    0    0  0.82589368654E+02 -0.29281398463E+02 -0.27668695952E+02  0.91891027017E+02  0.00000000000E+00 0.  1.
         11    1    1    2    0    0  0.14812520758E+02  0.92682641402E+02 -0.50097971829E+02  0.10639214995E+03  0.00000000000E+00 0. -1.
        -15    1    3    3    0    0  0.14517838338E+02  0.14780962177E+01 -0.18314275163E+01  0.14814325978E+02  0.17770000000E+01 0.  1.
         15    1    3    3    0    0 -0.11191972775E+03 -0.64879339158E+02  0.79598095298E+02  0.15190249706E+03  0.17770000000E+01 0. -1.
</event>
<event>
 7    1  0.1093668E-008  0.1667575E+03  0.7546771E-02  0.1081726E+00
        -11   -1    0    0    0    0  0.00000000000E+00  0.00000000000E+00  0.18250000000E+03  0.18250000000E+03  0.00000000000E+00 0. -1.
         11   -1    0    0    0    0 -0.00000000000E+00 -0.00000000000E+00 -0.18250000000E+03  0.18250000000E+03  0.00000000000E+00 0.  1.
         23    2    1    2    0    0  0.60428675238E+02 -0.27546959850E+01  0.10173356393E+03  0.14999785769E+03  0.92143508397E+02 0.  0.
        -11    1    1    2    0    0  0.33154264956E+01 -0.36434271370E+02  0.40321172784E+02  0.54444881833E+02  0.00000000000E+00 0. -1.
         11    1    1    2    0    0 -0.63744101734E+02  0.39188967355E+02 -0.14205473672E+03  0.16055726048E+03  0.00000000000E+00 0.  1.
        -15    1    3    3    0    0 -0.73252564634E+01  0.10009555296E+01  0.77573574890E+02  0.77945356144E+02  0.17770000000E+01 0. -1.
         15    1    3    3    0    0  0.67753931701E+02 -0.37556515147E+01  0.24159989044E+02  0.72052501545E+02  0.17770000000E+01 0.  1.
</event>
<event>
 7    1  0.1093668E-008  0.1515229E+03  0.7546771E-02  0.1096193E+00
        -11   -1    0    0    0    0  0.00000000000E+00  0.00000000000E+00  0.18250000000E+03  0.18250000000E+03  0.00000000000E+00 0. -1.
         11   -1    0    0    0    0 -0.00000000000E+00 -0.00000000000E+00 -0.18250000000E+03  0.18250000000E+03  0.00000000000E+00 0.  1.
         23    2    1    2    0    0 -0.11360064794E+02 -0.43076537869E+02  0.69810207798E+02  0.12277048425E+03  0.90633809928E+02 0.  0.
        -11    1    1    2    0    0 -0.16262286158E+02 -0.57443788185E+02  0.53914172843E+02  0.80442456362E+02  0.00000000000E+00 0. -1.
         11    1    1    2    0    0  0.27622350952E+02  0.10052032605E+03 -0.12372438064E+03  0.16178705939E+03  0.00000000000E+00 0.  1.
        -15    1    3    3    0    0  0.39561354670E+02 -0.12316635185E+02  0.28405760456E+02  0.50267735593E+02  0.17770000000E+01 0.  1.
         15    1    3    3    0    0 -0.50921419464E+02 -0.30759902685E+02  0.41404447342E+02  0.72502748652E+02  0.17770000000E+01 0. -1.
</event>
<event>
 7    1  0.1093668E-008  0.1246273E+03  0.7546771E-02  0.1126963E+00
        -11   -1    0    0    0    0  0.00000000000E+00  0.00000000000E+00  0.18250000000E+03  0.18250000000E+03  0.00000000000E+00 0.  1.
         11   -1    0    0    0    0 -0.00000000000E+00 -0.00000000000E+00 -0.18250000000E+03  0.18250000000E+03  0.00000000000E+00 0.  1.
         23    2    1    2    0    0  0.48648105541E+02  0.22846703461E+02  0.27198473977E+02  0.10857018132E+03  0.90327832114E+02 0.  0.
        -11    1    1    2    0    0  0.56164924377E+01  0.10942051381E+03  0.57533499219E+01  0.10971551788E+03  0.00000000000E+00 0.  1.
         11    1    1    2    0    0 -0.54264597979E+02 -0.13226721727E+03 -0.32951823899E+02  0.14671430079E+03  0.00000000000E+00 0.  1.
        -15    1    3    3    0    0  0.27922563512E+01  0.14591055696E+01  0.52046377740E+02  0.52171916290E+02  0.17770000000E+01 0.  1.
         15    1    3    3    0    0  0.45855849190E+02  0.21387597892E+02 -0.24847903762E+02  0.56398265035E+02  0.17770000000E+01 0. -1.
</event>
<event>
 7    1  0.1093668E-008  0.1303099E+03  0.7546771E-02  0.1119787E+00
        -11   -1    0    0    0    0  0.00000000000E+00  0.00000000000E+00  0.18250000000E+03  0.18250000000E+03  0.00000000000E+00 0.  1.
         11   -1    0    0    0    0 -0.00000000000E+00 -0.00000000000E+00 -0.18250000000E+03  0.18250000000E+03  0.00000000000E+00 0.  1.
         23    2    1    2    0    0  0.14276877714E+02 -0.25059795884E+02 -0.48395056129E+02  0.98360594235E+02  0.80628173943E+02 0.  0.
        -11    1    1    2    0    0 -0.13345628860E+03  0.45876117595E+02  0.22278108349E+02  0.14286886730E+03  0.00000000000E+00 0.  1.
         11    1    1    2    0    0  0.11917941089E+03 -0.20816321711E+02  0.26116947780E+02  0.12377053846E+03  0.00000000000E+00 0.  1.
        -15    1    3    3    0    0 -0.11327283696E+01 -0.27480633447E+02 -0.67924477972E+02  0.73303210878E+02  0.17770000000E+01 0.  1.
         15    1    3    3    0    0  0.15409606083E+02  0.24208375623E+01  0.19529421843E+02  0.25057383357E+02  0.17770000000E+01 0. -1.
</event>
<event>
 7    1  0.1093668E-008  0.1332603E+03  0.7546771E-02  0.1116220E+00
        -11   -1    0    0    0    0  0.00000000000E+00  0.00000000000E+00  0.18250000000E+03  0.18250000000E+03  0.00000000000E+00 0.  1.
         11   -1    0    0    0    0 -0.00000000000E+00 -0.00000000000E+00 -0.18250000000E+03  0.18250000000E+03  0.00000000000E+00 0. -1.
         23    2    1    2    0    0  0.18057320987E+02 -0.27511202341E+02  0.12067950661E+02  0.96184539907E+02  0.89570626818E+02 0.  0.
        -11    1    1    2    0    0 -0.92863030901E+02  0.73912437889E+02  0.78671485896E+02  0.14239309560E+03  0.00000000000E+00 0.  1.
         11    1    1    2    0    0  0.74805709914E+02 -0.46401235549E+02 -0.90739436557E+02  0.12642236449E+03  0.00000000000E+00 0. -1.
        -15    1    3    3    0    0  0.51628535914E+01 -0.57982094335E+02  0.20929897152E+02  0.61885350807E+02  0.17770000000E+01 0.  1.
         15    1    3    3    0    0  0.12894467396E+02  0.30470891994E+02 -0.88619464905E+01  0.34299189100E+02  0.17770000000E+01 0. -1.
</event>
<event>
 7    1  0.1093668E-008  0.1928146E+03  0.7546771E-02  0.1060528E+00
        -11   -1    0    0    0    0  0.00000000000E+00  0.00000000000E+00  0.18250000000E+03  0.18250000000E+03  0.00000000000E+00 0. -1.
         11   -1    0    0    0    0 -0.00000000000E+00 -0.00000000000E+00 -0.18250000000E+03  0.18250000000E+03  0.00000000000E+00 0.  1.
         23    2    1    2    0    0 -0.48215114306E+02 -0.11790651379E+03 -0.11222510300E+03  0.19281461584E+03  0.91413123218E+02 0.  0.
        -11    1    1    2    0    0  0.48463220088E+02  0.10001448402E+03  0.10498075723E+03  0.15288080359E+03  0.00000000000E+00 0. -1.
         11    1    1    2    0    0 -0.24810578171E+00  0.17892029762E+02  0.72443457708E+01  0.19304580573E+02  0.00000000000E+00 0.  1.
        -15    1    3    3    0    0 -0.23561003470E+02 -0.12669442332E+03 -0.10308513312E+03  0.16503423943E+03  0.17770000000E+01 0.  1.
         15    1    3    3    0    0 -0.24654110837E+02  0.87879095332E+01 -0.91399698889E+01  0.27780376413E+02  0.17770000000E+01 0. -1.
</event>
<event>
 7    1  0.1093668E-008  0.1325680E+03  0.7546771E-02  0.1117047E+00
        -11   -1    0    0    0    0  0.00000000000E+00  0.00000000000E+00  0.18250000000E+03  0.18250000000E+03  0.00000000000E+00 0.  1.
         11   -1    0    0    0    0 -0.00000000000E+00 -0.00000000000E+00 -0.18250000000E+03  0.18250000000E+03  0.00000000000E+00 0.  1.
         23    2    1    2    0    0 -0.97907100069E+02  0.51494435268E+01  0.38471020320E+02  0.13935085945E+03  0.91248701982E+02 0.  0.
        -11    1    1    2    0    0  0.42288566447E+02  0.95296214193E+02 -0.37596805146E+02  0.11082964878E+03  0.00000000000E+00 0.  1.
         11    1    1    2    0    0  0.55618533622E+02 -0.10044565772E+03 -0.87421517344E+00  0.11481949177E+03  0.00000000000E+00 0.  1.
        -15    1    3    3    0    0  0.16389181237E+02  0.97573448945E+01  0.19275197995E+01  0.19253158249E+02  0.17770000000E+01 0. -1.
         15    1    3    3    0    0 -0.11429628131E+03 -0.46079013676E+01  0.36543500520E+02  0.12009770120E+03  0.17770000000E+01 0.  1.
</event>
<event>
 7    1  0.1093668E-008  0.2203613E+03  0.7546771E-02  0.1041767E+00
        -11   -1    0    0    0    0  0.00000000000E+00  0.00000000000E+00  0.18250000000E+03  0.18250000000E+03  0.00000000000E+00 0.  1.
         11   -1    0    0    0    0 -0.00000000000E+00 -0.00000000000E+00 -0.18250000000E+03  0.18250000000E+03  0.00000000000E+00 0. -1.
         23    2    1    2    0    0 -0.14567276060E+02 -0.48658457969E+02  0.45975191055E+01  0.11015417545E+03  0.97636848189E+02 0.  0.
        -11    1    1    2    0    0  0.11285767486E+03  0.85811806435E+02  0.28632608282E+02  0.14463867793E+03  0.00000000000E+00 0.  1.
         11    1    1    2    0    0 -0.98290398797E+02 -0.37153348466E+02 -0.33230127387E+02  0.11020714661E+03  0.00000000000E+00 0. -1.
        -15    1    3    3    0    0  0.28618816353E+02 -0.54164039882E+02  0.19163686278E+02  0.64212027429E+02  0.17770000000E+01 0.  1.
         15    1    3    3    0    0 -0.43186092413E+02  0.55055819131E+01 -0.14566167173E+02  0.45942148025E+02  0.17770000000E+01 0. -1.
</event>
<event>
 7    1  0.1093668E-008  0.2159025E+03  0.7546771E-02  0.1044595E+00
        -11   -1    0    0    0    0  0.00000000000E+00  0.00000000000E+00  0.18250000000E+03  0.18250000000E+03  0.00000000000E+00 0. -1.
         11   -1    0    0    0    0 -0.00000000000E+00 -0.00000000000E+00 -0.18250000000E+03  0.18250000000E+03  0.00000000000E+00 0. -1.
         23    2    1    2    0    0  0.19654164799E+02 -0.28169169170E+02  0.23020360516E+02  0.10653303720E+03  0.98181274846E+02 0.  0.
        -11    1    1    2    0    0 -0.93902081050E+02  0.10146472885E+03 -0.55833363241E+02  0.14909747307E+03  0.00000000000E+00 0. -1.
         11    1    1    2    0    0  0.74247916250E+02 -0.73295559679E+02  0.32813002725E+02  0.10936948973E+03  0.00000000000E+00 0. -1.
        -15    1    3    3    0    0 -0.23416410895E+02 -0.44043122713E+02  0.32589266759E+02  0.59609923624E+02  0.17770000000E+01 0.  1.
         15    1    3    3    0    0  0.43070575694E+02  0.15873953543E+02 -0.95689062438E+01  0.46923113573E+02  0.17770000000E+01 0. -1.
</event>
<event>
 7    1  0.1093668E-008  0.1709486E+03  0.7546771E-02  0.1078041E+00
        -11   -1    0    0    0    0  0.00000000000E+00  0.00000000000E+00  0.18250000000E+03  0.18250000000E+03  0.00000000000E+00 0. -1.
         11   -1    0    0    0    0 -0.00000000000E+00 -0.00000000000E+00 -0.18250000000E+03  0.18250000000E+03  0.00000000000E+00 0.  1.
         23    2    1    2    0    0  0.11475961170E+03  0.88043031691E+02  0.57709370022E+02  0.18102238192E+03  0.92289693158E+02 0.  0.
        -11    1    1    2    0    0 -0.93047474317E+02 -0.56053702558E+02 -0.83920793734E+02  0.13726816699E+03  0.00000000000E+00 0.  1.
         11    1    1    2    0    0 -0.21712137379E+02 -0.31989329133E+02  0.26211423711E+02  0.46709451088E+02  0.00000000000E+00 0. -1.
        -15    1    3    3    0    0  0.12498072230E+03  0.80933381018E+02  0.69003289495E+02  0.16411887399E+03  0.17770000000E+01 0. -1.
         15    1    3    3    0    0 -0.10221110599E+02  0.71096506726E+01 -0.11293919472E+02  0.16903507938E+02  0.17770000000E+01 0.  1.
</event>
<event>
 7    1  0.1093668E-008  0.1254480E+03  0.7546771E-02  0.1125900E+00
        -11   -1    0    0    0    0  0.00000000000E+00  0.00000000000E+00  0.18250000000E+03  0.18250000000E+03  0.00000000000E+00 0. -1.
         11   -1    0    0    0    0 -0.00000000000E+00 -0.00000000000E+00 -0.18250000000E+03  0.18250000000E+03  0.00000000000E+00 0.  1.
         23    2    1    2    0    0  0.32477323374E+02 -0.25809273160E+02  0.39132878892E+02  0.10770434038E+03  0.91367103552E+02 0.  0.
        -11    1    1    2    0    0  0.61893480887E+02  0.91303512386E+02 -0.79029219108E+02  0.13569359537E+03  0.00000000000E+00 0.  1.
         11    1    1    2    0    0 -0.94370804262E+02 -0.65494239226E+02  0.39896340216E+02  0.12160206426E+03  0.00000000000E+00 0. -1.
        -15    1    3    3    0    0 -0.25592359344E+02 -0.21740525446E+02 -0.58292934253E+01  0.34128546619E+02  0.17770000000E+01 0. -1.
         15    1    3    3    0    0  0.58069682718E+02 -0.40687477137E+01  0.44962172317E+02  0.73575793760E+02  0.17770000000E+01 0.  1.
</event>
<event>
 7    1  0.1093668E-008  0.1815060E+03  0.7546771E-02  0.1069249E+00
        -11   -1    0    0    0    0  0.00000000000E+00  0.00000000000E+00  0.18250000000E+03  0.18250000000E+03  0.00000000000E+00 0. -1.
         11   -1    0    0    0    0 -0.00000000000E+00 -0.00000000000E+00 -0.18250000000E+03  0.18250000000E+03  0.00000000000E+00 0.  1.
         23    2    1    2    0    0  0.22440858865E+02  0.72834558879E+02  0.13750581206E+03  0.18176193382E+03  0.91219992993E+02 0.  0.
        -11    1    1    2    0    0 -0.36278262541E+02 -0.52349382982E+02 -0.14418934795E+03  0.15762975066E+03  0.00000000000E+00 0.  1.
         11    1    1    2    0    0  0.13837403676E+02 -0.20485175897E+02  0.66835358921E+01  0.25608315525E+02  0.00000000000E+00 0. -1.
        -15    1    3    3    0    0  0.23292554948E+02 -0.25975625552E+01 -0.15464604511E+01  0.23555035899E+02  0.17770000000E+01 0. -1.
         15    1    3    3    0    0 -0.85169608344E+00  0.75432121434E+02  0.13905227251E+03  0.15820689792E+03  0.17770000000E+01 0.  1.
</event>
<event>
 7    1  0.1093668E-008  0.1757172E+03  0.7546771E-02  0.1073986E+00
        -11   -1    0    0    0    0  0.00000000000E+00  0.00000000000E+00  0.18250000000E+03  0.18250000000E+03  0.00000000000E+00 0.  1.
         11   -1    0    0    0    0 -0.00000000000E+00 -0.00000000000E+00 -0.18250000000E+03  0.18250000000E+03  0.00000000000E+00 0. -1.
         23    2    1    2    0    0 -0.11382470373E+03  0.20144621196E+02 -0.10491385634E+03  0.18278096004E+03  0.95079404509E+02 0.  0.
        -11    1    1    2    0    0  0.13967704893E+01  0.25877312720E+02  0.29346039778E+02  0.39150687504E+02  0.00000000000E+00 0. -1.
         11    1    1    2    0    0  0.11242793324E+03 -0.46021933916E+02  0.75567816559E+02  0.14306835245E+03  0.00000000000E+00 0.  1.
        -15    1    3    3    0    0 -0.20075763152E+02 -0.34524762953E+02 -0.18532761597E+02  0.44063777693E+02  0.17770000000E+01 0.  1.
         15    1    3    3    0    0 -0.93748940575E+02  0.54669384150E+02 -0.86381094741E+02  0.13871718235E+03  0.17770000000E+01 0. -1.
</event>
<event>
 7    1  0.1093668E-008  0.1796509E+03  0.7546771E-02  0.1070746E+00
        -11   -1    0    0    0    0  0.00000000000E+00  0.00000000000E+00  0.18250000000E+03  0.18250000000E+03  0.00000000000E+00 0.  1.
         11   -1    0    0    0    0 -0.00000000000E+00 -0.00000000000E+00 -0.18250000000E+03  0.18250000000E+03  0.00000000000E+00 0.  1.
         23    2    1    2    0    0  0.66605858595E+02  0.32196908219E+02 -0.13082576186E+03  0.17629572303E+03  0.92151075388E+02 0.  0.
        -11    1    1    2    0    0 -0.18744405038E+02  0.20207209409E+02 -0.11343152015E+02  0.29805219844E+02  0.00000000000E+00 0.  1.
         11    1    1    2    0    0 -0.47861453557E+02 -0.52404117628E+02  0.14216891388E+03  0.15889905712E+03  0.00000000000E+00 0.  1.
        -15    1    3    3    0    0 -0.14770749654E+02  0.26088662557E+02 -0.64397746478E+02  0.71056462337E+02  0.17770000000E+01 0. -1.
         15    1    3    3    0    0  0.81376608249E+02  0.61082456618E+01 -0.66428015385E+02  0.10523926070E+03  0.17770000000E+01 0.  1.
</event>
<event>
 7    1  0.1093668E-008  0.1824281E+03  0.7546771E-02  0.1068512E+00
        -11   -1    0    0    0    0  0.00000000000E+00  0.00000000000E+00  0.18250000000E+03  0.18250000000E+03  0.00000000000E+00 0.  1.
         11   -1    0    0    0    0 -0.00000000000E+00 -0.00000000000E+00 -0.18250000000E+03  0.18250000000E+03  0.00000000000E+00 0. -1.
         23    2    1    2    0    0 -0.86632016965E+02  0.85049249441E+02 -0.10440819962E+03  0.18441579751E+03  0.91485698499E+02 0.  0.
        -11    1    1    2    0    0  0.21278782005E+02  0.10855739474E+02 -0.85397170858E+00  0.23903198758E+02  0.00000000000E+00 0. -1.
         11    1    1    2    0    0  0.65353234960E+02 -0.95904988915E+02  0.10526217133E+03  0.15668100373E+03  0.00000000000E+00 0.  1.
        -15    1    3    3    0    0 -0.12530045188E+02 -0.19176901775E+02 -0.82825388855E+01  0.24423631456E+02  0.17770000000E+01 0.  1.
         15    1    3    3    0    0 -0.74101971777E+02  0.10422615122E+03 -0.96125660732E+02  0.15999216605E+03  0.17770000000E+01 0. -1.
</event>
<event>
 7    1  0.1093668E-008  0.1714304E+03  0.7546771E-02  0.1077624E+00
        -11   -1    0    0    0    0  0.00000000000E+00  0.00000000000E+00  0.18250000000E+03  0.18250000000E+03  0.00000000000E+00 0.  1.
         11   -1    0    0    0    0 -0.00000000000E+00 -0.00000000000E+00 -0.18250000000E+03  0.18250000000E+03  0.00000000000E+00 0.  1.
         23    2    1    2    0    0  0.32812485620E+02 -0.63979799063E+02 -0.13015965923E+03  0.17468782625E+03  0.91674564900E+02 0.  0.
        -11    1    1    2    0    0 -0.10088083165E+02  0.26447903668E+02  0.14205915041E+03  0.14485186656E+03  0.00000000000E+00 0.  1.
         11    1    1    2    0    0 -0.22724402455E+02  0.37531895395E+02 -0.11899491189E+02  0.45460307186E+02  0.00000000000E+00 0.  1.
        -15    1    3    3    0    0  0.23269934334E+02 -0.31288981539E+02 -0.13474003072E+03  0.14028016188E+03  0.17770000000E+01 0.  1.
         15    1    3    3    0    0  0.95425512859E+01 -0.32690817524E+02  0.45803714937E+01  0.34407664371E+02  0.17770000000E+01 0. -1.
</event>
<event>
 7    1  0.1093668E-008  0.1715885E+03  0.7546771E-02  0.1077488E+00
        -11   -1    0    0    0    0  0.00000000000E+00  0.00000000000E+00  0.18250000000E+03  0.18250000000E+03  0.00000000000E+00 0.  1.
         11   -1    0    0    0    0 -0.00000000000E+00 -0.00000000000E+00 -0.18250000000E+03  0.18250000000E+03  0.00000000000E+00 0.  1.
         23    2    1    2    0    0 -0.72633916602E+02  0.50915159953E+01  0.11412855153E+03  0.16278911764E+03  0.90406643409E+02 0.  0.
        -11    1    1    2    0    0  0.56572952328E+02  0.21906946606E+02 -0.14560646326E+03  0.15773920054E+03  0.00000000000E+00 0.  1.
         11    1    1    2    0    0  0.16060964274E+02 -0.26998462602E+02  0.31477911730E+02  0.44471681812E+02  0.00000000000E+00 0.  1.
        -15    1    3    3    0    0  0.64626746050E+01 -0.17403175803E+02  0.63550677315E+02  0.66230529269E+02  0.17770000000E+01 0.  1.
         15    1    3    3    0    0 -0.79096591207E+02  0.22494691799E+02  0.50577874217E+02  0.96558588375E+02  0.17770000000E+01 0. -1.
</event>
<event>
 7    1  0.1093668E-008  0.1770247E+03  0.7546771E-02  0.1072899E+00
        -11   -1    0    0    0    0  0.00000000000E+00  0.00000000000E+00  0.18250000000E+03  0.18250000000E+03  0.00000000000E+00 0. -1.
         11   -1    0    0    0    0 -0.00000000000E+00 -0.00000000000E+00 -0.18250000000E+03  0.18250000000E+03  0.00000000000E+00 0.  1.
         23    2    1    2    0    0  0.26574872521E+02 -0.13772607819E+03 -0.72521261446E+02  0.18272164590E+03  0.91941122763E+02 0.  0.
        -11    1    1    2    0    0  0.29026205341E+02  0.15789100274E+02  0.11089281187E+02  0.34853815303E+02  0.00000000000E+00 0. -1.
         11    1    1    2    0    0 -0.55601077862E+02  0.12193697791E+03  0.61431980259E+02  0.14742453880E+03  0.00000000000E+00 0.  1.
        -15    1    3    3    0    0  0.20669942830E+02 -0.12639566749E+02 -0.49840821778E+02  0.55446103819E+02  0.17770000000E+01 0.  1.
         15    1    3    3    0    0  0.59049296912E+01 -0.12508651144E+03 -0.22680439668E+02  0.12727554208E+03  0.17770000000E+01 0. -1.
</event>
<event>
 7    1  0.1093668E-008  0.1665288E+03  0.7546771E-02  0.1081930E+00
        -11   -1    0    0    0    0  0.00000000000E+00  0.00000000000E+00  0.18250000000E+03  0.18250000000E+03  0.00000000000E+00 0. -1.
         11   -1    0    0    0    0 -0.00000000000E+00 -0.00000000000E+00 -0.18250000000E+03  0.18250000000E+03  0.00000000000E+00 0. -1.
         23    2    1    2    0    0 -0.81718353701E+02  0.10829985428E+03 -0.12574040716E+02  0.16414816205E+03  0.91541055466E+02 0.  0.
        -11    1    1    2    0    0 -0.23353672581E+02 -0.12690348778E+02  0.47616897821E+02  0.54532631820E+02  0.00000000000E+00 0. -1.
         11    1    1    2    0    0  0.10507202628E+03 -0.95609505500E+02 -0.35042857105E+02  0.14631920613E+03  0.00000000000E+00 0. -1.
        -15    1    3    3    0    0 -0.11572438709E+02 -0.13451507037E+02  0.11995805253E+02  0.21492357989E+02  0.17770000000E+01 0.  1.
         15    1    3    3    0    0 -0.70145914992E+02  0.12175136131E+03 -0.24569845969E+02  0.14265580406E+03  0.17770000000E+01 0. -1.
</event>
<event>
 7    1  0.1093668E-008  0.1366960E+03  0.7546771E-02  0.1112191E+00
        -11   -1    0    0    0    0  0.00000000000E+00  0.00000000000E+00  0.18250000000E+03  0.18250000000E+03  0.00000000000E+00 0. -1.
         11   -1    0    0    0    0 -0.00000000000E+00 -0.00000000000E+00 -0.18250000000E+03  0.18250000000E+03  0.00000000000E+00 0.  1.
         23    2    1    2    0    0  0.72710719327E+02 -0.78730541529E+02 -0.54120032288E+02  0.14836039633E+03  0.87157801896E+02 0.  0.
        -11    1    1    2    0    0  0.91195584978E+01  0.44431579610E+02  0.10498634618E+03  0.11436548648E+03  0.00000000000E+00 0. -1.
         11    1    1    2    0    0 -0.81830277825E+02  0.34298961919E+02 -0.50866313889E+02  0.10227411719E+03  0.00000000000E+00 0.  1.
        -15    1    3    3    0    0 -0.14397377779E+02 -0.80947249785E+01 -0.28997585673E+02  0.33418958142E+02  0.17770000000E+01 0.  1.
         15    1    3    3    0    0  0.87108097106E+02 -0.70635816550E+02 -0.25122446615E+02  0.11494143819E+03  0.17770000000E+01 0. -1.
</event>
<event>
 7    1  0.1093668E-008  0.1468338E+03  0.7546771E-02  0.1101027E+00
        -11   -1    0    0    0    0  0.00000000000E+00  0.00000000000E+00  0.18250000000E+03  0.18250000000E+03  0.00000000000E+00 0.  1.
         11   -1    0    0    0    0 -0.00000000000E+00 -0.00000000000E+00 -0.18250000000E+03  0.18250000000E+03  0.00000000000E+00 0. -1.
         23    2    1    2    0    0 -0.63207663131E+02 -0.34210609684E+02 -0.15251426546E+02  0.11695644057E+03  0.90997958686E+02 0.  0.
        -11    1    1    2    0    0 -0.81929747794E+02 -0.31960360348E+02  0.91382953180E+01  0.88416382240E+02  0.00000000000E+00 0.  1.
         11    1    1    2    0    0  0.14513741093E+03  0.66170970032E+02  0.61131312280E+01  0.15962717719E+03  0.00000000000E+00 0. -1.
        -15    1    3    3    0    0 -0.25971274459E+02  0.30760325321E+02  0.99182029664E+00  0.40309380390E+02  0.17770000000E+01 0.  1.
         15    1    3    3    0    0 -0.37236388672E+02 -0.64970935005E+02 -0.16243246843E+02  0.76647060177E+02  0.17770000000E+01 0. -1.
</event>
<event>
 7    1  0.1093668E-008  0.1232762E+03  0.7546771E-02  0.1128731E+00
        -11   -1    0    0    0    0  0.00000000000E+00  0.00000000000E+00  0.18250000000E+03  0.18250000000E+03  0.00000000000E+00 0.  1.
         11   -1    0    0    0    0 -0.00000000000E+00 -0.00000000000E+00 -0.18250000000E+03  0.18250000000E+03  0.00000000000E+00 0. -1.
         23    2    1    2    0    0  0.36185710397E+02 -0.21169234868E+02  0.29935511863E+02  0.11312344370E+03  0.10071363613E+03 0.  0.
        -11    1    1    2    0    0  0.12005221241E+02  0.13022372699E+03 -0.12327964242E+02  0.13135571214E+03  0.00000000000E+00 0.  1.
         11    1    1    2    0    0 -0.48190931639E+02 -0.10905449212E+03 -0.17607547621E+02  0.12052084416E+03  0.00000000000E+00 0. -1.
        -15    1    3    3    0    0 -0.13015460650E+01 -0.10831546977E+02  0.61822893407E+02  0.62803218949E+02  0.17770000000E+01 0.  1.
         15    1    3    3    0    0  0.37487256462E+02 -0.10337687891E+02 -0.31887381545E+02  0.50320224749E+02  0.17770000000E+01 0. -1.
</event>
<event>
 7    1  0.1093668E-008  0.1287929E+03  0.7546771E-02  0.1121663E+00
        -11   -1    0    0    0    0  0.00000000000E+00  0.00000000000E+00  0.18250000000E+03  0.18250000000E+03  0.00000000000E+00 0.  1.
         11   -1    0    0    0    0 -0.00000000000E+00 -0.00000000000E+00 -0.18250000000E+03  0.18250000000E+03  0.00000000000E+00 0. -1.
         23    2    1    2    0    0 -0.46451290762E+01 -0.21344825128E+02 -0.42116731625E+02  0.10308122235E+03  0.91513608467E+02 0.  0.
        -11    1    1    2    0    0  0.85920604577E+01 -0.11567142277E+03  0.46030433616E+02  0.12478983279E+03  0.00000000000E+00 0.  1.
         11    1    1    2    0    0 -0.39469313816E+01  0.13701624790E+03 -0.39137019911E+01  0.13712894486E+03  0.00000000000E+00 0. -1.
        -15    1    3    3    0    0 -0.39226901734E+02  0.47352544306E+01  0.40422231024E+01  0.39757637641E+02  0.17770000000E+01 0.  1.
         15    1    3    3    0    0  0.34581772658E+02 -0.26080079559E+02 -0.46158954727E+02  0.63323584709E+02  0.17770000000E+01 0. -1.
</event>
<event>
 7    1  0.1093668E-008  0.1328417E+03  0.7546771E-02  0.1116719E+00
        -11   -1    0    0    0    0  0.00000000000E+00  0.00000000000E+00  0.18250000000E+03  0.18250000000E+03  0.00000000000E+00 0. -1.
         11   -1    0    0    0    0 -0.00000000000E+00 -0.00000000000E+00 -0.18250000000E+03  0.18250000000E+03  0.00000000000E+00 0.  1.
         23    2    1    2    0    0 -0.21662325559E+02 -0.75328043264E+02  0.58548971040E+02  0.13436174460E+03  0.92095200480E+02 0.  0.
        -11    1    1    2    0    0  0.10061407750E+03  0.39956215174E+02  0.24192065528E+02  0.11092766903E+03  0.00000000000E+00 0. -1.
         11    1    1    2    0    0 -0.78951751940E+02  0.35371828090E+02 -0.82741036568E+02  0.11971058637E+03  0.00000000000E+00 0.  1.
        -15    1    3    3    0    0 -0.11935715420E+02 -0.92723586459E+02  0.64373581505E+02  0.11352198251E+03  0.17770000000E+01 0. -1.
         15    1    3    3    0    0 -0.97266101391E+01  0.17395543195E+02 -0.58246104658E+01  0.20839762089E+02  0.17770000000E+01 0.  1.
</event>
<event>
 7    1  0.1093668E-008  0.1565609E+03  0.7546771E-02  0.1091210E+00
        -11   -1    0    0    0    0  0.00000000000E+00  0.00000000000E+00  0.18250000000E+03  0.18250000000E+03  0.00000000000E+00 0. -1.
         11   -1    0    0    0    0 -0.00000000000E+00 -0.00000000000E+00 -0.18250000000E+03  0.18250000000E+03  0.00000000000E+00 0. -1.
         23    2    1    2    0    0  0.12410941475E+03 -0.17188937193E+02 -0.36416453737E+02  0.15904740894E+03  0.90946763518E+02 0.  0.
        -11    1    1    2    0    0 -0.11407398557E+03 -0.53559401116E+02  0.45364177400E+02  0.13393801635E+03  0.00000000000E+00 0. -1.
         11    1    1    2    0    0 -0.10035429179E+02  0.70748338309E+02 -0.89477236634E+01  0.72014574713E+02  0.00000000000E+00 0. -1.
        -15    1    3    3    0    0  0.68164457769E+02 -0.27771409639E+02  0.22606746730E+02  0.77018616081E+02  0.17770000000E+01 0.  1.
         15    1    3    3    0    0  0.55944956985E+02  0.10582472446E+02 -0.59023200466E+02  0.82028792856E+02  0.17770000000E+01 0. -1.
</event>
<event>
 7    1  0.1093668E-008  0.1746825E+03  0.7546771E-02  0.1074854E+00
        -11   -1    0    0    0    0  0.00000000000E+00  0.00000000000E+00  0.18250000000E+03  0.18250000000E+03  0.00000000000E+00 0.  1.
         11   -1    0    0    0    0 -0.00000000000E+00 -0.00000000000E+00 -0.18250000000E+03  0.18250000000E+03  0.00000000000E+00 0. -1.
         23    2    1    2    0    0  0.24404292148E+02 -0.13104766574E+03 -0.71978398209E+02  0.17262732275E+03  0.82766192242E+02 0.  0.
        -11    1    1    2    0    0  0.34331120362E+02  0.45168874173E+01 -0.15899881673E+01  0.34663470104E+02  0.00000000000E+00 0. -1.
         11    1    1    2    0    0 -0.58735412511E+02  0.12653077832E+03  0.73568386377E+02  0.15770920715E+03  0.00000000000E+00 0.  1.
        -15    1    3    3    0    0 -0.78609187641E+01 -0.11494127065E+03 -0.73186119380E+02  0.13650148549E+03  0.17770000000E+01 0. -1.
         15    1    3    3    0    0  0.32265210913E+02 -0.16106395096E+02  0.12077211703E+01  0.36125837259E+02  0.17770000000E+01 0.  1.
</event>
<event>
 7    1  0.1093668E-008  0.1709045E+03  0.7546771E-02  0.1078079E+00
        -11   -1    0    0    0    0  0.00000000000E+00  0.00000000000E+00  0.18250000000E+03  0.18250000000E+03  0.00000000000E+00 0.  1.
         11   -1    0    0    0    0 -0.00000000000E+00 -0.00000000000E+00 -0.18250000000E+03  0.18250000000E+03  0.00000000000E+00 0.  1.
         23    2    1    2    0    0 -0.24426085472E+02  0.74829288124E+02 -0.14167909061E+03  0.18464556598E+03  0.88458828314E+02 0.  0.
        -11    1    1    2    0    0 -0.12453066868E+02 -0.60945824300E+02  0.12052161619E+03  0.13562791875E+03  0.00000000000E+00 0.  1.
         11    1    1    2    0    0  0.36879152340E+02 -0.13883463824E+02  0.21157474416E+02  0.44726515275E+02  0.00000000000E+00 0.  1.
        -15    1    3    3    0    0  0.10074186426E+02  0.80221793533E+02 -0.80056476134E+02  0.11379465053E+03  0.17770000000E+01 0. -1.
         15    1    3    3    0    0 -0.34500271898E+02 -0.53925054097E+01 -0.61622614475E+02  0.70850915445E+02  0.17770000000E+01 0.  1.
</event>
<event>
 7    1  0.1093668E-008  0.1330015E+03  0.7546771E-02  0.1116528E+00
        -11   -1    0    0    0    0  0.00000000000E+00  0.00000000000E+00  0.18250000000E+03  0.18250000000E+03  0.00000000000E+00 0. -1.
         11   -1    0    0    0    0 -0.00000000000E+00 -0.00000000000E+00 -0.18250000000E+03  0.18250000000E+03  0.00000000000E+00 0.  1.
         23    2    1    2    0    0  0.29811682193E+01 -0.54959273880E+02  0.72130536579E+02  0.12748856030E+03  0.89560647331E+02 0.  0.
        -11    1    1    2    0    0 -0.65702371112E+02  0.78870771576E+02  0.37229218837E+02  0.10919439049E+03  0.00000000000E+00 0. -1.
         11    1    1    2    0    0  0.62721202893E+02 -0.23911497696E+02 -0.10935975542E+03  0.12831704921E+03  0.00000000000E+00 0.  1.
        -15    1    3    3    0    0  0.58513926351E+01 -0.73125136445E+02  0.26092796075E+02  0.77881423406E+02  0.17770000000E+01 0.  1.
         15    1    3    3    0    0 -0.28702244158E+01  0.18165862564E+02  0.46037740504E+02  0.49607136892E+02  0.17770000000E+01 0. -1.
</event>
<event>
 7    1  0.1093668E-008  0.1322914E+03  0.7546771E-02  0.1117380E+00
        -11   -1    0    0    0    0  0.00000000000E+00  0.00000000000E+00  0.18250000000E+03  0.18250000000E+03  0.00000000000E+00 0.  1.
         11   -1    0    0    0    0 -0.00000000000E+00 -0.00000000000E+00 -0.18250000000E+03  0.18250000000E+03  0.00000000000E+00 0. -1.
         23    2    1    2    0    0 -0.19045089810E+02 -0.13658172296E+02 -0.24874336170E+02  0.98219006363E+02  0.92081374309E+02 0.  0.
        -11    1    1    2    0    0 -0.11416021896E+02  0.12400304114E+03  0.71022128697E+02  0.14335697587E+03  0.00000000000E+00 0.  1.
         11    1    1    2    0    0  0.30461111706E+02 -0.11034486884E+03 -0.46147792527E+02  0.12342401776E+03  0.00000000000E+00 0. -1.
        -15    1    3    3    0    0 -0.41392242995E+02  0.11197558485E+02  0.15629710379E+02  0.45674376533E+02  0.17770000000E+01 0.  1.
         15    1    3    3    0    0  0.22347153185E+02 -0.24855730780E+02 -0.40504046549E+02  0.52544629830E+02  0.17770000000E+01 0. -1.
</event>
<event>
 7    1  0.1093668E-008  0.1618292E+03  0.7546771E-02  0.1086214E+00
        -11   -1    0    0    0    0  0.00000000000E+00  0.00000000000E+00  0.18250000000E+03  0.18250000000E+03  0.00000000000E+00 0.  1.
         11   -1    0    0    0    0 -0.00000000000E+00 -0.00000000000E+00 -0.18250000000E+03  0.18250000000E+03  0.00000000000E+00 0.  1.
         23    2    1    2    0    0 -0.34518225416E+02  0.77536180110E+02  0.75315110655E+02  0.14644681790E+03  0.92579357685E+02 0.  0.
        -11    1    1    2    0    0 -0.44974011367E+02 -0.15491188066E+02  0.42280977303E+02  0.63642121647E+02  0.00000000000E+00 0.  1.
         11    1    1    2    0    0  0.79492236782E+02 -0.62044992043E+02 -0.11759608796E+03  0.15491106045E+03  0.00000000000E+00 0.  1.
        -15    1    3    3    0    0 -0.21191351938E+02  0.63916080515E+02 -0.14050821033E+01  0.67375594469E+02  0.17770000000E+01 0. -1.
         15    1    3    3    0    0 -0.13326873478E+02  0.13620099595E+02  0.76720192758E+02  0.79071223435E+02  0.17770000000E+01 0.  1.
</event>
<event>
 7    1  0.1093668E-008  0.1491720E+03  0.7546771E-02  0.1098592E+00
        -11   -1    0    0    0    0  0.00000000000E+00  0.00000000000E+00  0.18250000000E+03  0.18250000000E+03  0.00000000000E+00 0. -1.
         11   -1    0    0    0    0 -0.00000000000E+00 -0.00000000000E+00 -0.18250000000E+03  0.18250000000E+03  0.00000000000E+00 0.  1.
         23    2    1    2    0    0  0.65105513428E+02  0.56356378428E+02  0.73896917267E+01  0.12650920912E+03  0.92386163360E+02 0.  0.
        -11    1    1    2    0    0  0.65875577109E+02 -0.60530875623E+01  0.53947183363E+02  0.85361174554E+02  0.00000000000E+00 0. -1.
         11    1    1    2    0    0 -0.13098109054E+03 -0.50303290866E+02 -0.61336875089E+02  0.15312961632E+03  0.00000000000E+00 0.  1.
        -15    1    3    3    0    0  0.21978505994E+02  0.26694004337E+02 -0.42061452749E+02  0.54478877830E+02  0.17770000000E+01 0.  1.
         15    1    3    3    0    0  0.43127007435E+02  0.29662374091E+02  0.49451144476E+02  0.72030331291E+02  0.17770000000E+01 0. -1.
</event>
<event>
 7    1  0.1093668E-008  0.1903180E+03  0.7546771E-02  0.1062397E+00
        -11   -1    0    0    0    0  0.00000000000E+00  0.00000000000E+00  0.18250000000E+03  0.18250000000E+03  0.00000000000E+00 0.  1.
         11   -1    0    0    0    0 -0.00000000000E+00 -0.00000000000E+00 -0.18250000000E+03  0.18250000000E+03  0.00000000000E+00 0. -1.
         23    2    1    2    0    0  0.44047004623E+02  0.14643480918E+03  0.68245957232E+02  0.19031797588E+03  0.90444067293E+02 0.  0.
        -11    1    1    2    0    0 -0.28171450064E+02 -0.50320245508E+02 -0.36300268820E+01  0.57783516697E+02  0.00000000000E+00 0.  1.
         11    1    1    2    0    0 -0.15875554559E+02 -0.96114563673E+02 -0.64615930350E+02  0.11689850742E+03  0.00000000000E+00 0. -1.
        -15    1    3    3    0    0  0.46581769699E+02  0.28098120524E+02  0.15635844653E+01  0.54451521289E+02  0.17770000000E+01 0. -1.
         15    1    3    3    0    0 -0.25347650767E+01  0.11833668866E+03  0.66682372767E+02  0.13586645459E+03  0.17770000000E+01 0.  1.
</event>
<event>
 7    1  0.1093668E-008  0.1481480E+03  0.7546771E-02  0.1099652E+00
        -11   -1    0    0    0    0  0.00000000000E+00  0.00000000000E+00  0.18250000000E+03  0.18250000000E+03  0.00000000000E+00 0. -1.
         11   -1    0    0    0    0 -0.00000000000E+00 -0.00000000000E+00 -0.18250000000E+03  0.18250000000E+03  0.00000000000E+00 0. -1.
         23    2    1    2    0    0  0.62031188993E+02 -0.92385737078E+02 -0.88971415002E+02  0.16878804020E+03  0.90501364646E+02 0.  0.
        -11    1    1    2    0    0  0.21197470005E+02  0.72715534880E+02  0.80086216565E+02  0.11023014030E+03  0.00000000000E+00 0. -1.
         11    1    1    2    0    0 -0.83228658998E+02  0.19670202198E+02  0.88851984364E+01  0.85981819499E+02  0.00000000000E+00 0. -1.
        -15    1    3    3    0    0 -0.21322807084E+02 -0.42348076632E+01 -0.17545494655E+02  0.27992817107E+02  0.17770000000E+01 0.  1.
         15    1    3    3    0    0  0.83353996077E+02 -0.88150929415E+02 -0.71425920347E+02  0.14079522309E+03  0.17770000000E+01 0. -1.
</event>
<event>
 7    1  0.1093668E-008  0.1776673E+03  0.7546771E-02  0.1072368E+00
        -11   -1    0    0    0    0  0.00000000000E+00  0.00000000000E+00  0.18250000000E+03  0.18250000000E+03  0.00000000000E+00 0.  1.
         11   -1    0    0    0    0 -0.00000000000E+00 -0.00000000000E+00 -0.18250000000E+03  0.18250000000E+03  0.00000000000E+00 0.  1.
         23    2    1    2    0    0  0.27998108085E+02 -0.67809680832E+02  0.12399647965E+03  0.17041714525E+03  0.91021039100E+02 0.  0.
        -11    1    1    2    0    0 -0.22378233992E+01  0.72635558799E+02 -0.14420989692E+03  0.16148506626E+03  0.00000000000E+00 0.  1.
         11    1    1    2    0    0 -0.25760284686E+02 -0.48258779678E+01  0.20213417271E+02  0.33097788492E+02  0.00000000000E+00 0.  1.
        -15    1    3    3    0    0 -0.30980251762E+02 -0.42364686204E+02  0.51720787862E+02  0.73707124910E+02  0.17770000000E+01 0. -1.
         15    1    3    3    0    0  0.58978359847E+02 -0.25444994628E+02  0.72275691786E+02  0.96710020339E+02  0.17770000000E+01 0.  1.
</event>
<event>
 7    1  0.1093668E-008  0.1855735E+03  0.7546771E-02  0.1066034E+00
        -11   -1    0    0    0    0  0.00000000000E+00  0.00000000000E+00  0.18250000000E+03  0.18250000000E+03  0.00000000000E+00 0. -1.
         11   -1    0    0    0    0 -0.00000000000E+00 -0.00000000000E+00 -0.18250000000E+03  0.18250000000E+03  0.00000000000E+00 0. -1.
         23    2    1    2    0    0 -0.16102468839E+02 -0.72192991146E+02  0.14787828400E+03  0.18557346111E+03  0.84252033307E+02 0.  0.
        -11    1    1    2    0    0  0.35208960292E+02  0.10965823065E+02 -0.63599224705E+02  0.73517219367E+02  0.00000000000E+00 0. -1.
         11    1    1    2    0    0 -0.19106491453E+02  0.61227168081E+02 -0.84279059293E+02  0.10590931952E+03  0.00000000000E+00 0. -1.
        -15    1    3    3    0    0  0.23265644417E+02 -0.60786276970E+02  0.59782343546E+02  0.88393144569E+02  0.17770000000E+01 0.  1.
         15    1    3    3    0    0 -0.39368113256E+02 -0.11406714176E+02  0.88095940452E+02  0.97180316539E+02  0.17770000000E+01 0. -1.
</event>
<event>
 7    1  0.1093668E-008  0.1570927E+03  0.7546771E-02  0.1090695E+00
        -11   -1    0    0    0    0  0.00000000000E+00  0.00000000000E+00  0.18250000000E+03  0.18250000000E+03  0.00000000000E+00 0. -1.
         11   -1    0    0    0    0 -0.00000000000E+00 -0.00000000000E+00 -0.18250000000E+03  0.18250000000E+03  0.00000000000E+00 0. -1.
         23    2    1    2    0    0  0.98800363214E+01 -0.25129083544E+02 -0.11771920194E+03  0.15143058339E+03  0.91347277586E+02 0.  0.
        -11    1    1    2    0    0 -0.55214929365E+02  0.78660659843E+02  0.10488328066E+03  0.14225572183E+03  0.00000000000E+00 0. -1.
         11    1    1    2    0    0  0.45334893043E+02 -0.53531576299E+02  0.12835921272E+02  0.71313694781E+02  0.00000000000E+00 0. -1.
        -15    1    3    3    0    0  0.45957717766E+02 -0.35649030182E+01 -0.89755187617E+02  0.10091566672E+03  0.17770000000E+01 0. -1.
         15    1    3    3    0    0 -0.36077681445E+02 -0.21564180525E+02 -0.27964014319E+02  0.50514916668E+02  0.17770000000E+01 0.  1.
</event>
<event>
 7    1  0.1093668E-008  0.1528398E+03  0.7546771E-02  0.1094870E+00
        -11   -1    0    0    0    0  0.00000000000E+00  0.00000000000E+00  0.18250000000E+03  0.18250000000E+03  0.00000000000E+00 0.  1.
         11   -1    0    0    0    0 -0.00000000000E+00 -0.00000000000E+00 -0.18250000000E+03  0.18250000000E+03  0.00000000000E+00 0. -1.
         23    2    1    2    0    0  0.10781796669E+03 -0.39656712923E+02 -0.26953658024E+02  0.14945803867E+03  0.91726968886E+02 0.  0.
        -11    1    1    2    0    0 -0.88138021298E+02  0.10341872257E+03 -0.15019584389E+02  0.13670892762E+03  0.00000000000E+00 0.  1.
         11    1    1    2    0    0 -0.19679945390E+02 -0.63762009649E+02  0.41973242413E+02  0.78833033708E+02  0.00000000000E+00 0. -1.
        -15    1    3    3    0    0  0.28305667668E+02 -0.19126583730E+02 -0.53181164676E+02  0.63233148211E+02  0.17770000000E+01 0.  1.
         15    1    3    3    0    0  0.79512299020E+02 -0.20530129193E+02  0.26227506652E+02  0.86224890457E+02  0.17770000000E+01 0. -1.
</event>
<event>
 7    1  0.1093668E-008  0.1906677E+03  0.7546771E-02  0.1062133E+00
        -11   -1    0    0    0    0  0.00000000000E+00  0.00000000000E+00  0.18250000000E+03  0.18250000000E+03  0.00000000000E+00 0.  1.
         11   -1    0    0    0    0 -0.00000000000E+00 -0.00000000000E+00 -0.18250000000E+03  0.18250000000E+03  0.00000000000E+00 0. -1.
         23    2    1    2    0    0  0.41266699249E+01 -0.10121875750E+03  0.13285363928E+03  0.19066768026E+03  0.91879315139E+02 0.  0.
        -11    1    1    2    0    0 -0.12228073109E+02  0.22038906368E+02 -0.83304897552E+01  0.26544984940E+02  0.00000000000E+00 0.  1.
         11    1    1    2    0    0  0.81014031844E+01  0.79179851135E+02 -0.12452314953E+03  0.14778733480E+03  0.00000000000E+00 0. -1.
        -15    1    3    3    0    0  0.10559069155E+02 -0.63550203418E+02  0.13776978876E+03  0.15209797737E+03  0.17770000000E+01 0.  1.
         15    1    3    3    0    0 -0.64323992300E+01 -0.37668554085E+02 -0.49161494743E+01  0.38569702895E+02  0.17770000000E+01 0. -1.
</event>
<event>
 7    1  0.1093668E-008  0.2157071E+03  0.7546771E-02  0.1044720E+00
        -11   -1    0    0    0    0  0.00000000000E+00  0.00000000000E+00  0.18250000000E+03  0.18250000000E+03  0.00000000000E+00 0.  1.
         11   -1    0    0    0    0 -0.00000000000E+00 -0.00000000000E+00 -0.18250000000E+03  0.18250000000E+03  0.00000000000E+00 0.  1.
         23    2    1    2    0    0 -0.38966119356E+02  0.78065258761E+01  0.21625626237E+02  0.10130189679E+03  0.90637223477E+02 0.  0.
        -11    1    1    2    0    0  0.10244679732E+03 -0.10141611516E+03 -0.38830304418E+02  0.14929289078E+03  0.00000000000E+00 0.  1.
         11    1    1    2    0    0 -0.63480677960E+02  0.93609589286E+02  0.17204678182E+02  0.11440521243E+03  0.00000000000E+00 0.  1.
        -15    1    3    3    0    0 -0.56851149298E+02  0.10893974032E+02 -0.15489628762E+02  0.59948462657E+02  0.17770000000E+01 0.  1.
         15    1    3    3    0    0  0.17885029942E+02 -0.30874481559E+01  0.37115254998E+02  0.41353434135E+02  0.17770000000E+01 0. -1.
</event>
<event>
 7    1  0.1093668E-008  0.1447446E+03  0.7546771E-02  0.1103245E+00
        -11   -1    0    0    0    0  0.00000000000E+00  0.00000000000E+00  0.18250000000E+03  0.18250000000E+03  0.00000000000E+00 0. -1.
         11   -1    0    0    0    0 -0.00000000000E+00 -0.00000000000E+00 -0.18250000000E+03  0.18250000000E+03  0.00000000000E+00 0.  1.
         23    2    1    2    0    0 -0.11953159587E+02 -0.56616161915E+02  0.99721525234E+02  0.14721105008E+03  0.91533834491E+02 0.  0.
        -11    1    1    2    0    0  0.27613149178E+02 -0.62247632280E+02 -0.62027067504E+02  0.92111947298E+02  0.00000000000E+00 0. -1.
         11    1    1    2    0    0 -0.15659989591E+02  0.11886379420E+03 -0.37694457730E+02  0.12567700262E+03  0.00000000000E+00 0.  1.
        -15    1    3    3    0    0 -0.12352894169E+02 -0.43186508452E+02  0.11694925307E+03  0.12529147629E+03  0.17770000000E+01 0. -1.
         15    1    3    3    0    0  0.39973458258E+00 -0.13429653463E+02 -0.17227727838E+02  0.21919573795E+02  0.17770000000E+01 0.  1.
</event>
<event>
 7    1  0.1093668E-008  0.1556545E+03  0.7546771E-02  0.1092091E+00
        -11   -1    0    0    0    0  0.00000000000E+00  0.00000000000E+00  0.18250000000E+03  0.18250000000E+03  0.00000000000E+00 0. -1.
         11   -1    0    0    0    0 -0.00000000000E+00 -0.00000000000E+00 -0.18250000000E+03  0.18250000000E+03  0.00000000000E+00 0. -1.
         23    2    1    2    0    0  0.30968211678E+02  0.34617763671E+02 -0.90186666172E+02  0.14480776381E+03  0.10333554088E+03 0.  0.
        -11    1    1    2    0    0 -0.83203274481E+02 -0.91018256057E+02  0.64322333936E+02  0.13908440050E+03  0.00000000000E+00 0. -1.
         11    1    1    2    0    0  0.52235062804E+02  0.56400492386E+02  0.25864332237E+02  0.81107835685E+02  0.00000000000E+00 0. -1.
        -15    1    3    3    0    0 -0.16824763567E+02  0.47489121142E+02 -0.11302443634E+02  0.51664226086E+02  0.17770000000E+01 0.  1.
         15    1    3    3    0    0  0.47792975245E+02 -0.12871357471E+02 -0.78884222538E+02  0.93143537727E+02  0.17770000000E+01 0. -1.
</event>
<event>
 7    1  0.1093668E-008  0.1512842E+03  0.7546771E-02  0.1096434E+00
        -11   -1    0    0    0    0  0.00000000000E+00  0.00000000000E+00  0.18250000000E+03  0.18250000000E+03  0.00000000000E+00 0.  1.
         11   -1    0    0    0    0 -0.00000000000E+00 -0.00000000000E+00 -0.18250000000E+03  0.18250000000E+03  0.00000000000E+00 0.  1.
         23    2    1    2    0    0 -0.24626899202E+02 -0.11558903693E+02  0.14324149197E+03  0.17327807138E+03  0.93632646990E+02 0.  0.
        -11    1    1    2    0    0 -0.34451853244E+02  0.46931312128E+02 -0.58530499958E+02  0.82554816184E+02  0.00000000000E+00 0.  1.
         11    1    1    2    0    0  0.59078752446E+02 -0.35372408434E+02 -0.84710992011E+02  0.10916711243E+03  0.00000000000E+00 0.  1.
        -15    1    3    3    0    0 -0.35178954339E+02  0.42256362513E+01  0.14915224924E+03  0.15331329366E+03  0.17770000000E+01 0.  1.
         15    1    3    3    0    0  0.10552055137E+02 -0.15784539945E+02 -0.59107572757E+01  0.19964777721E+02  0.17770000000E+01 0. -1.
</event>
<event>
 7    1  0.1093668E-008  0.2231756E+03  0.7546771E-02  0.1040019E+00
        -11   -1    0    0    0    0  0.00000000000E+00  0.00000000000E+00  0.18250000000E+03  0.18250000000E+03  0.00000000000E+00 0. -1.
         11   -1    0    0    0    0 -0.00000000000E+00 -0.00000000000E+00 -0.18250000000E+03  0.18250000000E+03  0.00000000000E+00 0.  1.
         23    2    1    2    0    0 -0.19373730819E+01  0.14666665739E+02 -0.74948808615E+01  0.92249846577E+02  0.90746881247E+02 0.  0.
        -11    1    1    2    0    0 -0.48590757607E+02 -0.55151711941E+02  0.12129045760E+03  0.14182435672E+03  0.00000000000E+00 0. -1.
         11    1    1    2    0    0  0.50528130689E+02  0.40485046202E+02 -0.11379557674E+03  0.13092579670E+03  0.00000000000E+00 0.  1.
        -15    1    3    3    0    0  0.32240685077E+02 -0.11105916734E+02  0.21651957935E+02  0.40432266474E+02  0.17770000000E+01 0.  1.
         15    1    3    3    0    0 -0.34178058159E+02  0.25772582474E+02 -0.29146838797E+02  0.51817580103E+02  0.17770000000E+01 0. -1.
</event>
<event>
 7    1  0.1093668E-008  0.1808381E+03  0.7546771E-02  0.1069785E+00
        -11   -1    0    0    0    0  0.00000000000E+00  0.00000000000E+00  0.18250000000E+03  0.18250000000E+03  0.00000000000E+00 0. -1.
         11   -1    0    0    0    0 -0.00000000000E+00 -0.00000000000E+00 -0.18250000000E+03  0.18250000000E+03  0.00000000000E+00 0.  1.
         23    2    1    2    0    0  0.41466818716E+02 -0.96161789543E+02 -0.11355894671E+03  0.17912849445E+03  0.90690662821E+02 0.  0.
        -11    1    1    2    0    0 -0.47801785475E+02  0.76957155552E+02  0.13092688212E+03  0.15921451864E+03  0.00000000000E+00 0. -1.
         11    1    1    2    0    0  0.63349667587E+01  0.19204633991E+02 -0.17367935414E+02  0.26656986910E+02  0.00000000000E+00 0.  1.
        -15    1    3    3    0    0 -0.11419686882E+02 -0.10838149641E+02  0.10892614393E+02  0.19227103615E+02  0.17770000000E+01 0. -1.
         15    1    3    3    0    0  0.52886505599E+02 -0.85323639903E+02 -0.12445156110E+03  0.15990139083E+03  0.17770000000E+01 0.  1.
</event>
<event>
 7    1  0.1093668E-008  0.1246021E+03  0.7546771E-02  0.1126995E+00
        -11   -1    0    0    0    0  0.00000000000E+00  0.00000000000E+00  0.18250000000E+03  0.18250000000E+03  0.00000000000E+00 0.  1.
         11   -1    0    0    0    0 -0.00000000000E+00 -0.00000000000E+00 -0.18250000000E+03  0.18250000000E+03  0.00000000000E+00 0. -1.
         23    2    1    2    0    0  0.53978404871E+02 -0.18497781442E+02 -0.19788756784E+02  0.10858208078E+03  0.90236562766E+02 0.  0.
        -11    1    1    2    0    0  0.31362220863E+02 -0.97470953503E+02  0.42108954977E+02  0.11071287081E+03  0.00000000000E+00 0.  1.
         11    1    1    2    0    0 -0.85340625734E+02  0.11596873494E+03 -0.22320198193E+02  0.14570504841E+03  0.00000000000E+00 0. -1.
        -15    1    3    3    0    0 -0.21207643341E+02 -0.20640077232E+02 -0.14913997257E+02  0.33186773983E+02  0.17770000000E+01 0. -1.
         15    1    3    3    0    0  0.75186048212E+02  0.21422957899E+01 -0.48747595267E+01  0.75395306793E+02  0.17770000000E+01 0.  1.
</event>
<event>
 7    1  0.1356763E-008  0.1477807E+03  0.7546771E-02  0.1100035E+00
        -11   -1    0    0    0    0  0.00000000000E+00  0.00000000000E+00  0.18250000000E+03  0.18250000000E+03  0.00000000000E+00 0.  1.
         11   -1    0    0    0    0 -0.00000000000E+00 -0.00000000000E+00 -0.18250000000E+03  0.18250000000E+03  0.00000000000E+00 0. -1.
         23    2    1    2    0    0  0.13731204895E+02  0.15740164922E+02  0.94281773541E+02  0.13289727003E+03  0.91303520090E+02 0.  0.
        -11    1    1    2    0    0  0.62622692389E+02 -0.56212790657E+02  0.22232496082E+02  0.87038860962E+02  0.00000000000E+00 0.  1.
         11    1    1    2    0    0 -0.76353897284E+02  0.40472625735E+02 -0.11651426962E+03  0.14506386900E+03  0.00000000000E+00 0. -1.
        -15    1    3    3    0    0  0.17802832961E+02  0.15858595583E+02 -0.11842282115E+02  0.26680204085E+02  0.17770000000E+01 0. -1.
         15    1    3    3    0    0 -0.40716280661E+01 -0.11843066099E+00  0.10612405566E+03  0.10621706595E+03  0.17770000000E+01 0.  1.
</event>
<event>
 7    1  0.1093668E-008  0.1594992E+03  0.7546771E-02  0.1088397E+00
        -11   -1    0    0    0    0  0.00000000000E+00  0.00000000000E+00  0.18250000000E+03  0.18250000000E+03  0.00000000000E+00 0.  1.
         11   -1    0    0    0    0 -0.00000000000E+00 -0.00000000000E+00 -0.18250000000E+03  0.18250000000E+03  0.00000000000E+00 0.  1.
         23    2    1    2    0    0 -0.53853239743E+02 -0.74836204746E+02  0.76201925737E+02  0.15046041958E+03  0.91274177082E+02 0.  0.
        -11    1    1    2    0    0 -0.62950352436E+02  0.22954650591E+02 -0.26031410370E+01  0.67055493428E+02  0.00000000000E+00 0.  1.
         11    1    1    2    0    0  0.11680359218E+03  0.51881554154E+02 -0.73598784700E+02  0.14748408699E+03  0.00000000000E+00 0.  1.
        -15    1    3    3    0    0 -0.65291518634E+00 -0.42463088504E+02  0.77225968581E+02  0.88150712622E+02  0.17770000000E+01 0.  1.
         15    1    3    3    0    0 -0.53200324557E+02 -0.32373116242E+02 -0.10240428441E+01  0.62309706956E+02  0.17770000000E+01 0. -1.
</event>
<event>
 7    1  0.1093668E-008  0.1835372E+03  0.7546771E-02  0.1067632E+00
        -11   -1    0    0    0    0  0.00000000000E+00  0.00000000000E+00  0.18250000000E+03  0.18250000000E+03  0.00000000000E+00 0.  1.
         11   -1    0    0    0    0 -0.00000000000E+00 -0.00000000000E+00 -0.18250000000E+03  0.18250000000E+03  0.00000000000E+00 0. -1.
         23    2    1    2    0    0 -0.13740331922E+03  0.83287243493E+02 -0.10089016506E+01  0.18353715727E+03  0.88704189047E+02 0.  0.
        -11    1    1    2    0    0  0.10645497585E+03 -0.17994757670E+02 -0.97747479186E+01  0.10840672895E+03  0.00000000000E+00 0.  1.
         11    1    1    2    0    0  0.30948343371E+02 -0.65292485824E+02  0.10783649569E+02  0.73056113779E+02  0.00000000000E+00 0. -1.
        -15    1    3    3    0    0 -0.11819652974E+03  0.63314686006E+02  0.34496245050E+02  0.13846413889E+03  0.17770000000E+01 0.  1.
         15    1    3    3    0    0 -0.19206789481E+02  0.19972557487E+02 -0.35505146701E+02  0.45073018381E+02  0.17770000000E+01 0. -1.
</event>
<event>
 7    1  0.1093668E-008  0.1528004E+03  0.7546771E-02  0.1094909E+00
        -11   -1    0    0    0    0  0.00000000000E+00  0.00000000000E+00  0.18250000000E+03  0.18250000000E+03  0.00000000000E+00 0. -1.
         11   -1    0    0    0    0 -0.00000000000E+00 -0.00000000000E+00 -0.18250000000E+03  0.18250000000E+03  0.00000000000E+00 0.  1.
         23    2    1    2    0    0  0.17938109267E+02 -0.96049017975E+02 -0.50079368408E+02  0.13732179581E+03  0.82475104399E+02 0.  0.
        -11    1    1    2    0    0 -0.84853692941E+02  0.98813905115E+02  0.81559493661E+02  0.15367591892E+03  0.00000000000E+00 0. -1.
         11    1    1    2    0    0  0.66915583675E+02 -0.27648871409E+01 -0.31480125253E+02  0.74002285272E+02  0.00000000000E+00 0.  1.
        -15    1    3    3    0    0 -0.55442928050E+01 -0.94173203028E+02 -0.59874795152E+02  0.11174739449E+03  0.17770000000E+01 0.  1.
         15    1    3    3    0    0  0.23482402072E+02 -0.18758149466E+01  0.97954267442E+01  0.25574401320E+02  0.17770000000E+01 0. -1.
</event>
<event>
 7    1  0.1093668E-008  0.1842388E+03  0.7546771E-02  0.1067079E+00
        -11   -1    0    0    0    0  0.00000000000E+00  0.00000000000E+00  0.18250000000E+03  0.18250000000E+03  0.00000000000E+00 0.  1.
         11   -1    0    0    0    0 -0.00000000000E+00 -0.00000000000E+00 -0.18250000000E+03  0.18250000000E+03  0.00000000000E+00 0. -1.
         23    2    1    2    0    0  0.13018583571E+03 -0.66284428738E+02 -0.66106080514E+02  0.18378885839E+03  0.89812879225E+02 0.  0.
        -11    1    1    2    0    0 -0.13867838954E+03  0.48957378450E+02  0.67596347294E+02  0.16185730382E+03  0.00000000000E+00 0.  1.
         11    1    1    2    0    0  0.84925538341E+01  0.17327050288E+02 -0.14902667799E+01  0.19353837795E+02  0.00000000000E+00 0. -1.
        -15    1    3    3    0    0  0.13196486487E+03 -0.79555128527E+02 -0.70669531759E+02  0.16953195712E+03  0.17770000000E+01 0. -1.
         15    1    3    3    0    0 -0.17790291622E+01  0.13270699789E+02  0.45634512450E+01  0.14256901273E+02  0.17770000000E+01 0.  1.
</event>
<event>
 7    1  0.1093668E-008  0.1648922E+03  0.7546771E-02  0.1083404E+00
        -11   -1    0    0    0    0  0.00000000000E+00  0.00000000000E+00  0.18250000000E+03  0.18250000000E+03  0.00000000000E+00 0.  1.
         11   -1    0    0    0    0 -0.00000000000E+00 -0.00000000000E+00 -0.18250000000E+03  0.18250000000E+03  0.00000000000E+00 0. -1.
         23    2    1    2    0    0  0.75271774552E+00  0.79277102270E+02 -0.91052358224E+02  0.15576503828E+03  0.98421489954E+02 0.  0.
        -11    1    1    2    0    0  0.45957460848E+02 -0.11698034848E+03  0.77625866791E+02  0.14772361129E+03  0.00000000000E+00 0.  1.
         11    1    1    2    0    0 -0.46710178593E+02  0.37703246210E+02  0.13426491434E+02  0.61511350426E+02  0.00000000000E+00 0. -1.
        -15    1    3    3    0    0 -0.78962906255E+01 -0.10290443764E+02  0.12820925834E+02  0.18324260060E+02  0.17770000000E+01 0.  1.
         15    1    3    3    0    0  0.86490083710E+01  0.89567546034E+02 -0.10387328406E+03  0.13744077822E+03  0.17770000000E+01 0. -1.
</event>
<event>
 7    1  0.1093668E-008  0.1406662E+03  0.7546771E-02  0.1107696E+00
        -11   -1    0    0    0    0  0.00000000000E+00  0.00000000000E+00  0.18250000000E+03  0.18250000000E+03  0.00000000000E+00 0.  1.
         11   -1    0    0    0    0 -0.00000000000E+00 -0.00000000000E+00 -0.18250000000E+03  0.18250000000E+03  0.00000000000E+00 0. -1.
         23    2    1    2    0    0  0.18200930487E+02 -0.35720892327E+02 -0.80419490366E+02  0.12795500142E+03  0.91092985119E+02 0.  0.
        -11    1    1    2    0    0 -0.39912661946E+02 -0.50252109415E+02  0.12295789136E+03  0.13869728956E+03  0.00000000000E+00 0.  1.
         11    1    1    2    0    0  0.21711731459E+02  0.85973001742E+02 -0.42538400989E+02  0.98347709024E+02  0.00000000000E+00 0. -1.
        -15    1    3    3    0    0 -0.15389755727E+02 -0.44293979251E+02 -0.79405172083E+01  0.47592128779E+02  0.17770000000E+01 0.  1.
         15    1    3    3    0    0  0.33590686214E+02  0.85730869235E+01 -0.72478973158E+02  0.80362872639E+02  0.17770000000E+01 0. -1.
</event>
<event>
 7    1  0.1093668E-008  0.1364983E+03  0.7546771E-02  0.1112419E+00
        -11   -1    0    0    0    0  0.00000000000E+00  0.00000000000E+00  0.18250000000E+03  0.18250000000E+03  0.00000000000E+00 0. -1.
         11   -1    0    0    0    0 -0.00000000000E+00 -0.00000000000E+00 -0.18250000000E+03  0.18250000000E+03  0.00000000000E+00 0. -1.
         23    2    1    2    0    0 -0.35609699080E+02  0.38992057192E+01 -0.86670293380E+02  0.13538543266E+03  0.97643336419E+02 0.  0.
        -11    1    1    2    0    0  0.97833697889E+02  0.47603815779E+02 -0.31121824355E+01  0.10884503387E+03  0.00000000000E+00 0. -1.
         11    1    1    2    0    0 -0.62223998809E+02 -0.51503021498E+02  0.89782475815E+02  0.12076953347E+03  0.00000000000E+00 0. -1.
        -15    1    3    3    0    0 -0.15042751967E+02  0.50133820849E+02 -0.53420120067E+02  0.74810101835E+02  0.17770000000E+01 0.  1.
         15    1    3    3    0    0 -0.20566947113E+02 -0.46234615129E+02 -0.33250173313E+02  0.60575330821E+02  0.17770000000E+01 0. -1.
</event>
<event>
 7    1  0.1093668E-008  0.1611152E+03  0.7546771E-02  0.1086878E+00
        -11   -1    0    0    0    0  0.00000000000E+00  0.00000000000E+00  0.18250000000E+03  0.18250000000E+03  0.00000000000E+00 0.  1.
         11   -1    0    0    0    0 -0.00000000000E+00 -0.00000000000E+00 -0.18250000000E+03  0.18250000000E+03  0.00000000000E+00 0. -1.
         23    2    1    2    0    0  0.53144543680E+02  0.13455369543E+03  0.30034408537E+02  0.17316524448E+03  0.90305574152E+02 0.  0.
        -11    1    1    2    0    0  0.36659811922E+02 -0.51410746421E+02  0.80716934611E+01  0.63656569913E+02  0.00000000000E+00 0.  1.
         11    1    1    2    0    0 -0.89804355602E+02 -0.83142949011E+02 -0.38106101998E+02  0.12817818560E+03  0.00000000000E+00 0. -1.
        -15    1    3    3    0    0  0.27313446651E+02 -0.47543714642E+01 -0.21435750835E+01  0.27863615327E+02  0.17770000000E+01 0. -1.
         15    1    3    3    0    0  0.25831097029E+02  0.13930806690E+03  0.32177983620E+02  0.14530162916E+03  0.17770000000E+01 0.  1.
</event>
<event>
 7    1  0.1093668E-008  0.1397859E+03  0.7546771E-02  0.1108678E+00
        -11   -1    0    0    0    0  0.00000000000E+00  0.00000000000E+00  0.18250000000E+03  0.18250000000E+03  0.00000000000E+00 0.  1.
         11   -1    0    0    0    0 -0.00000000000E+00 -0.00000000000E+00 -0.18250000000E+03  0.18250000000E+03  0.00000000000E+00 0.  1.
         23    2    1    2    0    0  0.31680728897E+02  0.77554996225E+02 -0.33091767183E+02  0.12961438187E+03  0.93200734488E+02 0.  0.
        -11    1    1    2    0    0 -0.98595000642E+02 -0.25345917805E+02  0.87779831490E+02  0.13441982189E+03  0.00000000000E+00 0.  1.
         11    1    1    2    0    0  0.66914271745E+02 -0.52209078420E+02 -0.54688064307E+02  0.10096579624E+03  0.00000000000E+00 0.  1.
        -15    1    3    3    0    0  0.35928453090E+02 -0.62106777797E+01  0.61142538169E+01  0.37013079967E+02  0.17770000000E+01 0.  1.
         15    1    3    3    0    0 -0.42477241933E+01  0.83765674004E+02 -0.39206021000E+02  0.92601301902E+02  0.17770000000E+01 0. -1.
</event>
<event>
 7    1  0.1093668E-008  0.1722329E+03  0.7546771E-02  0.1076934E+00
        -11   -1    0    0    0    0  0.00000000000E+00  0.00000000000E+00  0.18250000000E+03  0.18250000000E+03  0.00000000000E+00 0.  1.
         11   -1    0    0    0    0 -0.00000000000E+00 -0.00000000000E+00 -0.18250000000E+03  0.18250000000E+03  0.00000000000E+00 0. -1.
         23    2    1    2    0    0 -0.39362993927E+02 -0.15002585851E+03  0.33457952594E+02  0.18320242099E+03  0.91577775433E+02 0.  0.
        -11    1    1    2    0    0  0.27244233749E+02  0.12654965651E+02 -0.31992662760E+02  0.43885383656E+02  0.00000000000E+00 0. -1.
         11    1    1    2    0    0  0.12118760179E+02  0.13737089286E+03 -0.14652898337E+01  0.13791219535E+03  0.00000000000E+00 0.  1.
        -15    1    3    3    0    0 -0.34784105977E+02 -0.66210992017E+01 -0.16126454774E+01  0.35489876552E+02  0.17770000000E+01 0.  1.
         15    1    3    3    0    0 -0.45788879505E+01 -0.14340475931E+03  0.35070598071E+02  0.14771254444E+03  0.17770000000E+01 0. -1.
</event>
<event>
 7    1  0.1093668E-008  0.1267206E+03  0.7546771E-02  0.1124271E+00
        -11   -1    0    0    0    0  0.00000000000E+00  0.00000000000E+00  0.18250000000E+03  0.18250000000E+03  0.00000000000E+00 0. -1.
         11   -1    0    0    0    0 -0.00000000000E+00 -0.00000000000E+00 -0.18250000000E+03  0.18250000000E+03  0.00000000000E+00 0.  1.
         23    2    1    2    0    0 -0.11639154812E+02 -0.11196306169E+02  0.51842381496E+02  0.10580727371E+03  0.90811450016E+02 0.  0.
        -11    1    1    2    0    0  0.77401789395E+02  0.40049765955E+02  0.73981953183E+02  0.11431688480E+03  0.00000000000E+00 0. -1.
         11    1    1    2    0    0 -0.65762634584E+02 -0.28853459786E+02 -0.12582433468E+03  0.14487584149E+03  0.00000000000E+00 0.  1.
        -15    1    3    3    0    0 -0.42082496404E+02  0.21698618714E+02  0.26693081307E+02  0.54382394912E+02  0.17770000000E+01 0.  1.
         15    1    3    3    0    0  0.30443341592E+02 -0.32894924882E+02  0.25149300189E+02  0.51424878797E+02  0.17770000000E+01 0. -1.
</event>
<event>
 7    1  0.1093668E-008  0.1265464E+03  0.7546771E-02  0.1124493E+00
        -11   -1    0    0    0    0  0.00000000000E+00  0.00000000000E+00  0.18250000000E+03  0.18250000000E+03  0.00000000000E+00 0.  1.
         11   -1    0    0    0    0 -0.00000000000E+00 -0.00000000000E+00 -0.18250000000E+03  0.18250000000E+03  0.00000000000E+00 0.  1.
         23    2    1    2    0    0 -0.34920352961E+02 -0.26389230727E+02  0.40855704700E+02  0.10492130794E+03  0.86159559566E+02 0.  0.
        -11    1    1    2    0    0  0.10040233644E+02  0.80448706875E+02  0.87080989938E+02  0.11897856756E+03  0.00000000000E+00 0.  1.
         11    1    1    2    0    0  0.24880119317E+02 -0.54059476148E+02 -0.12793669464E+03  0.14110012450E+03  0.00000000000E+00 0.  1.
        -15    1    3    3    0    0 -0.97444378765E+01 -0.19124480888E+02  0.65473050835E+02  0.68924436547E+02  0.17770000000E+01 0. -1.
         15    1    3    3    0    0 -0.25175915085E+02 -0.72647498396E+01 -0.24617346134E+02  0.35996871396E+02  0.17770000000E+01 0.  1.
</event>
<event>
 7    1  0.1093668E-008  0.1331872E+03  0.7546771E-02  0.1116307E+00
        -11   -1    0    0    0    0  0.00000000000E+00  0.00000000000E+00  0.18250000000E+03  0.18250000000E+03  0.00000000000E+00 0. -1.
         11   -1    0    0    0    0 -0.00000000000E+00 -0.00000000000E+00 -0.18250000000E+03  0.18250000000E+03  0.00000000000E+00 0.  1.
         23    2    1    2    0    0  0.86454235978E+01 -0.35370365025E+02 -0.13288629022E+02  0.95820389431E+02  0.87630778259E+02 0.  0.
        -11    1    1    2    0    0  0.89330873804E+02  0.30008557455E+02 -0.87442666590E+02  0.12855636303E+03  0.00000000000E+00 0.  1.
         11    1    1    2    0    0 -0.97976297402E+02  0.53618075706E+01  0.10073129561E+03  0.14062324754E+03  0.00000000000E+00 0. -1.
        -15    1    3    3    0    0  0.40021689412E+02 -0.46070014434E+02 -0.32526182600E+01  0.61138523926E+02  0.17770000000E+01 0.  1.
         15    1    3    3    0    0 -0.31376265814E+02  0.10699649408E+02 -0.10036010762E+02  0.34681865505E+02  0.17770000000E+01 0. -1.
</event>
<event>
 7    1  0.1093668E-008  0.1849719E+03  0.7546771E-02  0.1066504E+00
        -11   -1    0    0    0    0  0.00000000000E+00  0.00000000000E+00  0.18250000000E+03  0.18250000000E+03  0.00000000000E+00 0. -1.
         11   -1    0    0    0    0 -0.00000000000E+00 -0.00000000000E+00 -0.18250000000E+03  0.18250000000E+03  0.00000000000E+00 0.  1.
         23    2    1    2    0    0 -0.64252354694E+02 -0.24856999097E+02 -0.14911156844E+03  0.18842613211E+03  0.92325034155E+02 0.  0.
        -11    1    1    2    0    0  0.69354017186E+02  0.81981682466E+01  0.14101741934E+03  0.15736296330E+03  0.00000000000E+00 0. -1.
         11    1    1    2    0    0 -0.51016624916E+01  0.16658830850E+02  0.80941490988E+01  0.19210904589E+02  0.00000000000E+00 0.  1.
        -15    1    3    3    0    0 -0.70778822641E+00 -0.39405399249E+02 -0.97764713595E+02  0.10542477606E+03  0.17770000000E+01 0.  1.
         15    1    3    3    0    0 -0.63544566468E+02  0.14548400152E+02 -0.51346854843E+02  0.83001356048E+02  0.17770000000E+01 0. -1.
</event>
<event>
 7    1  0.1093668E-008  0.1559127E+03  0.7546771E-02  0.1091839E+00
        -11   -1    0    0    0    0  0.00000000000E+00  0.00000000000E+00  0.18250000000E+03  0.18250000000E+03  0.00000000000E+00 0.  1.
         11   -1    0    0    0    0 -0.00000000000E+00 -0.00000000000E+00 -0.18250000000E+03  0.18250000000E+03  0.00000000000E+00 0. -1.
         23    2    1    2    0    0  0.31558598165E+01 -0.53532911038E+02  0.81781246557E+02  0.13312573516E+03  0.90324731153E+02 0.  0.
        -11    1    1    2    0    0 -0.11557838169E+02  0.10401519007E+02  0.71111798679E+02  0.72791916668E+02  0.00000000000E+00 0.  1.
         11    1    1    2    0    0  0.84019783521E+01  0.43131392031E+02 -0.15289304524E+03  0.15908234817E+03  0.00000000000E+00 0. -1.
        -15    1    3    3    0    0  0.11829474493E+02 -0.31820887529E+01  0.81057603423E+02  0.81997286280E+02  0.17770000000E+01 0.  1.
         15    1    3    3    0    0 -0.86736146763E+01 -0.50350822285E+02  0.72364313348E+00  0.51128448878E+02  0.17770000000E+01 0. -1.
</event>
<event>
 7    1  0.1093668E-008  0.1173774E+03  0.7546771E-02  0.1136757E+00
        -11   -1    0    0    0    0  0.00000000000E+00  0.00000000000E+00  0.18250000000E+03  0.18250000000E+03  0.00000000000E+00 0.  1.
         11   -1    0    0    0    0 -0.00000000000E+00 -0.00000000000E+00 -0.18250000000E+03  0.18250000000E+03  0.00000000000E+00 0. -1.
         23    2    1    2    0    0 -0.16193638410E+02  0.78673577449E+01 -0.73807941764E+02  0.11825816503E+03  0.90626994247E+02 0.  0.
        -11    1    1    2    0    0 -0.77144508781E+02 -0.83642515828E+02  0.49488546336E+02  0.12408248026E+03  0.00000000000E+00 0.  1.
         11    1    1    2    0    0  0.93338147191E+02  0.75775158083E+02  0.24319395428E+02  0.12265935471E+03  0.00000000000E+00 0. -1.
        -15    1    3    3    0    0 -0.90906310993E+01  0.40370433704E+02 -0.48872970107E+01  0.41706772739E+02  0.17770000000E+01 0.  1.
         15    1    3    3    0    0 -0.71030073107E+01 -0.32503075959E+02 -0.68920644753E+02  0.76551392292E+02  0.17770000000E+01 0. -1.
</event>
<event>
 7    1  0.1093668E-008  0.1901627E+03  0.7546771E-02  0.1062514E+00
        -11   -1    0    0    0    0  0.00000000000E+00  0.00000000000E+00  0.18250000000E+03  0.18250000000E+03  0.00000000000E+00 0. -1.
         11   -1    0    0    0    0 -0.00000000000E+00 -0.00000000000E+00 -0.18250000000E+03  0.18250000000E+03  0.00000000000E+00 0.  1.
         23    2    1    2    0    0  0.15156406320E+03 -0.47577483434E+02  0.23189374795E+02  0.19016272660E+03  0.10192562632E+03 0.  0.
        -11    1    1    2    0    0 -0.13697991544E+03  0.15645062350E+02 -0.14202979514E+02  0.13860010764E+03  0.00000000000E+00 0.  1.
         11    1    1    2    0    0 -0.14584147762E+02  0.31932421084E+02 -0.89863952812E+01  0.36237165761E+02  0.00000000000E+00 0. -1.
        -15    1    3    3    0    0  0.16262518780E+03 -0.51983748521E+02  0.33871801344E+02  0.17406814319E+03  0.17770000000E+01 0. -1.
         15    1    3    3    0    0 -0.11061124597E+02  0.44062650867E+01 -0.10682426548E+02  0.16094583416E+02  0.17770000000E+01 0.  1.
</event>
<event>
 7    1  0.1093668E-008  0.1198616E+03  0.7546771E-02  0.1133314E+00
        -11   -1    0    0    0    0  0.00000000000E+00  0.00000000000E+00  0.18250000000E+03  0.18250000000E+03  0.00000000000E+00 0.  1.
         11   -1    0    0    0    0 -0.00000000000E+00 -0.00000000000E+00 -0.18250000000E+03  0.18250000000E+03  0.00000000000E+00 0.  1.
         23    2    1    2    0    0  0.56372917972E+02 -0.37327546143E+02  0.10411393404E+02  0.11570724960E+03  0.93319445541E+02 0.  0.
        -11    1    1    2    0    0 -0.27852737270E+02  0.46698541516E+02  0.11133314577E+03  0.12390156618E+03  0.00000000000E+00 0.  1.
         11    1    1    2    0    0 -0.28520180702E+02 -0.93709953733E+01 -0.12174453918E+03  0.12539118422E+03  0.00000000000E+00 0.  1.
        -15    1    3    3    0    0  0.23147033117E+02  0.30584151189E+02  0.11474650976E+02  0.40074939677E+02  0.17770000000E+01 0.  1.
         15    1    3    3    0    0  0.33225884855E+02 -0.67911697332E+02 -0.10632575728E+01  0.75632309925E+02  0.17770000000E+01 0. -1.
</event>
<event>
 7    1  0.1093668E-008  0.1385748E+03  0.7546771E-02  0.1110043E+00
        -11   -1    0    0    0    0  0.00000000000E+00  0.00000000000E+00  0.18250000000E+03  0.18250000000E+03  0.00000000000E+00 0. -1.
         11   -1    0    0    0    0 -0.00000000000E+00 -0.00000000000E+00 -0.18250000000E+03  0.18250000000E+03  0.00000000000E+00 0.  1.
         23    2    1    2    0    0  0.69671507798E+02 -0.29033752434E+01 -0.20183026263E+02  0.12006673740E+03  0.95635340199E+02 0.  0.
        -11    1    1    2    0    0 -0.66102782700E+02  0.44238336541E+02  0.11592479126E+03  0.14058863940E+03  0.00000000000E+00 0. -1.
         11    1    1    2    0    0 -0.35687250977E+01 -0.41334961297E+02 -0.95741764998E+02  0.10434462319E+03  0.00000000000E+00 0.  1.
        -15    1    3    3    0    0  0.18667041864E+02 -0.50493975844E+01  0.37980627528E+02  0.42657246329E+02  0.17770000000E+01 0.  1.
         15    1    3    3    0    0  0.51004465934E+02  0.21460223410E+01 -0.58163653791E+02  0.77409491075E+02  0.17770000000E+01 0. -1.
</event>
<event>
 7    1  0.1093668E-008  0.2068574E+03  0.7546771E-02  0.1050566E+00
        -11   -1    0    0    0    0  0.00000000000E+00  0.00000000000E+00  0.18250000000E+03  0.18250000000E+03  0.00000000000E+00 0. -1.
         11   -1    0    0    0    0 -0.00000000000E+00 -0.00000000000E+00 -0.18250000000E+03  0.18250000000E+03  0.00000000000E+00 0. -1.
         23    2    1    2    0    0  0.79608354996E+02 -0.14006014007E+02  0.18064321429E+02  0.11755431313E+03  0.83420849994E+02 0.  0.
        -11    1    1    2    0    0 -0.13232267970E+03 -0.10053067701E+02 -0.86015813551E+02  0.15814258097E+03  0.00000000000E+00 0. -1.
         11    1    1    2    0    0  0.52714324707E+02  0.24059081708E+02  0.67951492121E+02  0.89303105900E+02  0.00000000000E+00 0. -1.
        -15    1    3    3    0    0  0.39742301291E+02  0.26267709232E+02 -0.17322208306E+02  0.50721392822E+02  0.17770000000E+01 0. -1.
         15    1    3    3    0    0  0.39866053705E+02 -0.40273723239E+02  0.35386529736E+02  0.66832920311E+02  0.17770000000E+01 0.  1.
</event>
<event>
 7    1  0.1093668E-008  0.1755713E+03  0.7546771E-02  0.1074108E+00
        -11   -1    0    0    0    0  0.00000000000E+00  0.00000000000E+00  0.18250000000E+03  0.18250000000E+03  0.00000000000E+00 0.  1.
         11   -1    0    0    0    0 -0.00000000000E+00 -0.00000000000E+00 -0.18250000000E+03  0.18250000000E+03  0.00000000000E+00 0. -1.
         23    2    1    2    0    0  0.60067873902E+02  0.48383304953E+02  0.11898123880E+03  0.16854657482E+03  0.91117062213E+02 0.  0.
        -11    1    1    2    0    0  0.96389056192E+01 -0.27893191090E+02  0.22697863710E+02  0.37230788706E+02  0.00000000000E+00 0.  1.
         11    1    1    2    0    0 -0.69706779521E+02 -0.20490113863E+02 -0.14167910251E+03  0.15922263647E+03  0.00000000000E+00 0. -1.
        -15    1    3    3    0    0  0.85048353163E+01  0.16063671859E+02 -0.13523547194E+02  0.22724828604E+02  0.17770000000E+01 0. -1.
         15    1    3    3    0    0  0.51563038586E+02  0.32319633093E+02  0.13250478599E+03  0.14582174622E+03  0.17770000000E+01 0.  1.
</event>
<event>
 7    1  0.1093668E-008  0.1379096E+03  0.7546771E-02  0.1110799E+00
        -11   -1    0    0    0    0  0.00000000000E+00  0.00000000000E+00  0.18250000000E+03  0.18250000000E+03  0.00000000000E+00 0.  1.
         11   -1    0    0    0    0 -0.00000000000E+00 -0.00000000000E+00 -0.18250000000E+03  0.18250000000E+03  0.00000000000E+00 0. -1.
         23    2    1    2    0    0 -0.48375322956E+02  0.46671221280E+02 -0.47945984429E+02  0.12537615785E+03  0.94350351175E+02 0.  0.
        -11    1    1    2    0    0 -0.27444579459E+02  0.60038509439E+02  0.81116425199E+02  0.10458346903E+03  0.00000000000E+00 0.  1.
         11    1    1    2    0    0  0.75819902415E+02 -0.10670973072E+03 -0.33170440770E+02  0.13504037312E+03  0.00000000000E+00 0. -1.
        -15    1    3    3    0    0  0.95808105125E+01  0.50087404683E+02 -0.43622825718E+02  0.67131577448E+02  0.17770000000E+01 0.  1.
         15    1    3    3    0    0 -0.57956133469E+02 -0.34161834030E+01 -0.43231587106E+01  0.58244580399E+02  0.17770000000E+01 0. -1.
</event>
<event>
 7    1  0.1093668E-008  0.2183802E+03  0.7546771E-02  0.1043014E+00
        -11   -1    0    0    0    0  0.00000000000E+00  0.00000000000E+00  0.18250000000E+03  0.18250000000E+03  0.00000000000E+00 0. -1.
         11   -1    0    0    0    0 -0.00000000000E+00 -0.00000000000E+00 -0.18250000000E+03  0.18250000000E+03  0.00000000000E+00 0. -1.
         23    2    1    2    0    0 -0.70458676382E+01  0.76906939824E+01 -0.36998506076E+02  0.96697593186E+02  0.88728485005E+02 0.  0.
        -11    1    1    2    0    0 -0.39115884938E+02 -0.82734038483E+02 -0.80197743735E+02  0.12168258576E+03  0.00000000000E+00 0. -1.
         11    1    1    2    0    0  0.46161752576E+02  0.75043344501E+02  0.11719624981E+03  0.14661982105E+03  0.00000000000E+00 0. -1.
        -15    1    3    3    0    0 -0.24382193131E+02  0.24623218323E+02  0.16139243610E+02  0.38267834219E+02  0.17770000000E+01 0.  1.
         15    1    3    3    0    0  0.17336325493E+02 -0.16932524341E+02 -0.53137749687E+02  0.58429758967E+02  0.17770000000E+01 0. -1.
</event>
<event>
 7    1  0.1093668E-008  0.1547762E+03  0.7546771E-02  0.1092951E+00
        -11   -1    0    0    0    0  0.00000000000E+00  0.00000000000E+00  0.18250000000E+03  0.18250000000E+03  0.00000000000E+00 0. -1.
         11   -1    0    0    0    0 -0.00000000000E+00 -0.00000000000E+00 -0.18250000000E+03  0.18250000000E+03  0.00000000000E+00 0.  1.
         23    2    1    2    0    0  0.47501609218E+02  0.31186159659E+02 -0.10122886091E+03  0.14856990314E+03  0.92718684238E+02 0.  0.
        -11    1    1    2    0    0 -0.45111243537E+02  0.40526132859E+02  0.12655965569E+03  0.14033794279E+03  0.00000000000E+00 0. -1.
         11    1    1    2    0    0 -0.23903656804E+01 -0.71712292518E+02 -0.25330794781E+02  0.76092154067E+02  0.00000000000E+00 0.  1.
        -15    1    3    3    0    0 -0.10799451708E+01  0.54672564459E+02 -0.53061896080E+02  0.76216652581E+02  0.17770000000E+01 0.  1.
         15    1    3    3    0    0  0.48581554389E+02 -0.23486404799E+02 -0.48166964828E+02  0.72353250563E+02  0.17770000000E+01 0. -1.
</event>
<event>
 7    1  0.1093668E-008  0.1594036E+03  0.7546771E-02  0.1088488E+00
        -11   -1    0    0    0    0  0.00000000000E+00  0.00000000000E+00  0.18250000000E+03  0.18250000000E+03  0.00000000000E+00 0.  1.
         11   -1    0    0    0    0 -0.00000000000E+00 -0.00000000000E+00 -0.18250000000E+03  0.18250000000E+03  0.00000000000E+00 0. -1.
         23    2    1    2    0    0 -0.25378024411E+02 -0.11543447894E+02  0.99490430818E+02  0.13878148056E+03  0.92653430644E+02 0.  0.
        -11    1    1    2    0    0 -0.46600993194E+02 -0.37163525288E+02  0.32723838718E+02  0.67997277879E+02  0.00000000000E+00 0.  1.
         11    1    1    2    0    0  0.71979017605E+02  0.48706973182E+02 -0.13221426954E+03  0.15822124156E+03  0.00000000000E+00 0. -1.
        -15    1    3    3    0    0  0.12047183635E+02 -0.39570852630E+02  0.75718864578E+02  0.86298848158E+02  0.17770000000E+01 0. -1.
         15    1    3    3    0    0 -0.37425208046E+02  0.28027404736E+02  0.23771566240E+02  0.52482632403E+02  0.17770000000E+01 0.  1.
</event>
<event>
 7    1  0.1093668E-008  0.1578859E+03  0.7546771E-02  0.1089933E+00
        -11   -1    0    0    0    0  0.00000000000E+00  0.00000000000E+00  0.18250000000E+03  0.18250000000E+03  0.00000000000E+00 0.  1.
         11   -1    0    0    0    0 -0.00000000000E+00 -0.00000000000E+00 -0.18250000000E+03  0.18250000000E+03  0.00000000000E+00 0. -1.
         23    2    1    2    0    0  0.42329508780E+02  0.70213411852E+02 -0.80271850828E+02  0.14461704504E+03  0.88027320556E+02 0.  0.
        -11    1    1    2    0    0 -0.10986446223E+03 -0.62546717428E+02  0.84857144994E+02  0.15225973525E+03  0.00000000000E+00 0.  1.
         11    1    1    2    0    0  0.67534953449E+02 -0.76666944244E+01 -0.45852941653E+01  0.68123219707E+02  0.00000000000E+00 0. -1.
        -15    1    3    3    0    0  0.36449444740E+02  0.90872551711E+01  0.66359820639E+01  0.38188142339E+02  0.17770000000E+01 0. -1.
         15    1    3    3    0    0  0.58800640398E+01  0.61126156681E+02 -0.86907832892E+02  0.10642890270E+03  0.17770000000E+01 0.  1.
</event>
<event>
 7    1  0.1093668E-008  0.1587681E+03  0.7546771E-02  0.1089091E+00
        -11   -1    0    0    0    0  0.00000000000E+00  0.00000000000E+00  0.18250000000E+03  0.18250000000E+03  0.00000000000E+00 0.  1.
         11   -1    0    0    0    0 -0.00000000000E+00 -0.00000000000E+00 -0.18250000000E+03  0.18250000000E+03  0.00000000000E+00 0.  1.
         23    2    1    2    0    0 -0.70427585140E+02  0.42770252015E+02 -0.10683740248E+03  0.16312156906E+03  0.91679204403E+02 0.  0.
        -11    1    1    2    0    0  0.58353096453E+02 -0.98340070281E+02  0.68524096470E+02  0.13330943360E+03  0.00000000000E+00 0.  1.
         11    1    1    2    0    0  0.12074488688E+02  0.55569818265E+02  0.38313306007E+02  0.68568997340E+02  0.00000000000E+00 0.  1.
        -15    1    3    3    0    0 -0.74532509847E+02  0.49819369650E+02 -0.44271161635E+02  0.10000079049E+03  0.17770000000E+01 0.  1.
         15    1    3    3    0    0  0.41049247066E+01 -0.70491176345E+01 -0.62566240841E+02  0.63120778578E+02  0.17770000000E+01 0. -1.
</event>
<event>
 7    1  0.1093668E-008  0.1572094E+03  0.7546771E-02  0.1090583E+00
        -11   -1    0    0    0    0  0.00000000000E+00  0.00000000000E+00  0.18250000000E+03  0.18250000000E+03  0.00000000000E+00 0.  1.
         11   -1    0    0    0    0 -0.00000000000E+00 -0.00000000000E+00 -0.18250000000E+03  0.18250000000E+03  0.00000000000E+00 0. -1.
         23    2    1    2    0    0 -0.67721652439E+02 -0.90369749647E+02 -0.77046211657E+02  0.16376861305E+03  0.90172756587E+02 0.  0.
        -11    1    1    2    0    0  0.14974642073E+02  0.61998449802E+02  0.11416164823E+03  0.13077052271E+03  0.00000000000E+00 0.  1.
         11    1    1    2    0    0  0.52747010366E+02  0.28371299846E+02 -0.37115436570E+02  0.70460864239E+02  0.00000000000E+00 0. -1.
        -15    1    3    3    0    0 -0.23911534702E+02  0.12486482509E+02 -0.35198813770E+02  0.44382293283E+02  0.17770000000E+01 0.  1.
         15    1    3    3    0    0 -0.43810117736E+02 -0.10285623216E+03 -0.41847397888E+02  0.11938631977E+03  0.17770000000E+01 0. -1.
</event>
<event>
 7    1  0.1093668E-008  0.2175580E+03  0.7546771E-02  0.1043536E+00
        -11   -1    0    0    0    0  0.00000000000E+00  0.00000000000E+00  0.18250000000E+03  0.18250000000E+03  0.00000000000E+00 0.  1.
         11   -1    0    0    0    0 -0.00000000000E+00 -0.00000000000E+00 -0.18250000000E+03  0.18250000000E+03  0.00000000000E+00 0. -1.
         23    2    1    2    0    0  0.33195563297E+01  0.30907094707E+02 -0.32716966180E+02  0.10272940820E+03  0.92285770706E+02 0.  0.
        -11    1    1    2    0    0 -0.81529506936E+02  0.68205932077E+02 -0.43433863683E+02  0.11482861223E+03  0.00000000000E+00 0. -1.
         11    1    1    2    0    0  0.78209950606E+02 -0.99113026785E+02  0.76150829864E+02  0.14744197958E+03  0.00000000000E+00 0.  1.
        -15    1    3    3    0    0 -0.10011636997E+02  0.22207567766E+02 -0.63496186913E+02  0.68031848593E+02  0.17770000000E+01 0.  1.
         15    1    3    3    0    0  0.13331193327E+02  0.86995269412E+01  0.30779220733E+02  0.34697559603E+02  0.17770000000E+01 0. -1.
</event>
<event>
 7    1  0.1093668E-008  0.1505120E+03  0.7546771E-02  0.1097219E+00
        -11   -1    0    0    0    0  0.00000000000E+00  0.00000000000E+00  0.18250000000E+03  0.18250000000E+03  0.00000000000E+00 0. -1.
         11   -1    0    0    0    0 -0.00000000000E+00 -0.00000000000E+00 -0.18250000000E+03  0.18250000000E+03  0.00000000000E+00 0.  1.
         23    2    1    2    0    0 -0.68690434184E+02 -0.31225147632E+02 -0.12236145919E+03  0.16938672080E+03  0.89588776605E+02 0.  0.
        -11    1    1    2    0    0  0.21861986903E+01  0.67377182296E+02  0.92002937712E+02  0.11405702392E+03  0.00000000000E+00 0. -1.
         11    1    1    2    0    0  0.66504235493E+02 -0.36152034664E+02  0.30358521479E+02  0.81556255280E+02  0.00000000000E+00 0.  1.
        -15    1    3    3    0    0 -0.14718221559E+02 -0.18763706004E+02  0.99776747611E+01  0.25911665935E+02  0.17770000000E+01 0.  1.
         15    1    3    3    0    0 -0.53972212624E+02 -0.12461441627E+02 -0.13233913395E+03  0.14347505486E+03  0.17770000000E+01 0. -1.
</event>
<event>
 7    1  0.1093668E-008  0.1703262E+03  0.7546771E-02  0.1078580E+00
        -11   -1    0    0    0    0  0.00000000000E+00  0.00000000000E+00  0.18250000000E+03  0.18250000000E+03  0.00000000000E+00 0.  1.
         11   -1    0    0    0    0 -0.00000000000E+00 -0.00000000000E+00 -0.18250000000E+03  0.18250000000E+03  0.00000000000E+00 0.  1.
         23    2    1    2    0    0  0.89333298095E+02  0.43431555070E+02  0.87712670118E+02  0.15957740258E+03  0.88908361757E+02 0.  0.
        -11    1    1    2    0    0 -0.81573406860E+02 -0.83969193186E+02 -0.10813906028E+03  0.15937095868E+03  0.00000000000E+00 0.  1.
         11    1    1    2    0    0 -0.77598912351E+01  0.40537638116E+02  0.20426390161E+02  0.46051638745E+02  0.00000000000E+00 0.  1.
        -15    1    3    3    0    0  0.30957896094E+02  0.23100474131E+02  0.89727293150E+02  0.97704493759E+02  0.17770000000E+01 0.  1.
         15    1    3    3    0    0  0.58375402001E+02  0.20331080939E+02 -0.20146230320E+01  0.61872908821E+02  0.17770000000E+01 0. -1.
</event>
<event>
 7    1  0.1093668E-008  0.1239894E+03  0.7546771E-02  0.1127794E+00
        -11   -1    0    0    0    0  0.00000000000E+00  0.00000000000E+00  0.18250000000E+03  0.18250000000E+03  0.00000000000E+00 0. -1.
         11   -1    0    0    0    0 -0.00000000000E+00 -0.00000000000E+00 -0.18250000000E+03  0.18250000000E+03  0.00000000000E+00 0.  1.
         23    2    1    2    0    0 -0.53803719815E+02 -0.23490104075E+02 -0.38568554350E+01  0.11013726568E+03  0.93105943434E+02 0.  0.
        -11    1    1    2    0    0  0.12933269292E+03 -0.59088745072E+02  0.11739275627E+02  0.14267528113E+03  0.00000000000E+00 0. -1.
         11    1    1    2    0    0 -0.75528973107E+02  0.82578849147E+02 -0.78824201918E+01  0.11218745319E+03  0.00000000000E+00 0.  1.
        -15    1    3    3    0    0 -0.42728088887E+02  0.14454238564E+01  0.39922297813E+02  0.58521162170E+02  0.17770000000E+01 0. -1.
         15    1    3    3    0    0 -0.11075630928E+02 -0.24935527931E+02 -0.43779153248E+02  0.51616103512E+02  0.17770000000E+01 0.  1.
</event>
<event>
 7    1  0.1093668E-008  0.1831401E+03  0.7546771E-02  0.1067946E+00
        -11   -1    0    0    0    0  0.00000000000E+00  0.00000000000E+00  0.18250000000E+03  0.18250000000E+03  0.00000000000E+00 0.  1.
         11   -1    0    0    0    0 -0.00000000000E+00 -0.00000000000E+00 -0.18250000000E+03  0.18250000000E+03  0.00000000000E+00 0. -1.
         23    2    1    2    0    0  0.56899110784E+01 -0.56065461964E+02 -0.14868359110E+03  0.18314007387E+03  0.90872247040E+02 0.  0.
        -11    1    1    2    0    0 -0.17674393316E+02  0.61818043934E+02  0.47831706185E+02  0.80135677769E+02  0.00000000000E+00 0. -1.
         11    1    1    2    0    0  0.11984482238E+02 -0.57525819700E+01  0.10085188491E+03  0.10172424836E+03  0.00000000000E+00 0.  1.
        -15    1    3    3    0    0 -0.33873908706E+02 -0.15073014455E+02 -0.19473889572E+02  0.41916912575E+02  0.17770000000E+01 0. -1.
         15    1    3    3    0    0  0.39563819784E+02 -0.40992447509E+02 -0.12920970153E+03  0.14122316130E+03  0.17770000000E+01 0.  1.
</event>
<event>
 7    1  0.1093668E-008  0.1448510E+03  0.7546771E-02  0.1103131E+00
        -11   -1    0    0    0    0  0.00000000000E+00  0.00000000000E+00  0.18250000000E+03  0.18250000000E+03  0.00000000000E+00 0.  1.
         11   -1    0    0    0    0 -0.00000000000E+00 -0.00000000000E+00 -0.18250000000E+03  0.18250000000E+03  0.00000000000E+00 0. -1.
         23    2    1    2    0    0  0.10208645403E+02 -0.45180433166E+02 -0.77077364798E+02  0.12921442906E+03  0.92789872993E+02 0.  0.
        -11    1    1    2    0    0  0.33533401731E+02  0.12521030163E+03  0.60665712665E+02  0.14311686609E+03  0.00000000000E+00 0. -1.
         11    1    1    2    0    0 -0.43742047134E+02 -0.80029868464E+02  0.16411652133E+02  0.92668704855E+02  0.00000000000E+00 0.  1.
        -15    1    3    3    0    0  0.43225210623E+02 -0.51857472115E+02 -0.37623960240E+02  0.77306767885E+02  0.17770000000E+01 0. -1.
         15    1    3    3    0    0 -0.33016565220E+02  0.66770389498E+01 -0.39453404558E+02  0.51907661172E+02  0.17770000000E+01 0.  1.
</event>
<event>
 7    1  0.1093668E-008  0.1580721E+03  0.7546771E-02  0.1089755E+00
        -11   -1    0    0    0    0  0.00000000000E+00  0.00000000000E+00  0.18250000000E+03  0.18250000000E+03  0.00000000000E+00 0.  1.
         11   -1    0    0    0    0 -0.00000000000E+00 -0.00000000000E+00 -0.18250000000E+03  0.18250000000E+03  0.00000000000E+00 0. -1.
         23    2    1    2    0    0  0.30128907441E+02 -0.15508004515E+02  0.15535767336E+03  0.18249000215E+03  0.89545211738E+02 0.  0.
        -11    1    1    2    0    0 -0.46630170174E+02 -0.16881766635E+02 -0.47417742154E+02  0.68613475981E+02  0.00000000000E+00 0. -1.
         11    1    1    2    0    0  0.16501262733E+02  0.32389771151E+02 -0.10793993120E+03  0.11389652187E+03  0.00000000000E+00 0.  1.
        -15    1    3    3    0    0 -0.29296953139E+02  0.10057472012E+02  0.50332184005E+02  0.59126564945E+02  0.17770000000E+01 0.  1.
         15    1    3    3    0    0  0.59425860580E+02 -0.25565476527E+02  0.10502548935E+03  0.12336343720E+03  0.17770000000E+01 0. -1.
</event>
<event>
 7    1  0.1093668E-008  0.1517044E+03  0.7546771E-02  0.1096010E+00
        -11   -1    0    0    0    0  0.00000000000E+00  0.00000000000E+00  0.18250000000E+03  0.18250000000E+03  0.00000000000E+00 0.  1.
         11   -1    0    0    0    0 -0.00000000000E+00 -0.00000000000E+00 -0.18250000000E+03  0.18250000000E+03  0.00000000000E+00 0. -1.
         23    2    1    2    0    0 -0.11287761639E+03  0.14213885692E+02 -0.33022325072E+02  0.14964098337E+03  0.91425155856E+02 0.  0.
        -11    1    1    2    0    0  0.84110187192E+02 -0.81585011541E+02  0.66591522420E+02  0.13477784891E+03  0.00000000000E+00 0.  1.
         11    1    1    2    0    0  0.28767429197E+02  0.67371125849E+02 -0.33569197348E+02  0.80581167721E+02  0.00000000000E+00 0. -1.
        -15    1    3    3    0    0 -0.12146192106E+03  0.31928746618E+02 -0.33047034177E+02  0.12987573802E+03  0.17770000000E+01 0.  1.
         15    1    3    3    0    0  0.85843046741E+01 -0.17714860926E+02  0.24709105004E-01  0.19765245354E+02  0.17770000000E+01 0. -1.
</event>
<event>
 7    1  0.1093668E-008  0.1222312E+03  0.7546771E-02  0.1130116E+00
        -11   -1    0    0    0    0  0.00000000000E+00  0.00000000000E+00  0.18250000000E+03  0.18250000000E+03  0.00000000000E+00 0. -1.
         11   -1    0    0    0    0 -0.00000000000E+00 -0.00000000000E+00 -0.18250000000E+03  0.18250000000E+03  0.00000000000E+00 0.  1.
         23    2    1    2    0    0 -0.54496356207E+02 -0.23045615637E+02 -0.46123006220E+01  0.11343666945E+03  0.96672909433E+02 0.  0.
        -11    1    1    2    0    0  0.29742975117E+02  0.41652896471E+02  0.12086581212E+03  0.13125605849E+03  0.00000000000E+00 0. -1.
         11    1    1    2    0    0  0.24753381090E+02 -0.18607280834E+02 -0.11625351149E+03  0.12030727206E+03  0.00000000000E+00 0.  1.
        -15    1    3    3    0    0 -0.35091617937E+02 -0.53633435391E+02 -0.28334905176E+02  0.70099868913E+02  0.17770000000E+01 0.  1.
         15    1    3    3    0    0 -0.19404738270E+02  0.30587819755E+02  0.23722604554E+02  0.43336800534E+02  0.17770000000E+01 0. -1.
</event>
<event>
 7    1  0.1093668E-008  0.1474919E+03  0.7546771E-02  0.1100336E+00
        -11   -1    0    0    0    0  0.00000000000E+00  0.00000000000E+00  0.18250000000E+03  0.18250000000E+03  0.00000000000E+00 0.  1.
         11   -1    0    0    0    0 -0.00000000000E+00 -0.00000000000E+00 -0.18250000000E+03  0.18250000000E+03  0.00000000000E+00 0. -1.
         23    2    1    2    0    0  0.95869399706E+02  0.32408277973E+02  0.90479732655E+02  0.16245499037E+03  0.89240145647E+02 0.  0.
        -11    1    1    2    0    0 -0.67651566173E+01 -0.79615182888E+02 -0.32760493299E+02  0.86357365705E+02  0.00000000000E+00 0.  1.
         11    1    1    2    0    0 -0.89104243088E+02  0.47206904915E+02 -0.57719239356E+02  0.11618764392E+03  0.00000000000E+00 0. -1.
        -15    1    3    3    0    0  0.96092672535E+02  0.44213532224E+02  0.10120542465E+03  0.14640469205E+03  0.17770000000E+01 0.  1.
         15    1    3    3    0    0 -0.22327282924E+00 -0.11805254251E+02 -0.10725691991E+02  0.16050298327E+02  0.17770000000E+01 0. -1.
</event>
<event>
 7    1  0.1093668E-008  0.1891736E+03  0.7546771E-02  0.1063263E+00
        -11   -1    0    0    0    0  0.00000000000E+00  0.00000000000E+00  0.18250000000E+03  0.18250000000E+03  0.00000000000E+00 0.  1.
         11   -1    0    0    0    0 -0.00000000000E+00 -0.00000000000E+00 -0.18250000000E+03  0.18250000000E+03  0.00000000000E+00 0.  1.
         23    2    1    2    0    0  0.35939829266E+02 -0.54753353814E+02  0.15168570496E+03  0.18917359283E+03  0.92133023691E+02 0.  0.
        -11    1    1    2    0    0 -0.21665665720E+02  0.19395457802E+02 -0.12726787808E+03  0.13054768342E+03  0.00000000000E+00 0.  1.
         11    1    1    2    0    0 -0.14274163547E+02  0.35357896012E+02 -0.24417826873E+02  0.45278723751E+02  0.00000000000E+00 0.  1.
        -15    1    3    3    0    0 -0.21725710595E+02  0.15159647296E+00  0.51589359075E+01  0.22400933709E+02  0.17770000000E+01 0. -1.
         15    1    3    3    0    0  0.57665539861E+02 -0.54904950287E+02  0.14652676905E+03  0.16677265912E+03  0.17770000000E+01 0.  1.
</event>
<event>
 7    1  0.1093668E-008  0.1495162E+03  0.7546771E-02  0.1098238E+00
        -11   -1    0    0    0    0  0.00000000000E+00  0.00000000000E+00  0.18250000000E+03  0.18250000000E+03  0.00000000000E+00 0.  1.
         11   -1    0    0    0    0 -0.00000000000E+00 -0.00000000000E+00 -0.18250000000E+03  0.18250000000E+03  0.00000000000E+00 0. -1.
         23    2    1    2    0    0  0.16834229354E+02  0.76367516340E+02 -0.25471336181E+02  0.12336024324E+03  0.91943307622E+02 0.  0.
        -11    1    1    2    0    0 -0.79517155552E+02 -0.12170424558E+03  0.59555092382E+02  0.15710413887E+03  0.00000000000E+00 0.  1.
         11    1    1    2    0    0  0.62682926197E+02  0.45336729245E+02 -0.34083756201E+02  0.84535617890E+02  0.00000000000E+00 0. -1.
        -15    1    3    3    0    0  0.24544113745E+02 -0.19043666902E+01  0.20637472323E+02  0.32173018585E+02  0.17770000000E+01 0.  1.
         15    1    3    3    0    0 -0.77098843903E+01  0.78271883030E+02 -0.46108808504E+02  0.91187224659E+02  0.17770000000E+01 0. -1.
</event>
<event>
 7    1  0.1093668E-008  0.1702205E+03  0.7546771E-02  0.1078672E+00
        -11   -1    0    0    0    0  0.00000000000E+00  0.00000000000E+00  0.18250000000E+03  0.18250000000E+03  0.00000000000E+00 0. -1.
         11   -1    0    0    0    0 -0.00000000000E+00 -0.00000000000E+00 -0.18250000000E+03  0.18250000000E+03  0.00000000000E+00 0.  1.
         23    2    1    2    0    0  0.59359921860E+02 -0.14115824110E+03 -0.23211626029E+02  0.17944402010E+03  0.90620789081E+02 0.  0.
        -11    1    1    2    0    0 -0.78518039297E+02  0.10439176162E+03  0.45703845862E+02  0.13838917557E+03  0.00000000000E+00 0. -1.
         11    1    1    2    0    0  0.19158117438E+02  0.36766479481E+02 -0.22492219833E+02  0.47166804324E+02  0.00000000000E+00 0.  1.
        -15    1    3    3    0    0 -0.12486650714E+02 -0.12405093752E+02  0.19106107730E+02  0.26038507612E+02  0.17770000000E+01 0. -1.
         15    1    3    3    0    0  0.71846572574E+02 -0.12875314735E+03 -0.42317733760E+02  0.15340551249E+03  0.17770000000E+01 0.  1.
</event>
<event>
 7    1  0.1093668E-008  0.1530699E+03  0.7546771E-02  0.1094640E+00
        -11   -1    0    0    0    0  0.00000000000E+00  0.00000000000E+00  0.18250000000E+03  0.18250000000E+03  0.00000000000E+00 0.  1.
         11   -1    0    0    0    0 -0.00000000000E+00 -0.00000000000E+00 -0.18250000000E+03  0.18250000000E+03  0.00000000000E+00 0. -1.
         23    2    1    2    0    0 -0.47433941730E+02  0.58868789000E+02 -0.74388509232E+02  0.13939208781E+03  0.90448829131E+02 0.  0.
        -11    1    1    2    0    0  0.12283643611E+03 -0.40171525593E+02  0.71877180790E+02  0.14788127205E+03  0.00000000000E+00 0.  1.
         11    1    1    2    0    0 -0.75402494379E+02 -0.18697263406E+02  0.25113284422E+01  0.77726640143E+02  0.00000000000E+00 0. -1.
        -15    1    3    3    0    0 -0.47696165562E+02  0.81825401020E+02 -0.57213324868E+02  0.11066545411E+03  0.17770000000E+01 0. -1.
         15    1    3    3    0    0  0.26222383142E+00 -0.22956612020E+02 -0.17175184364E+02  0.28726633700E+02  0.17770000000E+01 0.  1.
</event>
<event>
 7    1  0.1093668E-008  0.1497207E+03  0.7546771E-02  0.1098028E+00
        -11   -1    0    0    0    0  0.00000000000E+00  0.00000000000E+00  0.18250000000E+03  0.18250000000E+03  0.00000000000E+00 0.  1.
         11   -1    0    0    0    0 -0.00000000000E+00 -0.00000000000E+00 -0.18250000000E+03  0.18250000000E+03  0.00000000000E+00 0. -1.
         23    2    1    2    0    0  0.90050582139E+02  0.32826709806E+02 -0.83625427073E+02  0.15569287339E+03  0.89779499621E+02 0.  0.
        -11    1    1    2    0    0 -0.55499497107E+02 -0.10110631431E+03  0.51536923262E+02  0.12632788857E+03  0.00000000000E+00 0.  1.
         11    1    1    2    0    0 -0.34551085032E+02  0.68279604502E+02  0.32088503811E+02  0.82979238033E+02  0.00000000000E+00 0. -1.
        -15    1    3    3    0    0  0.27829827520E+01  0.27687047763E+02  0.80338787112E+01  0.29017555772E+02  0.17770000000E+01 0.  1.
         15    1    3    3    0    0  0.87267599387E+02  0.51396620423E+01 -0.91659305785E+02  0.12667531762E+03  0.17770000000E+01 0. -1.
</event>
<event>
 7    1  0.1093668E-008  0.1280671E+03  0.7546771E-02  0.1122570E+00
        -11   -1    0    0    0    0  0.00000000000E+00  0.00000000000E+00  0.18250000000E+03  0.18250000000E+03  0.00000000000E+00 0.  1.
         11   -1    0    0    0    0 -0.00000000000E+00 -0.00000000000E+00 -0.18250000000E+03  0.18250000000E+03  0.00000000000E+00 0. -1.
         23    2    1    2    0    0 -0.18134231677E+02  0.23461006741E+02 -0.41396889061E+02  0.10385306528E+03  0.90512361301E+02 0.  0.
        -11    1    1    2    0    0  0.92025045707E+02  0.42922136018E+02  0.10269883961E+03  0.14442288758E+03  0.00000000000E+00 0.  1.
         11    1    1    2    0    0 -0.73890814030E+02 -0.66383142758E+02 -0.61301950552E+02  0.11672404715E+03  0.00000000000E+00 0. -1.
        -15    1    3    3    0    0 -0.39406099540E+01 -0.15987048345E+02  0.22177729758E+02  0.27678936898E+02  0.17770000000E+01 0.  1.
         15    1    3    3    0    0 -0.14193621723E+02  0.39448055085E+02 -0.63574618820E+02  0.76174128382E+02  0.17770000000E+01 0. -1.
</event>
<event>
 7    1  0.1093668E-008  0.1274036E+03  0.7546771E-02  0.1123405E+00
        -11   -1    0    0    0    0  0.00000000000E+00  0.00000000000E+00  0.18250000000E+03  0.18250000000E+03  0.00000000000E+00 0.  1.
         11   -1    0    0    0    0 -0.00000000000E+00 -0.00000000000E+00 -0.18250000000E+03  0.18250000000E+03  0.00000000000E+00 0. -1.
         23    2    1    2    0    0  0.15663509478E+02  0.58133298188E+02 -0.57924406813E+02  0.12201003371E+03  0.88917858348E+02 0.  0.
        -11    1    1    2    0    0 -0.84672127247E+02  0.46975848368E+02  0.65693789690E+02  0.11701185182E+03  0.00000000000E+00 0.  1.
         11    1    1    2    0    0  0.69008617769E+02 -0.10510914656E+03 -0.77693828774E+01  0.12597811447E+03  0.00000000000E+00 0. -1.
        -15    1    3    3    0    0  0.33738059273E+02  0.69012405169E+02 -0.63982606876E+02  0.99989501561E+02  0.17770000000E+01 0. -1.
         15    1    3    3    0    0 -0.18074549795E+02 -0.10879106980E+02  0.60582000638E+01  0.22020532146E+02  0.17770000000E+01 0.  1.
</event>
<event>
 7    1  0.1093668E-008  0.1384117E+03  0.7546771E-02  0.1110228E+00
        -11   -1    0    0    0    0  0.00000000000E+00  0.00000000000E+00  0.18250000000E+03  0.18250000000E+03  0.00000000000E+00 0.  1.
         11   -1    0    0    0    0 -0.00000000000E+00 -0.00000000000E+00 -0.18250000000E+03  0.18250000000E+03  0.00000000000E+00 0.  1.
         23    2    1    2    0    0  0.16979823416E+02  0.19782522109E+02  0.10291834589E+03  0.14126559671E+03  0.93188627569E+02 0.  0.
        -11    1    1    2    0    0 -0.10609481450E+03  0.47117405360E+01 -0.57221444583E+02  0.12063417378E+03  0.00000000000E+00 0.  1.
         11    1    1    2    0    0  0.89114991082E+02 -0.24494262645E+02 -0.45696901304E+02  0.10310022952E+03  0.00000000000E+00 0.  1.
        -15    1    3    3    0    0 -0.49905992993E+01  0.33261521189E+02 -0.14843652521E+01  0.33713438602E+02  0.17770000000E+01 0.  1.
         15    1    3    3    0    0  0.21970422716E+02 -0.13478999080E+02  0.10440271114E+03  0.10755215810E+03  0.17770000000E+01 0. -1.
</event>
<event>
 7    1  0.1093668E-008  0.1762895E+03  0.7546771E-02  0.1073509E+00
        -11   -1    0    0    0    0  0.00000000000E+00  0.00000000000E+00  0.18250000000E+03  0.18250000000E+03  0.00000000000E+00 0. -1.
         11   -1    0    0    0    0 -0.00000000000E+00 -0.00000000000E+00 -0.18250000000E+03  0.18250000000E+03  0.00000000000E+00 0. -1.
         23    2    1    2    0    0  0.27030089565E+00  0.29012547162E+02 -0.14327060664E+03  0.17068696426E+03  0.88123618200E+02 0.  0.
        -11    1    1    2    0    0  0.29952727678E+02 -0.19212005705E+02  0.15605823961E+03  0.16006386603E+03  0.00000000000E+00 0. -1.
         11    1    1    2    0    0 -0.30223028574E+02 -0.98005414579E+01 -0.12787632968E+02  0.34249169712E+02  0.00000000000E+00 0. -1.
        -15    1    3    3    0    0 -0.10973571412E+01 -0.31368235360E+02 -0.38106891312E+02  0.49401045300E+02  0.17770000000E+01 0.  1.
         15    1    3    3    0    0  0.13676580368E+01  0.60380782522E+02 -0.10516371533E+03  0.12128591896E+03  0.17770000000E+01 0. -1.
</event>
<event>
 7    1  0.1093668E-008  0.1648435E+03  0.7546771E-02  0.1083448E+00
        -11   -1    0    0    0    0  0.00000000000E+00  0.00000000000E+00  0.18250000000E+03  0.18250000000E+03  0.00000000000E+00 0. -1.
         11   -1    0    0    0    0 -0.00000000000E+00 -0.00000000000E+00 -0.18250000000E+03  0.18250000000E+03  0.00000000000E+00 0.  1.
         23    2    1    2    0    0 -0.12360399312E+02  0.33494312296E+02  0.10692159965E+03  0.14535784853E+03  0.91771603608E+02 0.  0.
        -11    1    1    2    0    0  0.27478793905E+02  0.29128130931E+02  0.41605633100E+02  0.57745656388E+02  0.00000000000E+00 0. -1.
         11    1    1    2    0    0 -0.15118394593E+02 -0.62622443227E+02 -0.14852723275E+03  0.16189649508E+03  0.00000000000E+00 0.  1.
        -15    1    3    3    0    0  0.10438472543E+02  0.22009411790E+02 -0.94629905408E+01  0.26193163905E+02  0.17770000000E+01 0.  1.
         15    1    3    3    0    0 -0.22798871855E+02  0.11484900506E+02  0.11638459020E+03  0.11916468462E+03  0.17770000000E+01 0. -1.
</event>
<event>
 7    1  0.1093668E-008  0.1695092E+03  0.7546771E-02  0.1079293E+00
        -11   -1    0    0    0    0  0.00000000000E+00  0.00000000000E+00  0.18250000000E+03  0.18250000000E+03  0.00000000000E+00 0.  1.
         11   -1    0    0    0    0 -0.00000000000E+00 -0.00000000000E+00 -0.18250000000E+03  0.18250000000E+03  0.00000000000E+00 0. -1.
         23    2    1    2    0    0 -0.78183522730E+02 -0.34857175009E+02 -0.98917952088E+02  0.15861020420E+03  0.89692528974E+02 0.  0.
        -11    1    1    2    0    0  0.58637578360E+02  0.61718222312E+02  0.13356557909E+03  0.15838960976E+03  0.00000000000E+00 0.  1.
         11    1    1    2    0    0  0.19545944370E+02 -0.26861047303E+02 -0.34647627003E+02  0.48000186046E+02  0.00000000000E+00 0. -1.
        -15    1    3    3    0    0 -0.34030506912E+02 -0.24915841118E+02  0.75723045915E+01  0.42887901151E+02  0.17770000000E+01 0.  1.
         15    1    3    3    0    0 -0.44153015818E+02 -0.99413338903E+01 -0.10649025668E+03  0.11572230304E+03  0.17770000000E+01 0. -1.
</event>
<event>
 7    1  0.1093668E-008  0.1526356E+03  0.7546771E-02  0.1095074E+00
        -11   -1    0    0    0    0  0.00000000000E+00  0.00000000000E+00  0.18250000000E+03  0.18250000000E+03  0.00000000000E+00 0.  1.
         11   -1    0    0    0    0 -0.00000000000E+00 -0.00000000000E+00 -0.18250000000E+03  0.18250000000E+03  0.00000000000E+00 0.  1.
         23    2    1    2    0    0 -0.10573450860E+03 -0.91732908108E+01  0.27650732459E+02  0.13919066433E+03  0.85706140133E+02 0.  0.
        -11    1    1    2    0    0  0.13626846097E+03 -0.59699589221E+02 -0.18295549807E+02  0.14989283356E+03  0.00000000000E+00 0.  1.
         11    1    1    2    0    0 -0.30533952368E+02  0.68872880032E+02 -0.93551826519E+01  0.75916502116E+02  0.00000000000E+00 0.  1.
        -15    1    3    3    0    0 -0.35057704143E+02 -0.17093866516E+02  0.51077903152E+02  0.64291156559E+02  0.17770000000E+01 0. -1.
         15    1    3    3    0    0 -0.70676804460E+02  0.79205757049E+01 -0.23427170694E+02  0.74899507768E+02  0.17770000000E+01 0.  1.
</event>
<event>
 7    1  0.1093668E-008  0.1761212E+03  0.7546771E-02  0.1073649E+00
        -11   -1    0    0    0    0  0.00000000000E+00  0.00000000000E+00  0.18250000000E+03  0.18250000000E+03  0.00000000000E+00 0.  1.
         11   -1    0    0    0    0 -0.00000000000E+00 -0.00000000000E+00 -0.18250000000E+03  0.18250000000E+03  0.00000000000E+00 0. -1.
         23    2    1    2    0    0  0.27549398418E+02 -0.37634563871E+02 -0.14030064285E+03  0.17366909017E+03  0.91111759660E+02 0.  0.
        -11    1    1    2    0    0 -0.11092473741E+02  0.69763282282E+02  0.13815746074E+03  0.15516907710E+03  0.00000000000E+00 0.  1.
         11    1    1    2    0    0 -0.16456924677E+02 -0.32128718411E+02  0.21431821002E+01  0.36161832726E+02  0.00000000000E+00 0. -1.
        -15    1    3    3    0    0 -0.96506487645E+01  0.67337489264E+01  0.80781519496E+01  0.14383763906E+02  0.17770000000E+01 0.  1.
         15    1    3    3    0    0  0.37200047182E+02 -0.44368312797E+02 -0.14837879479E+03  0.15928532627E+03  0.17770000000E+01 0. -1.
</event>
<event>
 7    1  0.1093668E-008  0.1870238E+03  0.7546771E-02  0.1064910E+00
        -11   -1    0    0    0    0  0.00000000000E+00  0.00000000000E+00  0.18250000000E+03  0.18250000000E+03  0.00000000000E+00 0. -1.
         11   -1    0    0    0    0 -0.00000000000E+00 -0.00000000000E+00 -0.18250000000E+03  0.18250000000E+03  0.00000000000E+00 0.  1.
         23    2    1    2    0    0 -0.38829554730E+02 -0.17052978534E+02  0.15345861710E+03  0.18363324852E+03  0.91504559458E+02 0.  0.
        -11    1    1    2    0    0  0.51705776844E+02  0.22909254712E+02 -0.15692346129E+03  0.16680315948E+03  0.00000000000E+00 0.  1.
         11    1    1    2    0    0 -0.12876222114E+02 -0.58562761787E+01  0.34648441878E+01  0.14563591997E+02  0.00000000000E+00 0. -1.
        -15    1    3    3    0    0  0.13115057017E+02 -0.40658773172E+02  0.53100496371E+02  0.68175956174E+02  0.17770000000E+01 0.  1.
         15    1    3    3    0    0 -0.51944611747E+02  0.23605794639E+02  0.10035812073E+03  0.11545729235E+03  0.17770000000E+01 0. -1.
</event>
<event>
 7    1  0.1093668E-008  0.1457956E+03  0.7546771E-02  0.1102124E+00
        -11   -1    0    0    0    0  0.00000000000E+00  0.00000000000E+00  0.18250000000E+03  0.18250000000E+03  0.00000000000E+00 0.  1.
         11   -1    0    0    0    0 -0.00000000000E+00 -0.00000000000E+00 -0.18250000000E+03  0.18250000000E+03  0.00000000000E+00 0. -1.
         23    2    1    2    0    0 -0.23131437690E+01 -0.20496027085E+02 -0.99663935624E+02  0.13664426267E+03  0.91177391359E+02 0.  0.
        -11    1    1    2    0    0 -0.85309029026E+02  0.10272180615E+01  0.10865560477E+03  0.13814747937E+03  0.00000000000E+00 0.  1.
         11    1    1    2    0    0  0.87622172795E+02  0.19468809024E+02 -0.89916691420E+01  0.90208257960E+02  0.00000000000E+00 0. -1.
        -15    1    3    3    0    0 -0.30121900763E+02  0.25582081991E+02 -0.39544345684E+02  0.55934647841E+02  0.17770000000E+01 0. -1.
         15    1    3    3    0    0  0.27808756994E+02 -0.46078109076E+02 -0.60119589940E+02  0.80709614825E+02  0.17770000000E+01 0.  1.
</event>
<event>
 7    1  0.1093668E-008  0.1236248E+03  0.7546771E-02  0.1128272E+00
        -11   -1    0    0    0    0  0.00000000000E+00  0.00000000000E+00  0.18250000000E+03  0.18250000000E+03  0.00000000000E+00 0. -1.
         11   -1    0    0    0    0 -0.00000000000E+00 -0.00000000000E+00 -0.18250000000E+03  0.18250000000E+03  0.00000000000E+00 0.  1.
         23    2    1    2    0    0  0.20065467687E+02 -0.53698135956E+02 -0.27908253131E+02  0.10966224590E+03  0.89223454230E+02 0.  0.
        -11    1    1    2    0    0 -0.20067654083E+01  0.13847111469E+03 -0.41199801901E+02  0.14448425654E+03  0.00000000000E+00 0. -1.
         11    1    1    2    0    0 -0.18058702279E+02 -0.84772978732E+02  0.69108055032E+02  0.11085349756E+03  0.00000000000E+00 0.  1.
        -15    1    3    3    0    0  0.53800629087E+02 -0.36561895896E+02 -0.30146614270E+02  0.71716497423E+02  0.17770000000E+01 0. -1.
         15    1    3    3    0    0 -0.33735161400E+02 -0.17136240060E+02  0.22383611389E+01  0.37945748479E+02  0.17770000000E+01 0.  1.
</event>
<event>
 7    1  0.1093668E-008  0.1188820E+03  0.7546771E-02  0.1134661E+00
        -11   -1    0    0    0    0  0.00000000000E+00  0.00000000000E+00  0.18250000000E+03  0.18250000000E+03  0.00000000000E+00 0.  1.
         11   -1    0    0    0    0 -0.00000000000E+00 -0.00000000000E+00 -0.18250000000E+03  0.18250000000E+03  0.00000000000E+00 0. -1.
         23    2    1    2    0    0  0.46150135443E+01 -0.55746527504E+01  0.70763099364E+02  0.11682356057E+03  0.92671208960E+02 0.  0.
        -11    1    1    2    0    0 -0.70914244532E+02 -0.93415728033E+02 -0.21428754415E+02  0.11922466120E+03  0.00000000000E+00 0.  1.
         11    1    1    2    0    0  0.66299230988E+02  0.98990380783E+02 -0.49334344950E+02  0.12895177823E+03  0.00000000000E+00 0. -1.
        -15    1    3    3    0    0 -0.11035147709E+02 -0.17346954813E+02  0.88175625865E+02  0.90558213608E+02  0.17770000000E+01 0.  1.
         15    1    3    3    0    0  0.15650161253E+02  0.11772302062E+02 -0.17412526501E+02  0.26265346966E+02  0.17770000000E+01 0. -1.
</event>
<event>
 7    1  0.1093668E-008  0.1319075E+03  0.7546771E-02  0.1117843E+00
        -11   -1    0    0    0    0  0.00000000000E+00  0.00000000000E+00  0.18250000000E+03  0.18250000000E+03  0.00000000000E+00 0.  1.
         11   -1    0    0    0    0 -0.00000000000E+00 -0.00000000000E+00 -0.18250000000E+03  0.18250000000E+03  0.00000000000E+00 0.  1.
         23    2    1    2    0    0  0.17621353049E+02  0.27806701174E+00  0.73814475553E+02  0.11852301884E+03  0.91041417985E+02 0.  0.
        -11    1    1    2    0    0  0.10577809094E+03  0.24904171561E+02 -0.25790417376E+02  0.11168870987E+03  0.00000000000E+00 0.  1.
         11    1    1    2    0    0 -0.12339944398E+03 -0.25182238572E+02 -0.48024058177E+02  0.13478827130E+03  0.00000000000E+00 0.  1.
        -15    1    3    3    0    0  0.35942880567E+01  0.42408432139E+02  0.56661678623E+02  0.70887922642E+02  0.17770000000E+01 0. -1.
         15    1    3    3    0    0  0.14027064992E+02 -0.42130365127E+02  0.17152796930E+02  0.47635096196E+02  0.17770000000E+01 0.  1.
</event>
<event>
 7    1  0.1093668E-008  0.1655627E+03  0.7546771E-02  0.1082798E+00
        -11   -1    0    0    0    0  0.00000000000E+00  0.00000000000E+00  0.18250000000E+03  0.18250000000E+03  0.00000000000E+00 0.  1.
         11   -1    0    0    0    0 -0.00000000000E+00 -0.00000000000E+00 -0.18250000000E+03  0.18250000000E+03  0.00000000000E+00 0. -1.
         23    2    1    2    0    0  0.85580261387E+02  0.28473172653E+02 -0.79054060809E+02  0.15077269145E+03  0.91368250808E+02 0.  0.
        -11    1    1    2    0    0 -0.88958984111E+02 -0.59897058760E+01  0.13046051221E+03  0.15801747586E+03  0.00000000000E+00 0.  1.
         11    1    1    2    0    0  0.33787227239E+01 -0.22483466777E+02 -0.51406451403E+02  0.56209832693E+02  0.00000000000E+00 0. -1.
        -15    1    3    3    0    0 -0.79249354242E+01 -0.13837138595E+02  0.63368126229E+01  0.17250621125E+02  0.17770000000E+01 0.  1.
         15    1    3    3    0    0  0.93505196812E+02  0.42310311248E+02 -0.85390873432E+02  0.13352207032E+03  0.17770000000E+01 0. -1.
</event>
<event>
 7    1  0.1093668E-008  0.1345968E+03  0.7546771E-02  0.1114637E+00
        -11   -1    0    0    0    0  0.00000000000E+00  0.00000000000E+00  0.18250000000E+03  0.18250000000E+03  0.00000000000E+00 0.  1.
         11   -1    0    0    0    0 -0.00000000000E+00 -0.00000000000E+00 -0.18250000000E+03  0.18250000000E+03  0.00000000000E+00 0. -1.
         23    2    1    2    0    0  0.15832787012E+02 -0.13803823334E+02  0.15073850561E+02  0.94567640147E+02  0.90964800384E+02 0.  0.
        -11    1    1    2    0    0  0.63564797500E+02  0.88836223000E+02 -0.86991959665E+02  0.13964225379E+03  0.00000000000E+00 0. -1.
         11    1    1    2    0    0 -0.79397584513E+02 -0.75032399666E+02  0.71918109104E+02  0.13079010606E+03  0.00000000000E+00 0.  1.
        -15    1    3    3    0    0 -0.29647845053E+02 -0.93955729090E+01  0.33064279616E+02  0.45427698842E+02  0.17770000000E+01 0.  1.
         15    1    3    3    0    0  0.45480632065E+02 -0.44082504246E+01 -0.17990429055E+02  0.49139941304E+02  0.17770000000E+01 0. -1.
</event>
<event>
 7    1  0.1093668E-008  0.1306055E+03  0.7546771E-02  0.1119425E+00
        -11   -1    0    0    0    0  0.00000000000E+00  0.00000000000E+00  0.18250000000E+03  0.18250000000E+03  0.00000000000E+00 0. -1.
         11   -1    0    0    0    0 -0.00000000000E+00 -0.00000000000E+00 -0.18250000000E+03  0.18250000000E+03  0.00000000000E+00 0. -1.
         23    2    1    2    0    0 -0.33948395842E+02 -0.44383011740E+02 -0.80440595791E+02  0.13408711825E+03  0.91576855799E+02 0.  0.
        -11    1    1    2    0    0 -0.76584796158E+02  0.62646471702E+01  0.84121320470E+02  0.11393363579E+03  0.00000000000E+00 0. -1.
         11    1    1    2    0    0  0.11053319200E+03  0.38118364570E+02 -0.36807246786E+01  0.11697924596E+03  0.00000000000E+00 0. -1.
        -15    1    3    3    0    0 -0.29286773265E+02 -0.42144730157E+01  0.12915765798E+02  0.32333444083E+02  0.17770000000E+01 0.  1.
         15    1    3    3    0    0 -0.46616225763E+01 -0.40168538725E+02 -0.93356361589E+02  0.10175367417E+03  0.17770000000E+01 0. -1.
</event>
<event>
 7    1  0.1093668E-008  0.1665084E+03  0.7546771E-02  0.1081948E+00
        -11   -1    0    0    0    0  0.00000000000E+00  0.00000000000E+00  0.18250000000E+03  0.18250000000E+03  0.00000000000E+00 0.  1.
         11   -1    0    0    0    0 -0.00000000000E+00 -0.00000000000E+00 -0.18250000000E+03  0.18250000000E+03  0.00000000000E+00 0.  1.
         23    2    1    2    0    0 -0.10679974199E+03  0.95522470565E+02  0.35860951102E+02  0.17451049539E+03  0.92936418673E+02 0.  0.
        -11    1    1    2    0    0  0.71186797085E+02 -0.11485961700E+03  0.18354175248E+01  0.13514311101E+03  0.00000000000E+00 0.  1.
         11    1    1    2    0    0  0.35612944901E+02  0.19337146434E+02 -0.37696368627E+02  0.55346393599E+02  0.00000000000E+00 0.  1.
        -15    1    3    3    0    0 -0.37878171286E+02 -0.14254691440E+02  0.15066324350E+02  0.43221568070E+02  0.17770000000E+01 0. -1.
         15    1    3    3    0    0 -0.68921570701E+02  0.10977716201E+03  0.20794626753E+02  0.13128892732E+03  0.17770000000E+01 0.  1.
</event>
<event>
 7    1  0.1093668E-008  0.1305269E+03  0.7546771E-02  0.1119521E+00
        -11   -1    0    0    0    0  0.00000000000E+00  0.00000000000E+00  0.18250000000E+03  0.18250000000E+03  0.00000000000E+00 0.  1.
         11   -1    0    0    0    0 -0.00000000000E+00 -0.00000000000E+00 -0.18250000000E+03  0.18250000000E+03  0.00000000000E+00 0. -1.
         23    2    1    2    0    0  0.14985099746E+02 -0.57844930130E+01 -0.38106516119E+02  0.10069100203E+03  0.91807176978E+02 0.  0.
        -11    1    1    2    0    0  0.11728196259E+03 -0.34677425525E+02  0.28997518172E+02  0.12569184003E+03  0.00000000000E+00 0.  1.
         11    1    1    2    0    0 -0.13226706234E+03  0.40461918538E+02  0.91089979474E+01  0.13861715794E+03  0.00000000000E+00 0. -1.
        -15    1    3    3    0    0  0.25473684809E+02 -0.14590998284E+02  0.23443515778E+02  0.37610663511E+02  0.17770000000E+01 0.  1.
         15    1    3    3    0    0 -0.10488585064E+02  0.88065052711E+01 -0.61550031898E+02  0.63080338516E+02  0.17770000000E+01 0. -1.
</event>
<event>
 7    1  0.1093668E-008  0.1297960E+03  0.7546771E-02  0.1120419E+00
        -11   -1    0    0    0    0  0.00000000000E+00  0.00000000000E+00  0.18250000000E+03  0.18250000000E+03  0.00000000000E+00 0. -1.
         11   -1    0    0    0    0 -0.00000000000E+00 -0.00000000000E+00 -0.18250000000E+03  0.18250000000E+03  0.00000000000E+00 0.  1.
         23    2    1    2    0    0 -0.11695101778E+02 -0.22826457219E+01 -0.42656783183E+02  0.10165691501E+03  0.91501592007E+02 0.  0.
        -11    1    1    2    0    0 -0.99683707630E+01 -0.12643425823E+03  0.27674709648E+01  0.12685680497E+03  0.00000000000E+00 0. -1.
         11    1    1    2    0    0  0.21663472541E+02  0.12871690396E+03  0.39889312219E+02  0.13648628003E+03  0.00000000000E+00 0.  1.
        -15    1    3    3    0    0  0.34983112523E+02 -0.87743803443E+01  0.27173039278E+01  0.36212558344E+02  0.17770000000E+01 0. -1.
         15    1    3    3    0    0 -0.46678214300E+02  0.64917346224E+01 -0.45374087111E+02  0.65444356662E+02  0.17770000000E+01 0.  1.
</event>
<event>
 7    1  0.1093668E-008  0.1368099E+03  0.7546771E-02  0.1112060E+00
        -11   -1    0    0    0    0  0.00000000000E+00  0.00000000000E+00  0.18250000000E+03  0.18250000000E+03  0.00000000000E+00 0.  1.
         11   -1    0    0    0    0 -0.00000000000E+00 -0.00000000000E+00 -0.18250000000E+03  0.18250000000E+03  0.00000000000E+00 0. -1.
         23    2    1    2    0    0  0.32113161029E+02 -0.15956120701E+02  0.62199825661E+01  0.88970428532E+02  0.81186181527E+02 0.  0.
        -11    1    1    2    0    0  0.46209104183E+02  0.82785828315E+02 -0.99257249689E+02  0.13726170732E+03  0.00000000000E+00 0. -1.
         11    1    1    2    0    0 -0.78322265213E+02 -0.66829707614E+02  0.93037267123E+02  0.13876786415E+03  0.00000000000E+00 0.  1.
        -15    1    3    3    0    0  0.31038551002E+02  0.29696132722E+02  0.46518924003E+01  0.43244072182E+02  0.17770000000E+01 0. -1.
         15    1    3    3    0    0  0.10746100273E+01 -0.45652253423E+02  0.15680901658E+01  0.45726356350E+02  0.17770000000E+01 0.  1.
</event>
<event>
 7    1  0.1093668E-008  0.1729421E+03  0.7546771E-02  0.1076328E+00
        -11   -1    0    0    0    0  0.00000000000E+00  0.00000000000E+00  0.18250000000E+03  0.18250000000E+03  0.00000000000E+00 0.  1.
         11   -1    0    0    0    0 -0.00000000000E+00 -0.00000000000E+00 -0.18250000000E+03  0.18250000000E+03  0.00000000000E+00 0.  1.
         23    2    1    2    0    0  0.11801591518E+02 -0.10167806982E+03 -0.92789616669E+02  0.16623187881E+03  0.92441425391E+02 0.  0.
        -11    1    1    2    0    0  0.34945332288E+02  0.90520912744E+01 -0.23381984102E+02  0.43009694090E+02  0.00000000000E+00 0.  1.
         11    1    1    2    0    0 -0.46746923806E+02  0.92625978541E+02  0.11617160077E+03  0.15575842710E+03  0.00000000000E+00 0.  1.
        -15    1    3    3    0    0 -0.89218449437E+01  0.13610472435E+02  0.64727509767E+00  0.16383557952E+02  0.17770000000E+01 0. -1.
         15    1    3    3    0    0  0.20723436462E+02 -0.11528854225E+03 -0.93436891766E+02  0.14984832086E+03  0.17770000000E+01 0.  1.
</event>
<event>
 7    1  0.1093668E-008  0.1737378E+03  0.7546771E-02  0.1075652E+00
        -11   -1    0    0    0    0  0.00000000000E+00  0.00000000000E+00  0.18250000000E+03  0.18250000000E+03  0.00000000000E+00 0.  1.
         11   -1    0    0    0    0 -0.00000000000E+00 -0.00000000000E+00 -0.18250000000E+03  0.18250000000E+03  0.00000000000E+00 0. -1.
         23    2    1    2    0    0  0.14103902943E+03 -0.10212507771E+02  0.62243020472E+02  0.17990132724E+03  0.92162849385E+02 0.  0.
        -11    1    1    2    0    0 -0.18782933212E+02 -0.36704684877E+02 -0.29090424167E+01  0.41333944885E+02  0.00000000000E+00 0.  1.
         11    1    1    2    0    0 -0.12225609622E+03  0.46917192648E+02 -0.59333978055E+02  0.14376472788E+03  0.00000000000E+00 0. -1.
        -15    1    3    3    0    0  0.10655837176E+03  0.18409413047E+02  0.76917488359E+02  0.13271416965E+03  0.17770000000E+01 0.  1.
         15    1    3    3    0    0  0.34480657674E+02 -0.28621920818E+02 -0.14674467887E+02  0.47187157593E+02  0.17770000000E+01 0. -1.
</event>
<event>
 7    1  0.1093668E-008  0.1252971E+03  0.7546771E-02  0.1126095E+00
        -11   -1    0    0    0    0  0.00000000000E+00  0.00000000000E+00  0.18250000000E+03  0.18250000000E+03  0.00000000000E+00 0.  1.
         11   -1    0    0    0    0 -0.00000000000E+00 -0.00000000000E+00 -0.18250000000E+03  0.18250000000E+03  0.00000000000E+00 0.  1.
         23    2    1    2    0    0 -0.16502626443E+02  0.32673186350E+02  0.58119655730E+02  0.10516315572E+03  0.79633668469E+02 0.  0.
        -11    1    1    2    0    0  0.73076955572E+02  0.33215510354E+02 -0.12614655196E+03  0.14952078162E+03  0.00000000000E+00 0.  1.
         11    1    1    2    0    0 -0.56574329129E+02 -0.65888696704E+02  0.68026896231E+02  0.11031606266E+03  0.00000000000E+00 0.  1.
        -15    1    3    3    0    0  0.18094765280E+02 -0.16163130957E+02  0.31069335355E+02  0.39460469603E+02  0.17770000000E+01 0. -1.
         15    1    3    3    0    0 -0.34597391722E+02  0.48836317307E+02  0.27050320375E+02  0.65702686121E+02  0.17770000000E+01 0.  1.
</event>
<event>
 7    1  0.1093668E-008  0.1400375E+03  0.7546771E-02  0.1108397E+00
        -11   -1    0    0    0    0  0.00000000000E+00  0.00000000000E+00  0.18250000000E+03  0.18250000000E+03  0.00000000000E+00 0.  1.
         11   -1    0    0    0    0 -0.00000000000E+00 -0.00000000000E+00 -0.18250000000E+03  0.18250000000E+03  0.00000000000E+00 0. -1.
         23    2    1    2    0    0 -0.73724620476E+02  0.19609067074E+02 -0.53440700540E+02  0.12902417267E+03  0.89283220609E+02 0.  0.
        -11    1    1    2    0    0  0.16359074474E+02 -0.51265294082E+02  0.12672235829E+03  0.13767463741E+03  0.00000000000E+00 0.  1.
         11    1    1    2    0    0  0.57365546002E+02  0.31656227009E+02 -0.73281657754E+02  0.98301189920E+02  0.00000000000E+00 0. -1.
        -15    1    3    3    0    0 -0.69767208264E+02  0.10901506337E+02  0.40155216501E+01  0.70750182561E+02  0.17770000000E+01 0.  1.
         15    1    3    3    0    0 -0.39574122120E+01  0.87075607369E+01 -0.57456222190E+02  0.58273990105E+02  0.17770000000E+01 0. -1.
</event>
<event>
 7    1  0.1093668E-008  0.1842052E+03  0.7546771E-02  0.1067106E+00
        -11   -1    0    0    0    0  0.00000000000E+00  0.00000000000E+00  0.18250000000E+03  0.18250000000E+03  0.00000000000E+00 0.  1.
         11   -1    0    0    0    0 -0.00000000000E+00 -0.00000000000E+00 -0.18250000000E+03  0.18250000000E+03  0.00000000000E+00 0. -1.
         23    2    1    2    0    0 -0.15546109913E+02  0.57715318888E+02 -0.14668300925E+03  0.18148508484E+03  0.88590017765E+02 0.  0.
        -11    1    1    2    0    0 -0.18163516743E+01 -0.59378580705E+02  0.15364888854E+03  0.16473340866E+03  0.00000000000E+00 0.  1.
         11    1    1    2    0    0  0.17362461587E+02  0.16632618168E+01 -0.69658792891E+01  0.18781506503E+02  0.00000000000E+00 0. -1.
        -15    1    3    3    0    0 -0.13379561620E+01  0.13472755889E+02  0.10717663283E+02  0.17358897235E+02  0.17770000000E+01 0.  1.
         15    1    3    3    0    0 -0.14208153751E+02  0.44242562999E+02 -0.15740067253E+03  0.16412618760E+03  0.17770000000E+01 0. -1.
</event>
<event>
 7    1  0.1093668E-008  0.1292403E+03  0.7546771E-02  0.1121107E+00
        -11   -1    0    0    0    0  0.00000000000E+00  0.00000000000E+00  0.18250000000E+03  0.18250000000E+03  0.00000000000E+00 0. -1.
         11   -1    0    0    0    0 -0.00000000000E+00 -0.00000000000E+00 -0.18250000000E+03  0.18250000000E+03  0.00000000000E+00 0.  1.
         23    2    1    2    0    0  0.11824034525E+01  0.42286206307E+02  0.17535735669E+02  0.10249428896E+03  0.91695452022E+02 0.  0.
        -11    1    1    2    0    0 -0.65757711897E+02 -0.10888076262E+02 -0.12006990274E+03  0.13732956136E+03  0.00000000000E+00 0.  1.
         11    1    1    2    0    0  0.64575308445E+02 -0.31398130045E+02  0.10253416708E+03  0.12517614968E+03  0.00000000000E+00 0. -1.
        -15    1    3    3    0    0 -0.10742966736E+01  0.66981148982E+02 -0.72303702442E+01  0.67402258234E+02  0.17770000000E+01 0.  1.
         15    1    3    3    0    0  0.22567001260E+01 -0.24694942674E+02  0.24766105913E+02  0.35092030723E+02  0.17770000000E+01 0. -1.
</event>
<event>
 7    1  0.1093668E-008  0.1803428E+03  0.7546771E-02  0.1070185E+00
        -11   -1    0    0    0    0  0.00000000000E+00  0.00000000000E+00  0.18250000000E+03  0.18250000000E+03  0.00000000000E+00 0.  1.
         11   -1    0    0    0    0 -0.00000000000E+00 -0.00000000000E+00 -0.18250000000E+03  0.18250000000E+03  0.00000000000E+00 0.  1.
         23    2    1    2    0    0 -0.43006359229E+02 -0.51484134154E+02 -0.13585655088E+03  0.17705272907E+03  0.91599691326E+02 0.  0.
        -11    1    1    2    0    0  0.58508470989E+02  0.73946466300E+02  0.12903273721E+03  0.15981479383E+03  0.00000000000E+00 0.  1.
         11    1    1    2    0    0 -0.15502111760E+02 -0.22462332146E+02  0.68238136732E+01  0.28132477095E+02  0.00000000000E+00 0.  1.
        -15    1    3    3    0    0 -0.58878532508E+02 -0.48465129293E+02 -0.14073841980E+03  0.16008126337E+03  0.17770000000E+01 0.  1.
         15    1    3    3    0    0  0.15872173279E+02 -0.30190048605E+01  0.48818689128E+01  0.16971465700E+02  0.17770000000E+01 0. -1.
</event>
<event>
 7    1  0.1093668E-008  0.1766387E+03  0.7546771E-02  0.1073219E+00
        -11   -1    0    0    0    0  0.00000000000E+00  0.00000000000E+00  0.18250000000E+03  0.18250000000E+03  0.00000000000E+00 0.  1.
         11   -1    0    0    0    0 -0.00000000000E+00 -0.00000000000E+00 -0.18250000000E+03  0.18250000000E+03  0.00000000000E+00 0. -1.
         23    2    1    2    0    0  0.49329143492E+02 -0.18343865426E+02 -0.13500365896E+03  0.17167827020E+03  0.92073767872E+02 0.  0.
        -11    1    1    2    0    0 -0.83945317425E+02  0.99203414779E+01  0.13306377508E+03  0.15764262663E+03  0.00000000000E+00 0.  1.
         11    1    1    2    0    0  0.34616173933E+02  0.84235239483E+01  0.19398838725E+01  0.35679103169E+02  0.00000000000E+00 0. -1.
        -15    1    3    3    0    0  0.68886315157E+02  0.10659857339E+02 -0.10197344373E+03  0.12353419741E+03  0.17770000000E+01 0.  1.
         15    1    3    3    0    0 -0.19557171665E+02 -0.29003722765E+02 -0.33030215226E+02  0.48144072788E+02  0.17770000000E+01 0. -1.
</event>
<event>
 7    1  0.1093668E-008  0.2077462E+03  0.7546771E-02  0.1049965E+00
        -11   -1    0    0    0    0  0.00000000000E+00  0.00000000000E+00  0.18250000000E+03  0.18250000000E+03  0.00000000000E+00 0.  1.
         11   -1    0    0    0    0 -0.00000000000E+00 -0.00000000000E+00 -0.18250000000E+03  0.18250000000E+03  0.00000000000E+00 0.  1.
         23    2    1    2    0    0 -0.72862648584E+02  0.15175834004E+02  0.39013806993E+02  0.11911716098E+03  0.84424815116E+02 0.  0.
        -11    1    1    2    0    0  0.11147288035E+03 -0.91238884231E+02 -0.63071499952E+02  0.15725377947E+03  0.00000000000E+00 0.  1.
         11    1    1    2    0    0 -0.38610231769E+02  0.76063050227E+02  0.24057692959E+02  0.88629059555E+02  0.00000000000E+00 0.  1.
        -15    1    3    3    0    0 -0.43163086754E+02  0.38647213097E+02 -0.82376047052E+01  0.58546349148E+02  0.17770000000E+01 0. -1.
         15    1    3    3    0    0 -0.29699561830E+02 -0.23471379093E+02  0.47251411699E+02  0.60570811832E+02  0.17770000000E+01 0.  1.
</event>
<event>
 7    1  0.1093668E-008  0.1760632E+03  0.7546771E-02  0.1073697E+00
        -11   -1    0    0    0    0  0.00000000000E+00  0.00000000000E+00  0.18250000000E+03  0.18250000000E+03  0.00000000000E+00 0. -1.
         11   -1    0    0    0    0 -0.00000000000E+00 -0.00000000000E+00 -0.18250000000E+03  0.18250000000E+03  0.00000000000E+00 0.  1.
         23    2    1    2    0    0  0.10020754899E+03  0.17910212991E+02  0.11915907673E+03  0.18337525287E+03  0.95211707237E+02 0.  0.
        -11    1    1    2    0    0 -0.75646756628E+02  0.11759501057E+02 -0.12086533340E+03  0.14307042487E+03  0.00000000000E+00 0.  1.
         11    1    1    2    0    0 -0.24560792365E+02 -0.29669714048E+02  0.17062566746E+01  0.38554322263E+02  0.00000000000E+00 0. -1.
        -15    1    3    3    0    0  0.96276171850E+02 -0.13092757530E+02  0.11686370021E+03  0.15198948556E+03  0.17770000000E+01 0. -1.
         15    1    3    3    0    0  0.39313771423E+01  0.31002970521E+02  0.22953765198E+01  0.31385767312E+02  0.17770000000E+01 0.  1.
</event>
<event>
 7    1  0.1093668E-008  0.1633196E+03  0.7546771E-02  0.1084838E+00
        -11   -1    0    0    0    0  0.00000000000E+00  0.00000000000E+00  0.18250000000E+03  0.18250000000E+03  0.00000000000E+00 0.  1.
         11   -1    0    0    0    0 -0.00000000000E+00 -0.00000000000E+00 -0.18250000000E+03  0.18250000000E+03  0.00000000000E+00 0. -1.
         23    2    1    2    0    0 -0.48887021251E+02  0.13631866892E+03 -0.61977973636E+01  0.16785477493E+03  0.84640961915E+02 0.  0.
        -11    1    1    2    0    0  0.94699425489E+02 -0.10365717742E+03 -0.11302085361E+01  0.14040679823E+03  0.00000000000E+00 0.  1.
         11    1    1    2    0    0 -0.45812404238E+02 -0.32661491496E+02  0.73280058997E+01  0.56738426831E+02  0.00000000000E+00 0. -1.
        -15    1    3    3    0    0 -0.36647608520E+02  0.14610386124E+03  0.69904448129E+00  0.15064206541E+03  0.17770000000E+01 0. -1.
         15    1    3    3    0    0 -0.12239412732E+02 -0.97851923198E+01 -0.68968418449E+01  0.17212709525E+02  0.17770000000E+01 0.  1.
</event>
<event>
 7    1  0.1093668E-008  0.1421123E+03  0.7546771E-02  0.1106099E+00
        -11   -1    0    0    0    0  0.00000000000E+00  0.00000000000E+00  0.18250000000E+03  0.18250000000E+03  0.00000000000E+00 0.  1.
         11   -1    0    0    0    0 -0.00000000000E+00 -0.00000000000E+00 -0.18250000000E+03  0.18250000000E+03  0.00000000000E+00 0. -1.
         23    2    1    2    0    0 -0.82449413721E+02 -0.19929760093E+02  0.22335598006E+02  0.13170606653E+03  0.98247177382E+02 0.  0.
        -11    1    1    2    0    0  0.34610430299E+02 -0.52323490070E+02  0.78403301477E+02  0.10041268436E+03  0.00000000000E+00 0.  1.
         11    1    1    2    0    0  0.47838983421E+02  0.72253250163E+02 -0.10073889948E+03  0.13288124910E+03  0.00000000000E+00 0. -1.
        -15    1    3    3    0    0 -0.48649394471E+01  0.26302943021E+02  0.30970817196E+02  0.40961710099E+02  0.17770000000E+01 0.  1.
         15    1    3    3    0    0 -0.77584474274E+02 -0.46232703114E+02 -0.86352191904E+01  0.90744356436E+02  0.17770000000E+01 0. -1.
</event>
<event>
 7    1  0.1093668E-008  0.1542870E+03  0.7546771E-02  0.1093433E+00
        -11   -1    0    0    0    0  0.00000000000E+00  0.00000000000E+00  0.18250000000E+03  0.18250000000E+03  0.00000000000E+00 0.  1.
         11   -1    0    0    0    0 -0.00000000000E+00 -0.00000000000E+00 -0.18250000000E+03  0.18250000000E+03  0.00000000000E+00 0. -1.
         23    2    1    2    0    0 -0.12700553371E+03 -0.42660670664E+02  0.17506064130E+02  0.15926331210E+03  0.84308966807E+02 0.  0.
        -11    1    1    2    0    0  0.85528555403E+02  0.10167124025E+03 -0.11252428847E+02  0.13333713675E+03  0.00000000000E+00 0.  1.
         11    1    1    2    0    0  0.41476978308E+02 -0.59010569585E+02 -0.62536352825E+01  0.72399551149E+02  0.00000000000E+00 0. -1.
        -15    1    3    3    0    0 -0.65754003328E+02  0.21854485277E+02  0.69455768860E+01  0.69660650640E+02  0.17770000000E+01 0. -1.
         15    1    3    3    0    0 -0.61251530383E+02 -0.64515155941E+02  0.10560487244E+02  0.89602661457E+02  0.17770000000E+01 0.  1.
</event>
<event>
 7    1  0.1093668E-008  0.1476585E+03  0.7546771E-02  0.1100162E+00
        -11   -1    0    0    0    0  0.00000000000E+00  0.00000000000E+00  0.18250000000E+03  0.18250000000E+03  0.00000000000E+00 0.  1.
         11   -1    0    0    0    0 -0.00000000000E+00 -0.00000000000E+00 -0.18250000000E+03  0.18250000000E+03  0.00000000000E+00 0.  1.
         23    2    1    2    0    0  0.25950665978E+02 -0.59777895448E+02  0.48446747431E+02  0.12254462724E+03  0.91778344292E+02 0.  0.
        -11    1    1    2    0    0 -0.23345918736E+02 -0.83762909573E+02  0.98388787609E+01  0.87510344971E+02  0.00000000000E+00 0.  1.
         11    1    1    2    0    0 -0.26047472419E+01  0.14354080502E+03 -0.58285626192E+02  0.15494502778E+03  0.00000000000E+00 0.  1.
        -15    1    3    3    0    0 -0.25207884468E+02 -0.27292616986E+01 -0.87788176820E+01  0.26890735908E+02  0.17770000000E+01 0.  1.
         15    1    3    3    0    0  0.51158550446E+02 -0.57048633750E+02  0.57225565113E+02  0.95653891337E+02  0.17770000000E+01 0. -1.
</event>
<event>
 7    1  0.1093668E-008  0.1266108E+03  0.7546771E-02  0.1124411E+00
        -11   -1    0    0    0    0  0.00000000000E+00  0.00000000000E+00  0.18250000000E+03  0.18250000000E+03  0.00000000000E+00 0. -1.
         11   -1    0    0    0    0 -0.00000000000E+00 -0.00000000000E+00 -0.18250000000E+03  0.18250000000E+03  0.00000000000E+00 0.  1.
         23    2    1    2    0    0  0.15288693224E+02 -0.20062395946E+02  0.86414933040E+02  0.12722400854E+03  0.89900855531E+02 0.  0.
        -11    1    1    2    0    0 -0.65617019683E+02 -0.82863702203E+02 -0.54076770454E+02  0.11872777063E+03  0.00000000000E+00 0.  1.
         11    1    1    2    0    0  0.50328326459E+02  0.10292609815E+03 -0.32338162586E+02  0.11904822083E+03  0.00000000000E+00 0. -1.
        -15    1    3    3    0    0  0.46220666022E+02 -0.34109405175E+02  0.66142784333E+02  0.87623211179E+02  0.17770000000E+01 0. -1.
         15    1    3    3    0    0 -0.30931972798E+02  0.14047009229E+02  0.20272148707E+02  0.39600797361E+02  0.17770000000E+01 0.  1.
</event>
<event>
 7    1  0.1093668E-008  0.1877970E+03  0.7546771E-02  0.1064315E+00
        -11   -1    0    0    0    0  0.00000000000E+00  0.00000000000E+00  0.18250000000E+03  0.18250000000E+03  0.00000000000E+00 0.  1.
         11   -1    0    0    0    0 -0.00000000000E+00 -0.00000000000E+00 -0.18250000000E+03  0.18250000000E+03  0.00000000000E+00 0.  1.
         23    2    1    2    0    0 -0.74943515086E+02  0.10169672533E+03  0.10061779947E+03  0.18779699636E+03  0.95838488483E+02 0.  0.
        -11    1    1    2    0    0  0.27714247379E+02  0.50929746591E+01 -0.27842640805E+02  0.39613514684E+02  0.00000000000E+00 0.  1.
         11    1    1    2    0    0  0.47229267708E+02 -0.10678969999E+03 -0.72775158665E+02  0.13758948896E+03  0.00000000000E+00 0.  1.
        -15    1    3    3    0    0 -0.54684623403E+02  0.22168139045E+02  0.14357271754E+01  0.59051278284E+02  0.17770000000E+01 0.  1.
         15    1    3    3    0    0 -0.20258891683E+02  0.79528586288E+02  0.99182072294E+02  0.12874571808E+03  0.17770000000E+01 0. -1.
</event>
<event>
 7    1  0.1093668E-008  0.1588265E+03  0.7546771E-02  0.1089035E+00
        -11   -1    0    0    0    0  0.00000000000E+00  0.00000000000E+00  0.18250000000E+03  0.18250000000E+03  0.00000000000E+00 0. -1.
         11   -1    0    0    0    0 -0.00000000000E+00 -0.00000000000E+00 -0.18250000000E+03  0.18250000000E+03  0.00000000000E+00 0. -1.
         23    2    1    2    0    0 -0.33243411761E+02  0.10737836639E+02  0.11325536050E+03  0.14608659471E+03  0.85405450119E+02 0.  0.
        -11    1    1    2    0    0 -0.49278377525E+02  0.42233020453E+02  0.52333815213E+01  0.65110481416E+02  0.00000000000E+00 0. -1.
         11    1    1    2    0    0  0.82521789286E+02 -0.52970857093E+02 -0.11848874202E+03  0.15380292388E+03  0.00000000000E+00 0. -1.
        -15    1    3    3    0    0 -0.25960194789E+02 -0.36208374647E+02  0.58903946725E+02  0.73876997617E+02  0.17770000000E+01 0.  1.
         15    1    3    3    0    0 -0.72832169720E+01  0.46946211287E+02  0.54351413773E+02  0.72209597089E+02  0.17770000000E+01 0. -1.
</event>
<event>
 7    1  0.1093668E-008  0.1644218E+03  0.7546771E-02  0.1083831E+00
        -11   -1    0    0    0    0  0.00000000000E+00  0.00000000000E+00  0.18250000000E+03  0.18250000000E+03  0.00000000000E+00 0.  1.
         11   -1    0    0    0    0 -0.00000000000E+00 -0.00000000000E+00 -0.18250000000E+03  0.18250000000E+03  0.00000000000E+00 0. -1.
         23    2    1    2    0    0 -0.61604238412E+02  0.62466977111E+02 -0.85807455428E+02  0.15185697867E+03  0.89445050980E+02 0.  0.
        -11    1    1    2    0    0 -0.45056914035E+02 -0.27347092940E+02 -0.22334407992E+02  0.57243469278E+02  0.00000000000E+00 0. -1.
         11    1    1    2    0    0  0.10666115245E+03 -0.35119884171E+02  0.10814186342E+03  0.15589955205E+03  0.00000000000E+00 0.  1.
        -15    1    3    3    0    0  0.18880090700E+01 -0.19529732243E+02 -0.24254007651E+02  0.31247234052E+02  0.17770000000E+01 0.  1.
         15    1    3    3    0    0 -0.63492247482E+02  0.81996709354E+02 -0.61553447777E+02  0.12060974462E+03  0.17770000000E+01 0. -1.
</event>
<event>
 7    1  0.1093668E-008  0.1639802E+03  0.7546771E-02  0.1084234E+00
        -11   -1    0    0    0    0  0.00000000000E+00  0.00000000000E+00  0.18250000000E+03  0.18250000000E+03  0.00000000000E+00 0.  1.
         11   -1    0    0    0    0 -0.00000000000E+00 -0.00000000000E+00 -0.18250000000E+03  0.18250000000E+03  0.00000000000E+00 0. -1.
         23    2    1    2    0    0  0.83833537009E+02 -0.24002274792E+02  0.91823039021E+02  0.15677029319E+03  0.92419063012E+02 0.  0.
        -11    1    1    2    0    0 -0.13171900079E+03  0.36212208015E+02 -0.58370499062E+02  0.14855414615E+03  0.00000000000E+00 0. -1.
         11    1    1    2    0    0  0.47885463779E+02 -0.12209933223E+02 -0.33452539958E+02  0.59675560662E+02  0.00000000000E+00 0.  1.
        -15    1    3    3    0    0  0.42677322430E+02 -0.13237862562E+02 -0.10506445663E+02  0.45936238249E+02  0.17770000000E+01 0. -1.
         15    1    3    3    0    0  0.41156214580E+02 -0.10764412230E+02  0.10232948468E+03  0.11083405494E+03  0.17770000000E+01 0.  1.
</event>
<event>
 7    1  0.1211927E-008  0.1572342E+03  0.7546771E-02  0.1090559E+00
        -11   -1    0    0    0    0  0.00000000000E+00  0.00000000000E+00  0.18250000000E+03  0.18250000000E+03  0.00000000000E+00 0.  1.
         11   -1    0    0    0    0 -0.00000000000E+00 -0.00000000000E+00 -0.18250000000E+03  0.18250000000E+03  0.00000000000E+00 0. -1.
         23    2    1    2    0    0  0.51929378478E+02  0.18034447764E+02 -0.10120125143E+03  0.14577648733E+03  0.89371076490E+02 0.  0.
        -11    1    1    2    0    0 -0.52045852714E+02  0.44503805675E+02  0.13260522933E+03  0.14924311157E+03  0.00000000000E+00 0.  1.
         11    1    1    2    0    0  0.11647423537E+00 -0.62538253439E+02 -0.31403977907E+02  0.69980401098E+02  0.00000000000E+00 0. -1.
        -15    1    3    3    0    0  0.64376677777E+02  0.26229717842E+02 -0.10866847941E+03  0.12901298727E+03  0.17770000000E+01 0. -1.
         15    1    3    3    0    0 -0.12447299299E+02 -0.81952700773E+01  0.74672279800E+01  0.16763500058E+02  0.17770000000E+01 0.  1.
</event>
<event>
 7    1  0.1093668E-008  0.1310465E+03  0.7546771E-02  0.1118887E+00
        -11   -1    0    0    0    0  0.00000000000E+00  0.00000000000E+00  0.18250000000E+03  0.18250000000E+03  0.00000000000E+00 0. -1.
         11   -1    0    0    0    0 -0.00000000000E+00 -0.00000000000E+00 -0.18250000000E+03  0.18250000000E+03  0.00000000000E+00 0.  1.
         23    2    1    2    0    0 -0.61950474248E+02  0.53159789579E+02  0.28438771914E+01  0.12050781645E+03  0.88601476850E+02 0.  0.
        -11    1    1    2    0    0 -0.30413233476E+02 -0.43701680794E+02 -0.98009222528E+02  0.11153747969E+03  0.00000000000E+00 0.  1.
         11    1    1    2    0    0  0.92363707724E+02 -0.94581087855E+01  0.95165345337E+02  0.13295470386E+03  0.00000000000E+00 0. -1.
        -15    1    3    3    0    0 -0.38830259347E+02 -0.17475050565E+02 -0.12874748998E+02  0.44520594381E+02  0.17770000000E+01 0.  1.
         15    1    3    3    0    0 -0.23120214900E+02  0.70634840144E+02  0.15718626190E+02  0.75987222067E+02  0.17770000000E+01 0. -1.
</event>
<event>
 7    1  0.1093668E-008  0.1645347E+03  0.7546771E-02  0.1083729E+00
        -11   -1    0    0    0    0  0.00000000000E+00  0.00000000000E+00  0.18250000000E+03  0.18250000000E+03  0.00000000000E+00 0.  1.
         11   -1    0    0    0    0 -0.00000000000E+00 -0.00000000000E+00 -0.18250000000E+03  0.18250000000E+03  0.00000000000E+00 0.  1.
         23    2    1    2    0    0 -0.37219027023E+02  0.96426174172E+02  0.72103264263E+02  0.15677760314E+03  0.93258099326E+02 0.  0.
        -11    1    1    2    0    0  0.47321166430E+02  0.70215309178E+01  0.34770425124E+02  0.59140317483E+02  0.00000000000E+00 0.  1.
         11    1    1    2    0    0 -0.10102139406E+02 -0.10344770509E+03 -0.10687368939E+03  0.14908207938E+03  0.00000000000E+00 0.  1.
        -15    1    3    3    0    0 -0.48194925937E+02  0.11049740765E+03  0.57129060899E+02  0.13341407464E+03  0.17770000000E+01 0.  1.
         15    1    3    3    0    0  0.10975898914E+02 -0.14071233477E+02  0.14974203365E+02  0.23363528499E+02  0.17770000000E+01 0. -1.
</event>
<event>
 7    1  0.1093668E-008  0.1467421E+03  0.7546771E-02  0.1101123E+00
        -11   -1    0    0    0    0  0.00000000000E+00  0.00000000000E+00  0.18250000000E+03  0.18250000000E+03  0.00000000000E+00 0.  1.
         11   -1    0    0    0    0 -0.00000000000E+00 -0.00000000000E+00 -0.18250000000E+03  0.18250000000E+03  0.00000000000E+00 0. -1.
         23    2    1    2    0    0  0.97867621575E+02  0.10640943829E+03 -0.39948839712E+02  0.17570054395E+03  0.91508094932E+02 0.  0.
        -11    1    1    2    0    0 -0.10493435345E+02 -0.90437601699E+02  0.42423151554E+02  0.10044299764E+03  0.00000000000E+00 0.  1.
         11    1    1    2    0    0 -0.87374186230E+02 -0.15971836592E+02 -0.24743118422E+01  0.88856458418E+02  0.00000000000E+00 0. -1.
        -15    1    3    3    0    0  0.10892367021E+03  0.10860500814E+03 -0.48665625942E+02  0.16134098860E+03  0.17770000000E+01 0.  1.
         15    1    3    3    0    0 -0.11056048638E+02 -0.21955698499E+01  0.87167862302E+01  0.14359555342E+02  0.17770000000E+01 0. -1.
</event>
<event>
 7    1  0.1093668E-008  0.2131944E+03  0.7546771E-02  0.1046349E+00
        -11   -1    0    0    0    0  0.00000000000E+00  0.00000000000E+00  0.18250000000E+03  0.18250000000E+03  0.00000000000E+00 0.  1.
         11   -1    0    0    0    0 -0.00000000000E+00 -0.00000000000E+00 -0.18250000000E+03  0.18250000000E+03  0.00000000000E+00 0. -1.
         23    2    1    2    0    0 -0.34834873976E+02 -0.28894930361E+01  0.45745693924E+02  0.10868885544E+03  0.92188834293E+02 0.  0.
        -11    1    1    2    0    0 -0.19203338887E+01  0.38246513261E+02  0.97236414602E+02  0.10450552035E+03  0.00000000000E+00 0.  1.
         11    1    1    2    0    0  0.36755207865E+02 -0.35357020225E+02 -0.14298210853E+03  0.15180562421E+03  0.00000000000E+00 0. -1.
        -15    1    3    3    0    0 -0.65772150501E+02  0.51969410758E+01  0.36168372968E+02  0.75261496864E+02  0.17770000000E+01 0.  1.
         15    1    3    3    0    0  0.30937276524E+02 -0.80864341119E+01  0.95773209560E+01  0.33427358572E+02  0.17770000000E+01 0. -1.
</event>
<event>
 7    1  0.1093668E-008  0.1666373E+03  0.7546771E-02  0.1081833E+00
        -11   -1    0    0    0    0  0.00000000000E+00  0.00000000000E+00  0.18250000000E+03  0.18250000000E+03  0.00000000000E+00 0. -1.
         11   -1    0    0    0    0 -0.00000000000E+00 -0.00000000000E+00 -0.18250000000E+03  0.18250000000E+03  0.00000000000E+00 0. -1.
         23    2    1    2    0    0  0.43945789416E+02  0.11028187555E+02 -0.13244807532E+03  0.16711512207E+03  0.91280436237E+02 0.  0.
        -11    1    1    2    0    0 -0.49014418221E+02  0.42751182613E+02  0.12813360245E+03  0.14369515262E+03  0.00000000000E+00 0. -1.
         11    1    1    2    0    0  0.50686288046E+01 -0.53779370168E+02  0.43144728649E+01  0.54189725315E+02  0.00000000000E+00 0. -1.
        -15    1    3    3    0    0  0.27813200991E+01 -0.24657462672E+02 -0.10135268796E+03  0.10436115796E+03  0.17770000000E+01 0.  1.
         15    1    3    3    0    0  0.41164469317E+02  0.35685650227E+02 -0.31095387363E+02  0.62753964102E+02  0.17770000000E+01 0. -1.
</event>
<event>
 7    1  0.1093668E-008  0.1356479E+03  0.7546771E-02  0.1113406E+00
        -11   -1    0    0    0    0  0.00000000000E+00  0.00000000000E+00  0.18250000000E+03  0.18250000000E+03  0.00000000000E+00 0.  1.
         11   -1    0    0    0    0 -0.00000000000E+00 -0.00000000000E+00 -0.18250000000E+03  0.18250000000E+03  0.00000000000E+00 0. -1.
         23    2    1    2    0    0 -0.32750338449E+02 -0.66324329738E+02  0.10649639990E+02  0.11612626058E+03  0.88884150330E+02 0.  0.
        -11    1    1    2    0    0  0.73733631580E+02  0.62082693571E+02 -0.10704200457E+03  0.14404478473E+03  0.00000000000E+00 0. -1.
         11    1    1    2    0    0 -0.40983293130E+02  0.42416361670E+01  0.96392364576E+02  0.10482895469E+03  0.00000000000E+00 0.  1.
        -15    1    3    3    0    0  0.20350963654E+02 -0.58458860217E+02  0.59894000364E+01  0.62214393040E+02  0.17770000000E+01 0. -1.
         15    1    3    3    0    0 -0.53101302104E+02 -0.78654695216E+01  0.46602399536E+01  0.53911867537E+02  0.17770000000E+01 0.  1.
</event>
<event>
 7    1  0.1093668E-008  0.1346288E+03  0.7546771E-02  0.1114599E+00
        -11   -1    0    0    0    0  0.00000000000E+00  0.00000000000E+00  0.18250000000E+03  0.18250000000E+03  0.00000000000E+00 0. -1.
         11   -1    0    0    0    0 -0.00000000000E+00 -0.00000000000E+00 -0.18250000000E+03  0.18250000000E+03  0.00000000000E+00 0.  1.
         23    2    1    2    0    0  0.80483299374E+02  0.57970502943E+02 -0.15473631220E+02  0.13863404870E+03  0.95612894042E+02 0.  0.
        -11    1    1    2    0    0 -0.18484503320E+02 -0.21959966031E+02  0.10661032649E+03  0.11040687789E+03  0.00000000000E+00 0. -1.
         11    1    1    2    0    0 -0.61998796055E+02 -0.36010536912E+02 -0.91136695269E+02  0.11595907341E+03  0.00000000000E+00 0.  1.
        -15    1    3    3    0    0 -0.11400631718E+02  0.24363843329E+02  0.21033567709E+02  0.34192688764E+02  0.17770000000E+01 0. -1.
         15    1    3    3    0    0  0.91883931092E+02  0.33606659614E+02 -0.36507198929E+02  0.10444135994E+03  0.17770000000E+01 0.  1.
</event>
<event>
 7    1  0.1093668E-008  0.1361062E+03  0.7546771E-02  0.1112873E+00
        -11   -1    0    0    0    0  0.00000000000E+00  0.00000000000E+00  0.18250000000E+03  0.18250000000E+03  0.00000000000E+00 0. -1.
         11   -1    0    0    0    0 -0.00000000000E+00 -0.00000000000E+00 -0.18250000000E+03  0.18250000000E+03  0.00000000000E+00 0.  1.
         23    2    1    2    0    0  0.62018796783E+02 -0.10210533924E+03 -0.23110138566E+02  0.15008439209E+03  0.87860200261E+02 0.  0.
        -11    1    1    2    0    0  0.24364911078E+02  0.60970609363E+02  0.80084049673E+02  0.10355925410E+03  0.00000000000E+00 0. -1.
         11    1    1    2    0    0 -0.86383707862E+02  0.41134729876E+02 -0.56973911108E+02  0.11135635381E+03  0.00000000000E+00 0.  1.
        -15    1    3    3    0    0  0.37273177904E+02 -0.11252113255E+03 -0.70674879832E+01  0.11875774576E+03  0.17770000000E+01 0.  1.
         15    1    3    3    0    0  0.24745618880E+02  0.10415793312E+02 -0.16042650582E+02  0.31326646338E+02  0.17770000000E+01 0. -1.
</event>
<event>
 7    1  0.1093668E-008  0.1417803E+03  0.7546771E-02  0.1106463E+00
        -11   -1    0    0    0    0  0.00000000000E+00  0.00000000000E+00  0.18250000000E+03  0.18250000000E+03  0.00000000000E+00 0. -1.
         11   -1    0    0    0    0 -0.00000000000E+00 -0.00000000000E+00 -0.18250000000E+03  0.18250000000E+03  0.00000000000E+00 0. -1.
         23    2    1    2    0    0  0.23511539707E+02 -0.60245776659E+02 -0.10843598553E+03  0.15552070841E+03  0.90807387812E+02 0.  0.
        -11    1    1    2    0    0  0.56362083858E+02 -0.13363336239E+02  0.77091639577E+02  0.96428129427E+02  0.00000000000E+00 0. -1.
         11    1    1    2    0    0 -0.79873623565E+02  0.73609112898E+02  0.31344345956E+02  0.11305116216E+03  0.00000000000E+00 0. -1.
        -15    1    3    3    0    0  0.26865566998E+02  0.97682998963E+01 -0.28624769653E+01  0.28784194905E+02  0.17770000000E+01 0.  1.
         15    1    3    3    0    0 -0.33540272910E+01 -0.70014076555E+02 -0.10557350857E+03  0.12673651350E+03  0.17770000000E+01 0. -1.
</event>
<event>
 7    1  0.1093668E-008  0.1538767E+03  0.7546771E-02  0.1093839E+00
        -11   -1    0    0    0    0  0.00000000000E+00  0.00000000000E+00  0.18250000000E+03  0.18250000000E+03  0.00000000000E+00 0. -1.
         11   -1    0    0    0    0 -0.00000000000E+00 -0.00000000000E+00 -0.18250000000E+03  0.18250000000E+03  0.00000000000E+00 0. -1.
         23    2    1    2    0    0  0.62640093919E+02 -0.50041726356E+02 -0.71347317390E+02  0.13857327749E+03  0.87659328041E+02 0.  0.
        -11    1    1    2    0    0 -0.11980462918E+03  0.84821256091E+02  0.37828887547E+02  0.15158766239E+03  0.00000000000E+00 0. -1.
         11    1    1    2    0    0  0.57164535258E+02 -0.34779529735E+02  0.33518429843E+02  0.74839060116E+02  0.00000000000E+00 0. -1.
        -15    1    3    3    0    0  0.62489727425E+02 -0.32179588401E+02 -0.88982762126E+02  0.11340891335E+03  0.17770000000E+01 0. -1.
         15    1    3    3    0    0  0.15036649360E+00 -0.17862137955E+02  0.17635444736E+02  0.25164364137E+02  0.17770000000E+01 0.  1.
</event>
<event>
 7    1  0.1175147E-008  0.1489136E+03  0.7546771E-02  0.1098859E+00
        -11   -1    0    0    0    0  0.00000000000E+00  0.00000000000E+00  0.18250000000E+03  0.18250000000E+03  0.00000000000E+00 0.  1.
         11   -1    0    0    0    0 -0.00000000000E+00 -0.00000000000E+00 -0.18250000000E+03  0.18250000000E+03  0.00000000000E+00 0. -1.
         23    2    1    2    0    0  0.14151145529E+02  0.42680679828E+02 -0.67909479734E+02  0.12392449055E+03  0.93400677566E+02 0.  0.
        -11    1    1    2    0    0 -0.10755982231E+02 -0.12653995772E+03  0.88336149455E+02  0.15469753506E+03  0.00000000000E+00 0.  1.
         11    1    1    2    0    0 -0.33951632980E+01  0.83859277897E+02 -0.20426669721E+02  0.86377974386E+02  0.00000000000E+00 0. -1.
        -15    1    3    3    0    0  0.45946199975E+02  0.42987608710E+02 -0.19347757817E+02  0.65851964712E+02  0.17770000000E+01 0.  1.
         15    1    3    3    0    0 -0.31795054447E+02 -0.30692888285E+00 -0.48561721917E+02  0.58072525837E+02  0.17770000000E+01 0. -1.
</event>
<event>
 7    1  0.1093668E-008  0.1289927E+03  0.7546771E-02  0.1121414E+00
        -11   -1    0    0    0    0  0.00000000000E+00  0.00000000000E+00  0.18250000000E+03  0.18250000000E+03  0.00000000000E+00 0.  1.
         11   -1    0    0    0    0 -0.00000000000E+00 -0.00000000000E+00 -0.18250000000E+03  0.18250000000E+03  0.00000000000E+00 0. -1.
         23    2    1    2    0    0  0.38365572278E+02 -0.77989644316E+02 -0.40948108961E+02  0.13234349720E+03  0.91015118896E+02 0.  0.
        -11    1    1    2    0    0  0.66968045557E+02  0.48258088308E+02  0.81440139714E+02  0.11595714109E+03  0.00000000000E+00 0.  1.
         11    1    1    2    0    0 -0.10533361783E+03  0.29731556007E+02 -0.40492030753E+02  0.11669936171E+03  0.00000000000E+00 0. -1.
        -15    1    3    3    0    0  0.29802583800E+02 -0.56446855284E+02  0.20159085927E+02  0.66962586173E+02  0.17770000000E+01 0.  1.
         15    1    3    3    0    0  0.85629884780E+01 -0.21542789031E+02 -0.61107194888E+02  0.65380911029E+02  0.17770000000E+01 0. -1.
</event>
<event>
 7    1  0.1093668E-008  0.1428118E+03  0.7546771E-02  0.1105334E+00
        -11   -1    0    0    0    0  0.00000000000E+00  0.00000000000E+00  0.18250000000E+03  0.18250000000E+03  0.00000000000E+00 0.  1.
         11   -1    0    0    0    0 -0.00000000000E+00 -0.00000000000E+00 -0.18250000000E+03  0.18250000000E+03  0.00000000000E+00 0. -1.
         23    2    1    2    0    0  0.67692011223E+02 -0.45984522183E+02  0.85952535423E+02  0.15289004618E+03  0.96388501452E+02 0.  0.
        -11    1    1    2    0    0  0.45109125425E+02  0.30099189246E+02 -0.81771369249E+02  0.98119066540E+02  0.00000000000E+00 0. -1.
         11    1    1    2    0    0 -0.11280113665E+03  0.15885332937E+02 -0.41811661743E+01  0.11399088728E+03  0.00000000000E+00 0.  1.
        -15    1    3    3    0    0 -0.13484141243E+02 -0.29717638671E+02  0.55983354575E+02  0.64824793341E+02  0.17770000000E+01 0.  1.
         15    1    3    3    0    0  0.81176152466E+02 -0.16266883511E+02  0.29969180849E+02  0.88065252842E+02  0.17770000000E+01 0. -1.
</event>
<event>
 7    1  0.1093668E-008  0.1517822E+03  0.7546771E-02  0.1095931E+00
        -11   -1    0    0    0    0  0.00000000000E+00  0.00000000000E+00  0.18250000000E+03  0.18250000000E+03  0.00000000000E+00 0.  1.
         11   -1    0    0    0    0 -0.00000000000E+00 -0.00000000000E+00 -0.18250000000E+03  0.18250000000E+03  0.00000000000E+00 0. -1.
         23    2    1    2    0    0  0.74530904810E+02  0.20044490667E+02  0.60857913845E+02  0.13488277721E+03  0.92374458224E+02 0.  0.
        -11    1    1    2    0    0 -0.13529485271E+02  0.66570515210E+02  0.44097929835E+02  0.80989554159E+02  0.00000000000E+00 0.  1.
         11    1    1    2    0    0 -0.61001419540E+02 -0.86615005877E+02 -0.10495584368E+03  0.14912766863E+03  0.00000000000E+00 0. -1.
        -15    1    3    3    0    0  0.90064374407E+02  0.31924625885E+02  0.63965305067E+02  0.11500213588E+03  0.17770000000E+01 0.  1.
         15    1    3    3    0    0 -0.15533469597E+02 -0.11880135219E+02 -0.31073912221E+01  0.19880641331E+02  0.17770000000E+01 0. -1.
</event>
<event>
 7    1  0.1093668E-008  0.1685506E+03  0.7546771E-02  0.1080135E+00
        -11   -1    0    0    0    0  0.00000000000E+00  0.00000000000E+00  0.18250000000E+03  0.18250000000E+03  0.00000000000E+00 0.  1.
         11   -1    0    0    0    0 -0.00000000000E+00 -0.00000000000E+00 -0.18250000000E+03  0.18250000000E+03  0.00000000000E+00 0.  1.
         23    2    1    2    0    0  0.42280396485E+02 -0.18677489124E+02 -0.14506493634E+03  0.17860133845E+03  0.93370883107E+02 0.  0.
        -11    1    1    2    0    0  0.34165360952E+02  0.18462976065E+02  0.34293476836E+02  0.51809226279E+02  0.00000000000E+00 0.  1.
         11    1    1    2    0    0 -0.76445757437E+02  0.21451305938E+00  0.11077145951E+03  0.13458943527E+03  0.00000000000E+00 0.  1.
        -15    1    3    3    0    0  0.56739926561E+02 -0.38204136922E+02 -0.63053055147E+02  0.93047411766E+02  0.17770000000E+01 0.  1.
         15    1    3    3    0    0 -0.14459530076E+02  0.19526647798E+02 -0.82011881196E+02  0.85553926681E+02  0.17770000000E+01 0. -1.
</event>
<event>
 7    1  0.1093668E-008  0.2118842E+03  0.7546771E-02  0.1047208E+00
        -11   -1    0    0    0    0  0.00000000000E+00  0.00000000000E+00  0.18250000000E+03  0.18250000000E+03  0.00000000000E+00 0.  1.
         11   -1    0    0    0    0 -0.00000000000E+00 -0.00000000000E+00 -0.18250000000E+03  0.18250000000E+03  0.00000000000E+00 0. -1.
         23    2    1    2    0    0  0.65317700054E+02 -0.40831583231E+02  0.16650948730E+02  0.11932268328E+03  0.89593685733E+02 0.  0.
        -11    1    1    2    0    0  0.14506938640E+02 -0.52348931520E+02  0.74945188549E+02  0.92561564305E+02  0.00000000000E+00 0.  1.
         11    1    1    2    0    0 -0.79824638694E+02  0.93180514751E+02 -0.91596137278E+02  0.15311575241E+03  0.00000000000E+00 0. -1.
        -15    1    3    3    0    0  0.79712556326E+01 -0.49239332805E+02 -0.16450566538E+02  0.52553131970E+02  0.17770000000E+01 0. -1.
         15    1    3    3    0    0  0.57346444421E+02  0.84077495745E+01  0.33101515268E+02  0.66769551314E+02  0.17770000000E+01 0.  1.
</event>
<event>
 7    1  0.1093668E-008  0.1601449E+03  0.7546771E-02  0.1087788E+00
        -11   -1    0    0    0    0  0.00000000000E+00  0.00000000000E+00  0.18250000000E+03  0.18250000000E+03  0.00000000000E+00 0. -1.
         11   -1    0    0    0    0 -0.00000000000E+00 -0.00000000000E+00 -0.18250000000E+03  0.18250000000E+03  0.00000000000E+00 0.  1.
         23    2    1    2    0    0  0.92336547876E+02 -0.54387515076E+02  0.11451428347E+03  0.17833319183E+03  0.84883251108E+02 0.  0.
        -11    1    1    2    0    0 -0.39982273823E+02 -0.28693140011E+02 -0.38566569831E+02  0.62524065864E+02  0.00000000000E+00 0. -1.
         11    1    1    2    0    0 -0.52354274054E+02  0.83080655087E+02 -0.75947713638E+02  0.12414274231E+03  0.00000000000E+00 0.  1.
        -15    1    3    3    0    0 -0.10583524492E+02  0.10238255047E+02  0.16576766309E+02  0.22243645550E+02  0.17770000000E+01 0.  1.
         15    1    3    3    0    0  0.10292007237E+03 -0.64625770123E+02  0.97937517160E+02  0.15608954628E+03  0.17770000000E+01 0. -1.
</event>
<event>
 7    1  0.1093668E-008  0.1230559E+03  0.7546771E-02  0.1129022E+00
        -11   -1    0    0    0    0  0.00000000000E+00  0.00000000000E+00  0.18250000000E+03  0.18250000000E+03  0.00000000000E+00 0.  1.
         11   -1    0    0    0    0 -0.00000000000E+00 -0.00000000000E+00 -0.18250000000E+03  0.18250000000E+03  0.00000000000E+00 0. -1.
         23    2    1    2    0    0  0.66209022453E+01 -0.23435815706E+02  0.57057165245E+02  0.11118987992E+03  0.92274565765E+02 0.  0.
        -11    1    1    2    0    0 -0.11273973304E+03  0.15227462069E+01  0.27861934619E+02  0.11614152385E+03  0.00000000000E+00 0.  1.
         11    1    1    2    0    0  0.10611883080E+03  0.21913069499E+02 -0.84919099864E+02  0.13766859622E+03  0.00000000000E+00 0. -1.
        -15    1    3    3    0    0  0.33183862485E+02  0.48081921247E+01 -0.88311314809E+01  0.34719361359E+02  0.17770000000E+01 0. -1.
         15    1    3    3    0    0 -0.26562960240E+02 -0.28244007831E+02  0.65888296726E+02  0.76470518564E+02  0.17770000000E+01 0.  1.
</event>
<event>
 7    1  0.1093668E-008  0.1353239E+03  0.7546771E-02  0.1113784E+00
        -11   -1    0    0    0    0  0.00000000000E+00  0.00000000000E+00  0.18250000000E+03  0.18250000000E+03  0.00000000000E+00 0.  1.
         11   -1    0    0    0    0 -0.00000000000E+00 -0.00000000000E+00 -0.18250000000E+03  0.18250000000E+03  0.00000000000E+00 0. -1.
         23    2    1    2    0    0 -0.33859398990E+02  0.71459799513E+02  0.70613943279E+02  0.13929531327E+03  0.90354266459E+02 0.  0.
        -11    1    1    2    0    0  0.91344179745E+02 -0.44553385201E+02  0.30687080761E+02  0.10616242382E+03  0.00000000000E+00 0.  1.
         11    1    1    2    0    0 -0.57484780755E+02 -0.26906414312E+02 -0.10130102404E+03  0.11954226291E+03  0.00000000000E+00 0. -1.
        -15    1    3    3    0    0 -0.11823667742E+02  0.20359146225E+02  0.79483019275E+02  0.82915632036E+02  0.17770000000E+01 0. -1.
         15    1    3    3    0    0 -0.22035731248E+02  0.51100653288E+02 -0.88690759960E+01  0.56379681235E+02  0.17770000000E+01 0.  1.
</event>
<event>
 7    1  0.1093668E-008  0.1640627E+03  0.7546771E-02  0.1084158E+00
        -11   -1    0    0    0    0  0.00000000000E+00  0.00000000000E+00  0.18250000000E+03  0.18250000000E+03  0.00000000000E+00 0.  1.
         11   -1    0    0    0    0 -0.00000000000E+00 -0.00000000000E+00 -0.18250000000E+03  0.18250000000E+03  0.00000000000E+00 0. -1.
         23    2    1    2    0    0 -0.25674033999E+02 -0.14511027230E+03 -0.27344133578E+02  0.17570496704E+03  0.91697255429E+02 0.  0.
        -11    1    1    2    0    0  0.18865180940E+01  0.20268828819E+02  0.55509122529E+02  0.59123997295E+02  0.00000000000E+00 0.  1.
         11    1    1    2    0    0  0.23787515905E+02  0.12484144348E+03 -0.28164988951E+02  0.13017103566E+03  0.00000000000E+00 0. -1.
        -15    1    3    3    0    0  0.17643838398E+02 -0.27416224704E+02 -0.37675052149E+02  0.49855006708E+02  0.17770000000E+01 0. -1.
         15    1    3    3    0    0 -0.43317872397E+02 -0.11769404759E+03  0.10330918571E+02  0.12584996033E+03  0.17770000000E+01 0.  1.
</event>
<event>
 7    1  0.1093668E-008  0.1359048E+03  0.7546771E-02  0.1113107E+00
        -11   -1    0    0    0    0  0.00000000000E+00  0.00000000000E+00  0.18250000000E+03  0.18250000000E+03  0.00000000000E+00 0.  1.
         11   -1    0    0    0    0 -0.00000000000E+00 -0.00000000000E+00 -0.18250000000E+03  0.18250000000E+03  0.00000000000E+00 0.  1.
         23    2    1    2    0    0  0.59101059198E+02 -0.26167971337E+02  0.26530127858E+02  0.11444998773E+03  0.90649071070E+02 0.  0.
        -11    1    1    2    0    0 -0.85102698082E+02  0.11507102209E+03  0.23870018471E+02  0.14509854282E+03  0.00000000000E+00 0.  1.
         11    1    1    2    0    0  0.26001638884E+02 -0.88903050757E+02 -0.50400146329E+02  0.10545146945E+03  0.00000000000E+00 0.  1.
        -15    1    3    3    0    0  0.81039042072E+02 -0.92176563112E+01  0.10175558653E+02  0.82213084425E+02  0.17770000000E+01 0.  1.
         15    1    3    3    0    0 -0.21937982874E+02 -0.16950315026E+02  0.16354569205E+02  0.32236903309E+02  0.17770000000E+01 0. -1.
</event>
<event>
 7    1  0.1093668E-008  0.1387436E+03  0.7546771E-02  0.1109852E+00
        -11   -1    0    0    0    0  0.00000000000E+00  0.00000000000E+00  0.18250000000E+03  0.18250000000E+03  0.00000000000E+00 0.  1.
         11   -1    0    0    0    0 -0.00000000000E+00 -0.00000000000E+00 -0.18250000000E+03  0.18250000000E+03  0.00000000000E+00 0. -1.
         23    2    1    2    0    0 -0.55779957349E+01 -0.15444400557E+02 -0.86303177408E+02  0.12638396317E+03  0.90857163559E+02 0.  0.
        -11    1    1    2    0    0  0.24977010561E+02  0.11385166670E+03  0.72759889941E+02  0.13740471117E+03  0.00000000000E+00 0.  1.
         11    1    1    2    0    0 -0.19399014826E+02 -0.98407266148E+02  0.13543287467E+02  0.10121132566E+03  0.00000000000E+00 0. -1.
        -15    1    3    3    0    0 -0.41791057355E+01 -0.50948528483E+02 -0.71355751529E+02  0.87795321542E+02  0.17770000000E+01 0. -1.
         15    1    3    3    0    0 -0.13988899994E+01  0.35504127926E+02 -0.14947425879E+02  0.38588641625E+02  0.17770000000E+01 0.  1.
</event>
<event>
 7    1  0.1093668E-008  0.1342702E+03  0.7546771E-02  0.1115022E+00
        -11   -1    0    0    0    0  0.00000000000E+00  0.00000000000E+00  0.18250000000E+03  0.18250000000E+03  0.00000000000E+00 0. -1.
         11   -1    0    0    0    0 -0.00000000000E+00 -0.00000000000E+00 -0.18250000000E+03  0.18250000000E+03  0.00000000000E+00 0. -1.
         23    2    1    2    0    0  0.45284855984E+02 -0.72755509294E+01 -0.85572822229E+02  0.13423683739E+03  0.92699346193E+02 0.  0.
        -11    1    1    2    0    0  0.54865558863E+02 -0.32162954050E+02  0.10366354801E+03  0.12161750018E+03  0.00000000000E+00 0. -1.
         11    1    1    2    0    0 -0.10015041485E+03  0.39438504979E+02 -0.18090725785E+02  0.10914566243E+03  0.00000000000E+00 0. -1.
        -15    1    3    3    0    0 -0.10646117626E+02 -0.29355917954E+02 -0.21033229065E+01  0.31347909591E+02  0.17770000000E+01 0.  1.
         15    1    3    3    0    0  0.55930973610E+02  0.22080367025E+02 -0.83469499323E+02  0.10288892780E+03  0.17770000000E+01 0. -1.
</event>
<event>
 7    1  0.1093668E-008  0.1451162E+03  0.7546771E-02  0.1102847E+00
        -11   -1    0    0    0    0  0.00000000000E+00  0.00000000000E+00  0.18250000000E+03  0.18250000000E+03  0.00000000000E+00 0. -1.
         11   -1    0    0    0    0 -0.00000000000E+00 -0.00000000000E+00 -0.18250000000E+03  0.18250000000E+03  0.00000000000E+00 0.  1.
         23    2    1    2    0    0  0.10406733997E+03  0.10718712046E+03 -0.36971349344E+02  0.17875388456E+03  0.90922937341E+02 0.  0.
        -11    1    1    2    0    0 -0.12763017852E+02 -0.80840606900E+02  0.40157470831E+02  0.91163154905E+02  0.00000000000E+00 0. -1.
         11    1    1    2    0    0 -0.91304322114E+02 -0.26346513558E+02 -0.31861214867E+01  0.95082960532E+02  0.00000000000E+00 0.  1.
        -15    1    3    3    0    0 -0.14032155519E+02  0.71908851626E+01 -0.16083507633E+02  0.22593077806E+02  0.17770000000E+01 0.  1.
         15    1    3    3    0    0  0.11809949549E+03  0.99996235295E+02 -0.20887841711E+02  0.15616080676E+03  0.17770000000E+01 0. -1.
</event>
<event>
 7    1  0.1093668E-008  0.1446735E+03  0.7546771E-02  0.1103321E+00
        -11   -1    0    0    0    0  0.00000000000E+00  0.00000000000E+00  0.18250000000E+03  0.18250000000E+03  0.00000000000E+00 0. -1.
         11   -1    0    0    0    0 -0.00000000000E+00 -0.00000000000E+00 -0.18250000000E+03  0.18250000000E+03  0.00000000000E+00 0. -1.
         23    2    1    2    0    0 -0.78622965018E+02  0.60941771873E+02 -0.96968939163E+02  0.16618674374E+03  0.91211777993E+02 0.  0.
        -11    1    1    2    0    0  0.42843108063E+02 -0.81448779609E+02 -0.15163872304E+01  0.92042028653E+02  0.00000000000E+00 0. -1.
         11    1    1    2    0    0  0.35779856956E+02  0.20507007736E+02  0.98485326394E+02  0.10677122761E+03  0.00000000000E+00 0. -1.
        -15    1    3    3    0    0 -0.95426952872E+02  0.65828993940E+02 -0.75183635862E+02  0.13818645595E+03  0.17770000000E+01 0. -1.
         15    1    3    3    0    0  0.16803987854E+02 -0.48872220670E+01 -0.21785303301E+02  0.28000287789E+02  0.17770000000E+01 0.  1.
</event>
<event>
 7    1  0.1093668E-008  0.1309762E+03  0.7546771E-02  0.1118973E+00
        -11   -1    0    0    0    0  0.00000000000E+00  0.00000000000E+00  0.18250000000E+03  0.18250000000E+03  0.00000000000E+00 0.  1.
         11   -1    0    0    0    0 -0.00000000000E+00 -0.00000000000E+00 -0.18250000000E+03  0.18250000000E+03  0.00000000000E+00 0. -1.
         23    2    1    2    0    0 -0.22588132592E+02  0.50251505847E+02  0.52710734489E+02  0.11153865058E+03  0.81406458394E+02 0.  0.
        -11    1    1    2    0    0  0.91201307313E+02  0.24273239703E+02  0.52013322480E+02  0.10776017046E+03  0.00000000000E+00 0.  1.
         11    1    1    2    0    0 -0.68613174721E+02 -0.74524745550E+02 -0.10472405697E+03  0.14570117897E+03  0.00000000000E+00 0. -1.
        -15    1    3    3    0    0  0.79520276683E+01  0.32947748781E+02 -0.13540743314E+02  0.36541734391E+02  0.17770000000E+01 0. -1.
         15    1    3    3    0    0 -0.30540160260E+02  0.17303757066E+02  0.66251477803E+02  0.74996916186E+02  0.17770000000E+01 0.  1.
</event>
<event>
 7    1  0.1093668E-008  0.1348994E+03  0.7546771E-02  0.1114281E+00
        -11   -1    0    0    0    0  0.00000000000E+00  0.00000000000E+00  0.18250000000E+03  0.18250000000E+03  0.00000000000E+00 0. -1.
         11   -1    0    0    0    0 -0.00000000000E+00 -0.00000000000E+00 -0.18250000000E+03  0.18250000000E+03  0.00000000000E+00 0.  1.
         23    2    1    2    0    0 -0.26605616574E+02 -0.87004914097E+00 -0.48311811672E+02  0.11016535420E+03  0.95361199130E+02 0.  0.
        -11    1    1    2    0    0 -0.38337796800E+02 -0.95489705080E+02 -0.38416582692E+02  0.10983580593E+03  0.00000000000E+00 0.  1.
         11    1    1    2    0    0  0.64943413373E+02  0.96359754221E+02  0.86728394364E+02  0.14499883987E+03  0.00000000000E+00 0. -1.
        -15    1    3    3    0    0 -0.57224470438E+02 -0.14957771178E+02 -0.11606299856E+02  0.60301234323E+02  0.17770000000E+01 0.  1.
         15    1    3    3    0    0  0.30618853864E+02  0.14087722037E+02 -0.36705511816E+02  0.49864119874E+02  0.17770000000E+01 0. -1.
</event>
<event>
 7    1  0.1093668E-008  0.1732418E+03  0.7546771E-02  0.1076073E+00
        -11   -1    0    0    0    0  0.00000000000E+00  0.00000000000E+00  0.18250000000E+03  0.18250000000E+03  0.00000000000E+00 0. -1.
         11   -1    0    0    0    0 -0.00000000000E+00 -0.00000000000E+00 -0.18250000000E+03  0.18250000000E+03  0.00000000000E+00 0.  1.
         23    2    1    2    0    0 -0.46651314559E+02  0.18768432936E+01 -0.13468619439E+03  0.16508598383E+03  0.83265499493E+02 0.  0.
        -11    1    1    2    0    0  0.26752408125E+02 -0.23437799566E+02  0.15830324792E+03  0.16224962278E+03  0.00000000000E+00 0. -1.
         11    1    1    2    0    0  0.19898906433E+02  0.21560956272E+02 -0.23617053525E+02  0.37664393395E+02  0.00000000000E+00 0.  1.
        -15    1    3    3    0    0 -0.52595899188E+02 -0.31507014384E+02 -0.81907920708E+02  0.10232832340E+03  0.17770000000E+01 0. -1.
         15    1    3    3    0    0  0.59445846297E+01  0.33383857678E+02 -0.52778273686E+02  0.62757660426E+02  0.17770000000E+01 0.  1.
</event>
<event>
 7    1  0.1093668E-008  0.1457941E+03  0.7546771E-02  0.1102125E+00
        -11   -1    0    0    0    0  0.00000000000E+00  0.00000000000E+00  0.18250000000E+03  0.18250000000E+03  0.00000000000E+00 0.  1.
         11   -1    0    0    0    0 -0.00000000000E+00 -0.00000000000E+00 -0.18250000000E+03  0.18250000000E+03  0.00000000000E+00 0. -1.
         23    2    1    2    0    0 -0.43661468149E+02  0.25221710114E+02  0.63382143927E+02  0.12071597109E+03  0.89513077510E+02 0.  0.
        -11    1    1    2    0    0  0.69337731112E+02  0.17314601711E+02 -0.13755230720E+03  0.15501017258E+03  0.00000000000E+00 0. -1.
         11    1    1    2    0    0 -0.25676262963E+02 -0.42536311825E+02  0.74170163274E+02  0.89273856327E+02  0.00000000000E+00 0.  1.
        -15    1    3    3    0    0 -0.15764529778E+01 -0.22727906469E+02  0.50745232169E+02  0.55653205238E+02  0.17770000000E+01 0. -1.
         15    1    3    3    0    0 -0.42085015171E+02  0.47949616583E+02  0.12636911759E+02  0.65062765851E+02  0.17770000000E+01 0.  1.
</event>
<event>
 7    1  0.1093668E-008  0.1652494E+03  0.7546771E-02  0.1083081E+00
        -11   -1    0    0    0    0  0.00000000000E+00  0.00000000000E+00  0.18250000000E+03  0.18250000000E+03  0.00000000000E+00 0. -1.
         11   -1    0    0    0    0 -0.00000000000E+00 -0.00000000000E+00 -0.18250000000E+03  0.18250000000E+03  0.00000000000E+00 0. -1.
         23    2    1    2    0    0  0.29304993712E+02 -0.93272348462E+02 -0.64112045326E+02  0.14828877435E+03  0.91217830480E+02 0.  0.
        -11    1    1    2    0    0  0.50470930069E+02 -0.23486248769E+02 -0.10767353145E+02  0.56699687451E+02  0.00000000000E+00 0. -1.
         11    1    1    2    0    0 -0.79775923781E+02  0.11675859723E+03  0.74879398471E+02  0.16001153820E+03  0.00000000000E+00 0. -1.
        -15    1    3    3    0    0 -0.23007638282E+02 -0.72239638083E+02 -0.25825953852E+02  0.80112760227E+02  0.17770000000E+01 0. -1.
         15    1    3    3    0    0  0.52312631994E+02 -0.21032710378E+02 -0.38286091474E+02  0.68176014121E+02  0.17770000000E+01 0.  1.
</event>
<event>
 7    1  0.1093668E-008  0.1353269E+03  0.7546771E-02  0.1113780E+00
        -11   -1    0    0    0    0  0.00000000000E+00  0.00000000000E+00  0.18250000000E+03  0.18250000000E+03  0.00000000000E+00 0.  1.
         11   -1    0    0    0    0 -0.00000000000E+00 -0.00000000000E+00 -0.18250000000E+03  0.18250000000E+03  0.00000000000E+00 0. -1.
         23    2    1    2    0    0 -0.10189416991E+03 -0.16622284169E+02  0.12875159901E+02  0.13888675639E+03  0.92005647465E+02 0.  0.
        -11    1    1    2    0    0  0.50658891163E+02  0.73203019028E+01  0.94109687624E+02  0.10712863006E+03  0.00000000000E+00 0.  1.
         11    1    1    2    0    0  0.51235278745E+02  0.93019822661E+01 -0.10698484753E+03  0.11898461355E+03  0.00000000000E+00 0. -1.
        -15    1    3    3    0    0 -0.11892255675E+03 -0.16550150127E+02  0.53947383112E+01  0.12020292386E+03  0.17770000000E+01 0.  1.
         15    1    3    3    0    0  0.17028386844E+02 -0.72134042130E-01  0.74804215898E+01  0.18683832530E+02  0.17770000000E+01 0. -1.
</event>
<event>
 7    1  0.1093668E-008  0.1454963E+03  0.7546771E-02  0.1102442E+00
        -11   -1    0    0    0    0  0.00000000000E+00  0.00000000000E+00  0.18250000000E+03  0.18250000000E+03  0.00000000000E+00 0. -1.
         11   -1    0    0    0    0 -0.00000000000E+00 -0.00000000000E+00 -0.18250000000E+03  0.18250000000E+03  0.00000000000E+00 0. -1.
         23    2    1    2    0    0 -0.40918816515E+02  0.15114778262E+02 -0.98481187322E+02  0.13893747260E+03  0.87762582969E+02 0.  0.
        -11    1    1    2    0    0  0.80749091065E+02 -0.16842796897E+02 -0.32869542070E+02  0.88794720063E+02  0.00000000000E+00 0. -1.
         11    1    1    2    0    0 -0.39830274550E+02  0.17280186348E+01  0.13135072939E+03  0.13726780734E+03  0.00000000000E+00 0. -1.
        -15    1    3    3    0    0 -0.18383319030E+02 -0.35173163608E+02 -0.58982598434E+02  0.71114010601E+02  0.17770000000E+01 0.  1.
         15    1    3    3    0    0 -0.22535497485E+02  0.50287941870E+02 -0.39498588888E+02  0.67823461999E+02  0.17770000000E+01 0. -1.
</event>
<event>
 7    1  0.1093668E-008  0.1593832E+03  0.7546771E-02  0.1088507E+00
        -11   -1    0    0    0    0  0.00000000000E+00  0.00000000000E+00  0.18250000000E+03  0.18250000000E+03  0.00000000000E+00 0. -1.
         11   -1    0    0    0    0 -0.00000000000E+00 -0.00000000000E+00 -0.18250000000E+03  0.18250000000E+03  0.00000000000E+00 0. -1.
         23    2    1    2    0    0 -0.90010021180E+02 -0.23586003472E+02  0.66500147542E+02  0.14704876214E+03  0.92428163187E+02 0.  0.
        -11    1    1    2    0    0  0.12715599683E+03 -0.32939172551E+02 -0.72525445807E+02  0.15004524954E+03  0.00000000000E+00 0. -1.
         11    1    1    2    0    0 -0.37145975652E+02  0.56525176023E+02  0.60252982653E+01  0.67905988328E+02  0.00000000000E+00 0. -1.
        -15    1    3    3    0    0 -0.73219188926E+02 -0.48891186981E+02  0.18128941168E+02  0.89906696237E+02  0.17770000000E+01 0. -1.
         15    1    3    3    0    0 -0.16790832254E+02  0.25305183508E+02  0.48371206374E+02  0.57142065899E+02  0.17770000000E+01 0.  1.
</event>
<event>
 7    1  0.1093668E-008  0.1442226E+03  0.7546771E-02  0.1103805E+00
        -11   -1    0    0    0    0  0.00000000000E+00  0.00000000000E+00  0.18250000000E+03  0.18250000000E+03  0.00000000000E+00 0.  1.
         11   -1    0    0    0    0 -0.00000000000E+00 -0.00000000000E+00 -0.18250000000E+03  0.18250000000E+03  0.00000000000E+00 0. -1.
         23    2    1    2    0    0  0.44363271041E+02 -0.30181345744E+01  0.91635316257E+02  0.13709167629E+03  0.91759945337E+02 0.  0.
        -11    1    1    2    0    0 -0.77266774870E+02 -0.41369819085E+02  0.31348686213E+02  0.93082525520E+02  0.00000000000E+00 0.  1.
         11    1    1    2    0    0  0.32903503829E+02  0.44387953659E+02 -0.12298400247E+03  0.13482579819E+03  0.00000000000E+00 0. -1.
        -15    1    3    3    0    0  0.54462967440E+02  0.14995344384E+02  0.99898172762E+02  0.11477751446E+03  0.17770000000E+01 0.  1.
         15    1    3    3    0    0 -0.10099696398E+02 -0.18013478958E+02 -0.82628565042E+01  0.22314161829E+02  0.17770000000E+01 0. -1.
</event>
<event>
 7    1  0.1093668E-008  0.1470830E+03  0.7546771E-02  0.1100765E+00
        -11   -1    0    0    0    0  0.00000000000E+00  0.00000000000E+00  0.18250000000E+03  0.18250000000E+03  0.00000000000E+00 0.  1.
         11   -1    0    0    0    0 -0.00000000000E+00 -0.00000000000E+00 -0.18250000000E+03  0.18250000000E+03  0.00000000000E+00 0.  1.
         23    2    1    2    0    0  0.21432994469E+02  0.36354574573E+02  0.12392942770E+03  0.16112161280E+03  0.93918276801E+02 0.  0.
        -11    1    1    2    0    0 -0.66757323172E+01  0.49528689901E+02 -0.10265972659E+03  0.11417826408E+03  0.00000000000E+00 0.  1.
         11    1    1    2    0    0 -0.14757262152E+02 -0.85883264475E+02 -0.21269701109E+02  0.89700123123E+02  0.00000000000E+00 0.  1.
        -15    1    3    3    0    0  0.31096936209E+02  0.63556312254E+02  0.10474123921E+03  0.12641324768E+03  0.17770000000E+01 0.  1.
         15    1    3    3    0    0 -0.96639417395E+01 -0.27201737680E+02  0.19188188487E+02  0.34708365118E+02  0.17770000000E+01 0. -1.
</event>
<event>
 7    1  0.1093668E-008  0.1589129E+03  0.7546771E-02  0.1088953E+00
        -11   -1    0    0    0    0  0.00000000000E+00  0.00000000000E+00  0.18250000000E+03  0.18250000000E+03  0.00000000000E+00 0.  1.
         11   -1    0    0    0    0 -0.00000000000E+00 -0.00000000000E+00 -0.18250000000E+03  0.18250000000E+03  0.00000000000E+00 0. -1.
         23    2    1    2    0    0  0.11860523621E+03  0.62513451584E+02 -0.72519453534E+02  0.17619398796E+03  0.88374863888E+02 0.  0.
        -11    1    1    2    0    0 -0.94200871701E+02 -0.77003204409E+02  0.12369088738E+02  0.12229592011E+03  0.00000000000E+00 0.  1.
         11    1    1    2    0    0 -0.24404364507E+02  0.14489752825E+02  0.60150364796E+02  0.66510091934E+02  0.00000000000E+00 0. -1.
        -15    1    3    3    0    0  0.67844384590E+02  0.89150893792E+01  0.56237927215E+01  0.68681322880E+02  0.17770000000E+01 0.  1.
         15    1    3    3    0    0  0.50760851619E+02  0.53598362205E+02 -0.78143246255E+02  0.10751266508E+03  0.17770000000E+01 0. -1.
</event>
<event>
 7    1  0.1093668E-008  0.1463804E+03  0.7546771E-02  0.1101504E+00
        -11   -1    0    0    0    0  0.00000000000E+00  0.00000000000E+00  0.18250000000E+03  0.18250000000E+03  0.00000000000E+00 0.  1.
         11   -1    0    0    0    0 -0.00000000000E+00 -0.00000000000E+00 -0.18250000000E+03  0.18250000000E+03  0.00000000000E+00 0.  1.
         23    2    1    2    0    0  0.56082083155E+02 -0.26605695668E+02  0.65327249399E+02  0.13274573578E+03  0.97471625417E+02 0.  0.
        -11    1    1    2    0    0 -0.10541580337E+03 -0.51665371780E+02 -0.74876040509E+02  0.13924160184E+03  0.00000000000E+00 0.  1.
         11    1    1    2    0    0  0.49333720219E+02  0.78271067447E+02  0.95487911095E+01  0.93012662372E+02  0.00000000000E+00 0.  1.
        -15    1    3    3    0    0  0.77656451530E+02 -0.14835298158E+02  0.20663421254E+02  0.81735825943E+02  0.17770000000E+01 0.  1.
         15    1    3    3    0    0 -0.21574368374E+02 -0.11770397510E+02  0.44663828145E+02  0.51009909840E+02  0.17770000000E+01 0. -1.
</event>
<event>
 7    1  0.1093668E-008  0.1508102E+03  0.7546771E-02  0.1096915E+00
        -11   -1    0    0    0    0  0.00000000000E+00  0.00000000000E+00  0.18250000000E+03  0.18250000000E+03  0.00000000000E+00 0. -1.
         11   -1    0    0    0    0 -0.00000000000E+00 -0.00000000000E+00 -0.18250000000E+03  0.18250000000E+03  0.00000000000E+00 0. -1.
         23    2    1    2    0    0 -0.38094141948E+02  0.21070553613E+02 -0.80440237416E+02  0.12942550351E+03  0.91570722854E+02 0.  0.
        -11    1    1    2    0    0 -0.73522272045E+02  0.35768798134E+02 -0.81346304778E+01  0.82165099766E+02  0.00000000000E+00 0. -1.
         11    1    1    2    0    0  0.11161641399E+03 -0.56839351746E+02  0.88574867894E+02  0.15340939672E+03  0.00000000000E+00 0. -1.
        -15    1    3    3    0    0  0.56711422987E+01  0.35613908883E+02 -0.74634065145E+02  0.82909069287E+02  0.17770000000E+01 0. -1.
         15    1    3    3    0    0 -0.43765284247E+02 -0.14543355271E+02 -0.58061722704E+01  0.46516434227E+02  0.17770000000E+01 0.  1.
</event>
<event>
 7    1  0.1093668E-008  0.1173066E+03  0.7546771E-02  0.1136856E+00
        -11   -1    0    0    0    0  0.00000000000E+00  0.00000000000E+00  0.18250000000E+03  0.18250000000E+03  0.00000000000E+00 0.  1.
         11   -1    0    0    0    0 -0.00000000000E+00 -0.00000000000E+00 -0.18250000000E+03  0.18250000000E+03  0.00000000000E+00 0.  1.
         23    2    1    2    0    0 -0.23068177314E+02  0.47356185122E+02  0.54935301624E+02  0.11835050828E+03  0.90632258999E+02 0.  0.
        -11    1    1    2    0    0  0.53666937785E+02 -0.10200193698E+03  0.49048893178E+02  0.12526104455E+03  0.00000000000E+00 0.  1.
         11    1    1    2    0    0 -0.30598760471E+02  0.54645751860E+02 -0.10398419480E+03  0.12138844717E+03  0.00000000000E+00 0.  1.
        -15    1    3    3    0    0  0.98899613596E+01  0.56416016209E+02  0.46099237239E+01  0.57489019354E+02  0.17770000000E+01 0.  1.
         15    1    3    3    0    0 -0.32958138674E+02 -0.90598310870E+01  0.50325377901E+02  0.60861488924E+02  0.17770000000E+01 0. -1.
</event>
<event>
 7    1  0.1093668E-008  0.1663154E+03  0.7546771E-02  0.1082121E+00
        -11   -1    0    0    0    0  0.00000000000E+00  0.00000000000E+00  0.18250000000E+03  0.18250000000E+03  0.00000000000E+00 0. -1.
         11   -1    0    0    0    0 -0.00000000000E+00 -0.00000000000E+00 -0.18250000000E+03  0.18250000000E+03  0.00000000000E+00 0. -1.
         23    2    1    2    0    0 -0.27526976396E+02 -0.26100723271E+02  0.11341616964E+03  0.14854676377E+03  0.88113173295E+02 0.  0.
        -11    1    1    2    0    0  0.23683299783E+02 -0.18828020403E+02  0.43611776157E+02  0.53078998299E+02  0.00000000000E+00 0. -1.
         11    1    1    2    0    0  0.38436766136E+01  0.44928743674E+02 -0.15702794579E+03  0.16337423793E+03  0.00000000000E+00 0. -1.
        -15    1    3    3    0    0  0.14469888802E+02  0.13787992168E+02  0.78207675945E+02  0.80740849114E+02  0.17770000000E+01 0.  1.
         15    1    3    3    0    0 -0.41996865198E+02 -0.39888715439E+02  0.35208493691E+02  0.67805914660E+02  0.17770000000E+01 0. -1.
</event>
<event>
 7    1  0.1093668E-008  0.1572894E+03  0.7546771E-02  0.1090506E+00
        -11   -1    0    0    0    0  0.00000000000E+00  0.00000000000E+00  0.18250000000E+03  0.18250000000E+03  0.00000000000E+00 0.  1.
         11   -1    0    0    0    0 -0.00000000000E+00 -0.00000000000E+00 -0.18250000000E+03  0.18250000000E+03  0.00000000000E+00 0.  1.
         23    2    1    2    0    0 -0.57467255925E+02 -0.16752974986E+02  0.86182016765E+02  0.14002657965E+03  0.92719767689E+02 0.  0.
        -11    1    1    2    0    0  0.36631428880E+02  0.67199862130E+02 -0.13274604810E+03  0.15322922808E+03  0.00000000000E+00 0.  1.
         11    1    1    2    0    0  0.20835827045E+02 -0.50446887144E+02  0.46564031330E+02  0.71744192273E+02  0.00000000000E+00 0.  1.
        -15    1    3    3    0    0 -0.73417855903E+02 -0.32910461251E+02  0.85248480269E+02  0.11723370310E+03  0.17770000000E+01 0.  1.
         15    1    3    3    0    0  0.15950599978E+02  0.16157486265E+02  0.93353649643E+00  0.22792876551E+02  0.17770000000E+01 0. -1.
</event>
<event>
 7    1  0.1093668E-008  0.1473197E+03  0.7546771E-02  0.1100517E+00
        -11   -1    0    0    0    0  0.00000000000E+00  0.00000000000E+00  0.18250000000E+03  0.18250000000E+03  0.00000000000E+00 0.  1.
         11   -1    0    0    0    0 -0.00000000000E+00 -0.00000000000E+00 -0.18250000000E+03  0.18250000000E+03  0.00000000000E+00 0.  1.
         23    2    1    2    0    0  0.76526729060E+02 -0.15854386964E+02 -0.77801715242E+02  0.14305169473E+03  0.91120681655E+02 0.  0.
        -11    1    1    2    0    0 -0.61168270136E+02 -0.68020633853E+02  0.98267885835E+02  0.13425699716E+03  0.00000000000E+00 0.  1.
         11    1    1    2    0    0 -0.15358458924E+02  0.83875020818E+02 -0.20466170592E+02  0.87691308101E+02  0.00000000000E+00 0.  1.
        -15    1    3    3    0    0  0.10593068920E+02  0.22297484664E+02  0.10091536148E+02  0.26728033267E+02  0.17770000000E+01 0. -1.
         15    1    3    3    0    0  0.65933660140E+02 -0.38151871629E+02 -0.87893251391E+02  0.11632366147E+03  0.17770000000E+01 0.  1.
</event>
<event>
 7    1  0.1093668E-008  0.1546762E+03  0.7546771E-02  0.1093049E+00
        -11   -1    0    0    0    0  0.00000000000E+00  0.00000000000E+00  0.18250000000E+03  0.18250000000E+03  0.00000000000E+00 0. -1.
         11   -1    0    0    0    0 -0.00000000000E+00 -0.00000000000E+00 -0.18250000000E+03  0.18250000000E+03  0.00000000000E+00 0. -1.
         23    2    1    2    0    0  0.92431215514E+02  0.37641499131E+02 -0.11555434871E+03  0.17663038575E+03  0.88797936951E+02 0.  0.
        -11    1    1    2    0    0 -0.56299947591E+02  0.24157555796E+02  0.96476757541E+02  0.11428489116E+03  0.00000000000E+00 0. -1.
         11    1    1    2    0    0 -0.36131267923E+02 -0.61799054926E+02  0.19077591164E+02  0.74084723096E+02  0.00000000000E+00 0. -1.
        -15    1    3    3    0    0  0.40799186510E+02  0.12209920730E+02  0.51111107537E+01  0.42929441719E+02  0.17770000000E+01 0.  1.
         15    1    3    3    0    0  0.51632029004E+02  0.25431578400E+02 -0.12066545946E+03  0.13370094403E+03  0.17770000000E+01 0. -1.
</event>
<event>
 7    1  0.1093668E-008  0.1457474E+03  0.7546771E-02  0.1102175E+00
        -11   -1    0    0    0    0  0.00000000000E+00  0.00000000000E+00  0.18250000000E+03  0.18250000000E+03  0.00000000000E+00 0.  1.
         11   -1    0    0    0    0 -0.00000000000E+00 -0.00000000000E+00 -0.18250000000E+03  0.18250000000E+03  0.00000000000E+00 0. -1.
         23    2    1    2    0    0  0.68986047167E+02  0.69121874124E+02 -0.23733500930E+02  0.13747893068E+03  0.93809749639E+02 0.  0.
        -11    1    1    2    0    0  0.60847288805E+02 -0.43186863849E+02  0.53505223718E+02  0.91816701799E+02  0.00000000000E+00 0.  1.
         11    1    1    2    0    0 -0.12983333597E+03 -0.25935010275E+02 -0.29771722788E+02  0.13570436753E+03  0.00000000000E+00 0. -1.
        -15    1    3    3    0    0  0.99046056332E+01  0.16409750756E+02 -0.50368901530E+02  0.53921842541E+02  0.17770000000E+01 0. -1.
         15    1    3    3    0    0  0.59081441534E+02  0.52712123368E+02  0.26635400600E+02  0.83557088136E+02  0.17770000000E+01 0.  1.
</event>
<event>
 7    1  0.1093668E-008  0.1719609E+03  0.7546771E-02  0.1077168E+00
        -11   -1    0    0    0    0  0.00000000000E+00  0.00000000000E+00  0.18250000000E+03  0.18250000000E+03  0.00000000000E+00 0.  1.
         11   -1    0    0    0    0 -0.00000000000E+00 -0.00000000000E+00 -0.18250000000E+03  0.18250000000E+03  0.00000000000E+00 0.  1.
         23    2    1    2    0    0  0.49951780056E+02 -0.12515258231E+03  0.20586048457E+00  0.16282542117E+03  0.91398721060E+02 0.  0.
        -11    1    1    2    0    0 -0.22521157031E+02 -0.28130307566E+02  0.25774785470E+02  0.44304133936E+02  0.00000000000E+00 0.  1.
         11    1    1    2    0    0 -0.27430623025E+02  0.15328288987E+03 -0.25980645955E+02  0.15787044490E+03  0.00000000000E+00 0.  1.
        -15    1    3    3    0    0  0.59827549887E+02 -0.13209630724E+03  0.12426833490E+02  0.14555532980E+03  0.17770000000E+01 0.  1.
         15    1    3    3    0    0 -0.98757698317E+01  0.69437249364E+01 -0.12220973006E+02  0.17270091371E+02  0.17770000000E+01 0. -1.
</event>
<event>
 7    1  0.1093668E-008  0.1718146E+03  0.7546771E-02  0.1077294E+00
        -11   -1    0    0    0    0  0.00000000000E+00  0.00000000000E+00  0.18250000000E+03  0.18250000000E+03  0.00000000000E+00 0.  1.
         11   -1    0    0    0    0 -0.00000000000E+00 -0.00000000000E+00 -0.18250000000E+03  0.18250000000E+03  0.00000000000E+00 0.  1.
         23    2    1    2    0    0 -0.87357170416E+02  0.26857543415E+02  0.10913529286E+03  0.16789731587E+03  0.89030296356E+02 0.  0.
        -11    1    1    2    0    0 -0.34017857700E+02  0.12933267764E+02 -0.23476021999E+02  0.43308286348E+02  0.00000000000E+00 0.  1.
         11    1    1    2    0    0  0.12137502812E+03 -0.39790811179E+02 -0.85659270857E+02  0.15379439778E+03  0.00000000000E+00 0.  1.
        -15    1    3    3    0    0 -0.82292488783E+02 -0.16008159775E+02  0.79160008564E+02  0.11531599878E+03  0.17770000000E+01 0.  1.
         15    1    3    3    0    0 -0.50646816337E+01  0.42865703190E+02  0.29975284292E+02  0.52581317094E+02  0.17770000000E+01 0. -1.
</event>
<event>
 7    1  0.1093668E-008  0.1358319E+03  0.7546771E-02  0.1113192E+00
        -11   -1    0    0    0    0  0.00000000000E+00  0.00000000000E+00  0.18250000000E+03  0.18250000000E+03  0.00000000000E+00 0.  1.
         11   -1    0    0    0    0 -0.00000000000E+00 -0.00000000000E+00 -0.18250000000E+03  0.18250000000E+03  0.00000000000E+00 0.  1.
         23    2    1    2    0    0  0.54010771283E+02 -0.59353481912E+01  0.85552662244E+02  0.13717449958E+03  0.92440216061E+02 0.  0.
        -11    1    1    2    0    0  0.49010089709E+02 -0.50185552331E+01 -0.11074145740E+03  0.12120579679E+03  0.00000000000E+00 0.  1.
         11    1    1    2    0    0 -0.10302086099E+03  0.10953903424E+02  0.25188795153E+02  0.10661970363E+03  0.00000000000E+00 0.  1.
        -15    1    3    3    0    0 -0.65697725961E+01 -0.36179435960E+02  0.45338161283E+02  0.58402226805E+02  0.17770000000E+01 0. -1.
         15    1    3    3    0    0  0.60580543879E+02  0.30244087769E+02  0.40214500961E+02  0.78772272776E+02  0.17770000000E+01 0.  1.
</event>
<event>
 7    1  0.1093668E-008  0.1823380E+03  0.7546771E-02  0.1068584E+00
        -11   -1    0    0    0    0  0.00000000000E+00  0.00000000000E+00  0.18250000000E+03  0.18250000000E+03  0.00000000000E+00 0.  1.
         11   -1    0    0    0    0 -0.00000000000E+00 -0.00000000000E+00 -0.18250000000E+03  0.18250000000E+03  0.00000000000E+00 0. -1.
         23    2    1    2    0    0  0.13349278501E+03 -0.10791768840E+02  0.79475699483E+02  0.17978627001E+03  0.89832789970E+02 0.  0.
        -11    1    1    2    0    0  0.11448547711E+02  0.18724711124E+02 -0.75214596999E+01  0.23200353605E+02  0.00000000000E+00 0.  1.
         11    1    1    2    0    0 -0.14494133272E+03 -0.79329422848E+01 -0.71954239783E+02  0.16201337638E+03  0.00000000000E+00 0. -1.
        -15    1    3    3    0    0 -0.10890815517E+02 -0.64543521128E+01 -0.34182899299E+01  0.13232949742E+02  0.17770000000E+01 0. -1.
         15    1    3    3    0    0  0.14438360052E+03 -0.43374167267E+01  0.82893989413E+02  0.16655332027E+03  0.17770000000E+01 0.  1.
</event>
<event>
 7    1  0.1093668E-008  0.1308454E+03  0.7546771E-02  0.1119132E+00
        -11   -1    0    0    0    0  0.00000000000E+00  0.00000000000E+00  0.18250000000E+03  0.18250000000E+03  0.00000000000E+00 0. -1.
         11   -1    0    0    0    0 -0.00000000000E+00 -0.00000000000E+00 -0.18250000000E+03  0.18250000000E+03  0.00000000000E+00 0.  1.
         23    2    1    2    0    0  0.48285037993E+02 -0.59618345674E+02  0.13692996693E+02  0.11953184208E+03  0.90634270992E+02 0.  0.
        -11    1    1    2    0    0 -0.12297859291E+03  0.26238781457E+01  0.49119051802E+02  0.13245112420E+03  0.00000000000E+00 0. -1.
         11    1    1    2    0    0  0.74693554918E+02  0.56994467528E+02 -0.62812048494E+02  0.11301703372E+03  0.00000000000E+00 0.  1.
        -15    1    3    3    0    0  0.75713814174E+01 -0.21609010548E+02  0.48615248695E+02  0.53766860501E+02  0.17770000000E+01 0.  1.
         15    1    3    3    0    0  0.40713656576E+02 -0.38009335126E+02 -0.34922252002E+02  0.65764981582E+02  0.17770000000E+01 0. -1.
</event>
<event>
 7    1  0.1093668E-008  0.2146141E+03  0.7546771E-02  0.1045426E+00
        -11   -1    0    0    0    0  0.00000000000E+00  0.00000000000E+00  0.18250000000E+03  0.18250000000E+03  0.00000000000E+00 0.  1.
         11   -1    0    0    0    0 -0.00000000000E+00 -0.00000000000E+00 -0.18250000000E+03  0.18250000000E+03  0.00000000000E+00 0. -1.
         23    2    1    2    0    0 -0.60120970083E+02 -0.33595791190E+02  0.30726353713E+02  0.12003660400E+03  0.93388806921E+02 0.  0.
        -11    1    1    2    0    0 -0.89475212132E+02  0.24657972026E+02 -0.18195197568E+02  0.94577451779E+02  0.00000000000E+00 0.  1.
         11    1    1    2    0    0  0.14959618222E+03  0.89378191635E+01 -0.12531156144E+02  0.15038594422E+03  0.00000000000E+00 0. -1.
        -15    1    3    3    0    0 -0.16842174680E+02 -0.98478112165E+00 -0.32551812107E+02  0.36707040773E+02  0.17770000000E+01 0. -1.
         15    1    3    3    0    0 -0.43278795403E+02 -0.32611010068E+02  0.63278165820E+02  0.83329563227E+02  0.17770000000E+01 0.  1.
</event>
<event>
 7    1  0.1093668E-008  0.1851542E+03  0.7546771E-02  0.1066361E+00
        -11   -1    0    0    0    0  0.00000000000E+00  0.00000000000E+00  0.18250000000E+03  0.18250000000E+03  0.00000000000E+00 0. -1.
         11   -1    0    0    0    0 -0.00000000000E+00 -0.00000000000E+00 -0.18250000000E+03  0.18250000000E+03  0.00000000000E+00 0.  1.
         23    2    1    2    0    0  0.93068014418E+02  0.17491312160E+01 -0.13130096428E+03  0.18515421998E+03  0.91528286259E+02 0.  0.
        -11    1    1    2    0    0 -0.93715683570E+01  0.30397828433E+02  0.47190692790E+02  0.56910594382E+02  0.00000000000E+00 0.  1.
         11    1    1    2    0    0 -0.83696446060E+02 -0.32146959649E+02  0.84110271495E+02  0.12293518564E+03  0.00000000000E+00 0. -1.
        -15    1    3    3    0    0  0.10990232402E+03  0.63875161128E+01 -0.12482834413E+03  0.16644697178E+03  0.17770000000E+01 0.  1.
         15    1    3    3    0    0 -0.16834309607E+02 -0.46383848968E+01 -0.64726201573E+01  0.18707248197E+02  0.17770000000E+01 0. -1.
</event>
<event>
 7    1  0.1093668E-008  0.1518753E+03  0.7546771E-02  0.1095838E+00
        -11   -1    0    0    0    0  0.00000000000E+00  0.00000000000E+00  0.18250000000E+03  0.18250000000E+03  0.00000000000E+00 0. -1.
         11   -1    0    0    0    0 -0.00000000000E+00 -0.00000000000E+00 -0.18250000000E+03  0.18250000000E+03  0.00000000000E+00 0. -1.
         23    2    1    2    0    0 -0.75041733815E+01 -0.75467746847E+02  0.56846663021E+02  0.12990174997E+03  0.88832584767E+02 0.  0.
        -11    1    1    2    0    0  0.12467705223E+02 -0.36672021618E+01  0.77779356921E+02  0.78857595755E+02  0.00000000000E+00 0. -1.
         11    1    1    2    0    0 -0.49635318413E+01  0.79134949008E+02 -0.13462601994E+03  0.15624065428E+03  0.00000000000E+00 0. -1.
        -15    1    3    3    0    0 -0.21859139723E+02 -0.84986930631E+02  0.66462153512E+02  0.11009530392E+03  0.17770000000E+01 0. -1.
         15    1    3    3    0    0  0.14354966341E+02  0.95191837849E+01 -0.96154904912E+01  0.19806446046E+02  0.17770000000E+01 0.  1.
</event>
<event>
 7    1  0.1093668E-008  0.1285376E+03  0.7546771E-02  0.1121981E+00
        -11   -1    0    0    0    0  0.00000000000E+00  0.00000000000E+00  0.18250000000E+03  0.18250000000E+03  0.00000000000E+00 0. -1.
         11   -1    0    0    0    0 -0.00000000000E+00 -0.00000000000E+00 -0.18250000000E+03  0.18250000000E+03  0.00000000000E+00 0.  1.
         23    2    1    2    0    0 -0.29312949797E+02 -0.19334997515E+02 -0.40186990240E+01  0.10550638349E+03  0.99410039037E+02 0.  0.
        -11    1    1    2    0    0  0.97551843299E+02 -0.65340000502E+02  0.65623955251E+02  0.13450717936E+03  0.00000000000E+00 0. -1.
         11    1    1    2    0    0 -0.68238893502E+02  0.84674998017E+02 -0.61605256227E+02  0.12498643715E+03  0.00000000000E+00 0.  1.
        -15    1    3    3    0    0  0.18761636927E+02 -0.59933258159E+01 -0.39557762538E+02  0.44225482253E+02  0.17770000000E+01 0.  1.
         15    1    3    3    0    0 -0.48074586724E+02 -0.13341671699E+02  0.35539063514E+02  0.61280901241E+02  0.17770000000E+01 0. -1.
</event>
<event>
 7    1  0.1093668E-008  0.1601157E+03  0.7546771E-02  0.1087815E+00
        -11   -1    0    0    0    0  0.00000000000E+00  0.00000000000E+00  0.18250000000E+03  0.18250000000E+03  0.00000000000E+00 0. -1.
         11   -1    0    0    0    0 -0.00000000000E+00 -0.00000000000E+00 -0.18250000000E+03  0.18250000000E+03  0.00000000000E+00 0.  1.
         23    2    1    2    0    0 -0.40039774262E+02  0.50433210627E+02  0.10287051362E+03  0.15280447723E+03  0.92844889106E+02 0.  0.
        -11    1    1    2    0    0  0.58250585228E+02  0.26782150627E+02  0.18919153710E+02  0.66845707781E+02  0.00000000000E+00 0. -1.
         11    1    1    2    0    0 -0.18210810966E+02 -0.77215361254E+02 -0.12178966733E+03  0.14534981499E+03  0.00000000000E+00 0.  1.
        -15    1    3    3    0    0 -0.61229928774E+01  0.20639845641E+02  0.10536491530E+03  0.10755657755E+03  0.17770000000E+01 0. -1.
         15    1    3    3    0    0 -0.33916781385E+02  0.29793364986E+02 -0.24944016812E+01  0.45247899680E+02  0.17770000000E+01 0.  1.
</event>
<event>
 7    1  0.1093668E-008  0.1237083E+03  0.7546771E-02  0.1128163E+00
        -11   -1    0    0    0    0  0.00000000000E+00  0.00000000000E+00  0.18250000000E+03  0.18250000000E+03  0.00000000000E+00 0. -1.
         11   -1    0    0    0    0 -0.00000000000E+00 -0.00000000000E+00 -0.18250000000E+03  0.18250000000E+03  0.00000000000E+00 0. -1.
         23    2    1    2    0    0 -0.25694861254E+02 -0.13700130330E+02 -0.54561777860E+02  0.10997078196E+03  0.90932204498E+02 0.  0.
        -11    1    1    2    0    0 -0.74823012664E+02 -0.80894879862E+02  0.13468887135E+02  0.11101295300E+03  0.00000000000E+00 0. -1.
         11    1    1    2    0    0  0.10051787392E+03  0.94595010192E+02  0.41092890725E+02  0.14401626505E+03  0.00000000000E+00 0. -1.
        -15    1    3    3    0    0 -0.56112464117E+02 -0.12961352661E+00 -0.14775355353E+02  0.58052513157E+02  0.17770000000E+01 0. -1.
         15    1    3    3    0    0  0.30417602863E+02 -0.13570516803E+02 -0.39786422507E+02  0.51918268799E+02  0.17770000000E+01 0.  1.
</event>
<event>
 7    1  0.1093668E-008  0.1799995E+03  0.7546771E-02  0.1070463E+00
        -11   -1    0    0    0    0  0.00000000000E+00  0.00000000000E+00  0.18250000000E+03  0.18250000000E+03  0.00000000000E+00 0. -1.
         11   -1    0    0    0    0 -0.00000000000E+00 -0.00000000000E+00 -0.18250000000E+03  0.18250000000E+03  0.00000000000E+00 0.  1.
         23    2    1    2    0    0  0.35931604884E+01  0.69803931182E+01  0.16708579621E+03  0.18515119682E+03  0.79383031572E+02 0.  0.
        -11    1    1    2    0    0 -0.12007279737E+02 -0.24127304863E+02 -0.15482281871E+03  0.15715090454E+03  0.00000000000E+00 0.  1.
         11    1    1    2    0    0  0.84141192487E+01  0.17146911745E+02 -0.12262977499E+02  0.22697898631E+02  0.00000000000E+00 0. -1.
        -15    1    3    3    0    0 -0.17832711424E+02  0.36145875479E+02  0.61783269080E+02  0.73789294468E+02  0.17770000000E+01 0.  1.
         15    1    3    3    0    0  0.21425871912E+02 -0.29165482361E+02  0.10530252713E+03  0.11136190236E+03  0.17770000000E+01 0. -1.
</event>
<event>
 7    1  0.1093668E-008  0.1364745E+03  0.7546771E-02  0.1112447E+00
        -11   -1    0    0    0    0  0.00000000000E+00  0.00000000000E+00  0.18250000000E+03  0.18250000000E+03  0.00000000000E+00 0.  1.
         11   -1    0    0    0    0 -0.00000000000E+00 -0.00000000000E+00 -0.18250000000E+03  0.18250000000E+03  0.00000000000E+00 0. -1.
         23    2    1    2    0    0  0.18016905295E+01  0.42065966760E+02 -0.53417871263E+02  0.11329763166E+03  0.90609561977E+02 0.  0.
        -11    1    1    2    0    0 -0.94672246611E+02 -0.50422390746E+02  0.10072554520E+03  0.14714240457E+03  0.00000000000E+00 0.  1.
         11    1    1    2    0    0  0.92870556081E+02  0.83564239867E+01 -0.47307673942E+02  0.10455996376E+03  0.00000000000E+00 0. -1.
        -15    1    3    3    0    0 -0.32389347704E+01  0.69008168890E+02 -0.24264374195E+02  0.73242990491E+02  0.17770000000E+01 0.  1.
         15    1    3    3    0    0  0.50406253000E+01 -0.26942202130E+02 -0.29153497068E+02  0.40054641171E+02  0.17770000000E+01 0. -1.
</event>
<event>
 7    1  0.1093668E-008  0.1590356E+03  0.7546771E-02  0.1088836E+00
        -11   -1    0    0    0    0  0.00000000000E+00  0.00000000000E+00  0.18250000000E+03  0.18250000000E+03  0.00000000000E+00 0. -1.
         11   -1    0    0    0    0 -0.00000000000E+00 -0.00000000000E+00 -0.18250000000E+03  0.18250000000E+03  0.00000000000E+00 0. -1.
         23    2    1    2    0    0  0.44447200946E+02 -0.10419594127E+03  0.91143785796E+02  0.17161582673E+03  0.91172662826E+02 0.  0.
        -11    1    1    2    0    0 -0.14323339184E+02  0.12041596866E+03 -0.32590259835E+02  0.12556786447E+03  0.00000000000E+00 0. -1.
         11    1    1    2    0    0 -0.30123861762E+02 -0.16220027386E+02 -0.58553525961E+02  0.67816308793E+02  0.00000000000E+00 0. -1.
        -15    1    3    3    0    0  0.36986731876E+02 -0.27377325371E+02  0.81773417937E+02  0.93848739413E+02  0.17770000000E+01 0.  1.
         15    1    3    3    0    0  0.74604690700E+01 -0.76818615899E+02  0.93703678595E+01  0.77767087319E+02  0.17770000000E+01 0. -1.
</event>
<event>
 7    1  0.1093668E-008  0.1824459E+03  0.7546771E-02  0.1068498E+00
        -11   -1    0    0    0    0  0.00000000000E+00  0.00000000000E+00  0.18250000000E+03  0.18250000000E+03  0.00000000000E+00 0.  1.
         11   -1    0    0    0    0 -0.00000000000E+00 -0.00000000000E+00 -0.18250000000E+03  0.18250000000E+03  0.00000000000E+00 0. -1.
         23    2    1    2    0    0  0.42301344058E+02 -0.17219831768E+02 -0.15809544987E+03  0.18812354187E+03  0.91161227627E+02 0.  0.
        -11    1    1    2    0    0  0.12260121810E+02  0.13636034212E+02  0.15002670565E+02  0.23692449006E+02  0.00000000000E+00 0. -1.
         11    1    1    2    0    0 -0.54561465869E+02  0.35837975565E+01  0.14309277930E+03  0.15318400912E+03  0.00000000000E+00 0.  1.
        -15    1    3    3    0    0 -0.15701350310E+02 -0.26764930052E+02 -0.10281767562E+03  0.10741287647E+03  0.17770000000E+01 0. -1.
         15    1    3    3    0    0  0.58002694368E+02  0.95450982836E+01 -0.55277774247E+02  0.80710665404E+02  0.17770000000E+01 0.  1.
</event>
<event>
 7    1  0.1093668E-008  0.1542231E+03  0.7546771E-02  0.1093496E+00
        -11   -1    0    0    0    0  0.00000000000E+00  0.00000000000E+00  0.18250000000E+03  0.18250000000E+03  0.00000000000E+00 0. -1.
         11   -1    0    0    0    0 -0.00000000000E+00 -0.00000000000E+00 -0.18250000000E+03  0.18250000000E+03  0.00000000000E+00 0.  1.
         23    2    1    2    0    0  0.97647644230E+02 -0.31132460339E+02 -0.97003644103E+02  0.17305456555E+03  0.10016927262E+03 0.  0.
        -11    1    1    2    0    0 -0.38855540264E+02 -0.25267375061E+02  0.10021252547E+03  0.11041170007E+03  0.00000000000E+00 0. -1.
         11    1    1    2    0    0 -0.58792103966E+02  0.56399835400E+02 -0.32088813669E+01  0.81533734377E+02  0.00000000000E+00 0.  1.
        -15    1    3    3    0    0  0.24275824644E+00  0.25171310600E+02 -0.39028355896E+02  0.46476059448E+02  0.17770000000E+01 0. -1.
         15    1    3    3    0    0  0.97404885984E+02 -0.56303770939E+02 -0.57975288207E+02  0.12657850610E+03  0.17770000000E+01 0.  1.
</event>
<event>
 7    1  0.1093668E-008  0.1453568E+03  0.7546771E-02  0.1102590E+00
        -11   -1    0    0    0    0  0.00000000000E+00  0.00000000000E+00  0.18250000000E+03  0.18250000000E+03  0.00000000000E+00 0. -1.
         11   -1    0    0    0    0 -0.00000000000E+00 -0.00000000000E+00 -0.18250000000E+03  0.18250000000E+03  0.00000000000E+00 0.  1.
         23    2    1    2    0    0 -0.76211192247E+02  0.15384603359E+02  0.66868120253E+01  0.12074120837E+03  0.92135194679E+02 0.  0.
        -11    1    1    2    0    0 -0.61207775911E+02 -0.38642328942E+02  0.55920201294E+02  0.91469614249E+02  0.00000000000E+00 0. -1.
         11    1    1    2    0    0  0.13741896816E+03  0.23257725583E+02 -0.62607013319E+02  0.15278917738E+03  0.00000000000E+00 0.  1.
        -15    1    3    3    0    0 -0.47444647789E+02  0.29119407066E+01  0.48839766740E+02  0.68175908844E+02  0.17770000000E+01 0. -1.
         15    1    3    3    0    0 -0.28766544458E+02  0.12472662653E+02 -0.42152954715E+02  0.52565299522E+02  0.17770000000E+01 0.  1.
</event>
<event>
 7    1  0.1093668E-008  0.1578920E+03  0.7546771E-02  0.1089927E+00
        -11   -1    0    0    0    0  0.00000000000E+00  0.00000000000E+00  0.18250000000E+03  0.18250000000E+03  0.00000000000E+00 0. -1.
         11   -1    0    0    0    0 -0.00000000000E+00 -0.00000000000E+00 -0.18250000000E+03  0.18250000000E+03  0.00000000000E+00 0.  1.
         23    2    1    2    0    0  0.35555831277E+01 -0.27919181144E+02 -0.97103289614E+02  0.13872678353E+03  0.94994467029E+02 0.  0.
        -11    1    1    2    0    0  0.46926116310E+02  0.13387796448E+02  0.14634780004E+03  0.15426915460E+03  0.00000000000E+00 0. -1.
         11    1    1    2    0    0 -0.50481699437E+02  0.14531384696E+02 -0.49244510424E+02  0.72004061872E+02  0.00000000000E+00 0.  1.
        -15    1    3    3    0    0 -0.26227705446E+02  0.26255526798E+02 -0.39071609298E+02  0.53916542940E+02  0.17770000000E+01 0. -1.
         15    1    3    3    0    0  0.29783288574E+02 -0.54174707942E+02 -0.58031680316E+02  0.84810240586E+02  0.17770000000E+01 0.  1.
</event>
<event>
 7    1  0.1093668E-008  0.1250070E+03  0.7546771E-02  0.1126470E+00
        -11   -1    0    0    0    0  0.00000000000E+00  0.00000000000E+00  0.18250000000E+03  0.18250000000E+03  0.00000000000E+00 0. -1.
         11   -1    0    0    0    0 -0.00000000000E+00 -0.00000000000E+00 -0.18250000000E+03  0.18250000000E+03  0.00000000000E+00 0.  1.
         23    2    1    2    0    0 -0.77958004249E+02  0.34984972873E+02 -0.17735102526E+00  0.12211145405E+03  0.87234035805E+02 0.  0.
        -11    1    1    2    0    0  0.63806610342E+02  0.52142277156E+02  0.86471175207E+02  0.11944607458E+03  0.00000000000E+00 0. -1.
         11    1    1    2    0    0  0.14151393908E+02 -0.87127250029E+02 -0.86293824182E+02  0.12344247137E+03  0.00000000000E+00 0.  1.
        -15    1    3    3    0    0 -0.23842810407E+02  0.29585579467E+02 -0.39606428415E+02  0.54914597525E+02  0.17770000000E+01 0.  1.
         15    1    3    3    0    0 -0.54115193842E+02  0.53993934063E+01  0.39429077390E+02  0.67196856523E+02  0.17770000000E+01 0. -1.
</event>
<event>
 7    1  0.1093668E-008  0.1500369E+03  0.7546771E-02  0.1097704E+00
        -11   -1    0    0    0    0  0.00000000000E+00  0.00000000000E+00  0.18250000000E+03  0.18250000000E+03  0.00000000000E+00 0.  1.
         11   -1    0    0    0    0 -0.00000000000E+00 -0.00000000000E+00 -0.18250000000E+03  0.18250000000E+03  0.00000000000E+00 0.  1.
         23    2    1    2    0    0  0.87961880403E+02 -0.96392950288E+02  0.72642220088E+02  0.17179757894E+03  0.84903608409E+02 0.  0.
        -11    1    1    2    0    0 -0.82066237259E+02  0.78039131137E+02  0.48472262295E+01  0.11335108684E+03  0.00000000000E+00 0.  1.
         11    1    1    2    0    0 -0.58956431432E+01  0.18353819151E+02 -0.77489446318E+02  0.79851334216E+02  0.00000000000E+00 0.  1.
        -15    1    3    3    0    0 -0.53981907459E+01 -0.13495402594E+01 -0.12417470248E+02  0.13722719067E+02  0.17770000000E+01 0. -1.
         15    1    3    3    0    0  0.93360071148E+02 -0.95043410029E+02  0.85059690336E+02  0.15807485987E+03  0.17770000000E+01 0.  1.
</event>
<event>
 7    1  0.1093668E-008  0.1606774E+03  0.7546771E-02  0.1087288E+00
        -11   -1    0    0    0    0  0.00000000000E+00  0.00000000000E+00  0.18250000000E+03  0.18250000000E+03  0.00000000000E+00 0. -1.
         11   -1    0    0    0    0 -0.00000000000E+00 -0.00000000000E+00 -0.18250000000E+03  0.18250000000E+03  0.00000000000E+00 0. -1.
         23    2    1    2    0    0 -0.67982660719E+02 -0.45918579014E+02 -0.71806800453E+02  0.14264798931E+03  0.91989533138E+02 0.  0.
        -11    1    1    2    0    0  0.88972096910E+02  0.10782265202E+03  0.71432603657E+02  0.15698527059E+03  0.00000000000E+00 0. -1.
         11    1    1    2    0    0 -0.20989436191E+02 -0.61904073011E+02  0.37419679661E+00  0.65366740092E+02  0.00000000000E+00 0. -1.
        -15    1    3    3    0    0 -0.11177137307E+02 -0.20239233045E+02  0.20698818848E+02  0.31083014386E+02  0.17770000000E+01 0.  1.
         15    1    3    3    0    0 -0.56805523412E+02 -0.25679345969E+02 -0.92505619301E+02  0.11156497493E+03  0.17770000000E+01 0. -1.
</event>
<event>
 7    1  0.1093668E-008  0.2103619E+03  0.7546771E-02  0.1048214E+00
        -11   -1    0    0    0    0  0.00000000000E+00  0.00000000000E+00  0.18250000000E+03  0.18250000000E+03  0.00000000000E+00 0.  1.
         11   -1    0    0    0    0 -0.00000000000E+00 -0.00000000000E+00 -0.18250000000E+03  0.18250000000E+03  0.00000000000E+00 0. -1.
         23    2    1    2    0    0  0.52179377432E+01 -0.55670928667E+02 -0.31399331258E+02  0.11184175969E+03  0.91630682826E+02 0.  0.
        -11    1    1    2    0    0 -0.49165044080E+02  0.14380112368E+03  0.28583003579E+02  0.15463813510E+03  0.00000000000E+00 0.  1.
         11    1    1    2    0    0  0.43947106337E+02 -0.88130195017E+02  0.28163276792E+01  0.98520105210E+02  0.00000000000E+00 0. -1.
        -15    1    3    3    0    0  0.71747698742E+01 -0.20473212758E+02  0.32339401345E+02  0.38982359751E+02  0.17770000000E+01 0.  1.
         15    1    3    3    0    0 -0.19568321310E+01 -0.35197715909E+02 -0.63738732604E+02  0.72859399944E+02  0.17770000000E+01 0. -1.
</event>
<event>
 7    1  0.1093668E-008  0.1605587E+03  0.7546771E-02  0.1087399E+00
        -11   -1    0    0    0    0  0.00000000000E+00  0.00000000000E+00  0.18250000000E+03  0.18250000000E+03  0.00000000000E+00 0. -1.
         11   -1    0    0    0    0 -0.00000000000E+00 -0.00000000000E+00 -0.18250000000E+03  0.18250000000E+03  0.00000000000E+00 0. -1.
         23    2    1    2    0    0  0.44541879680E+02 -0.15632565604E+02 -0.11703491301E+03  0.15653212527E+03  0.92610902304E+02 0.  0.
        -11    1    1    2    0    0 -0.10023957328E+03  0.41100616782E+02  0.92632097079E+02  0.14254100519E+03  0.00000000000E+00 0. -1.
         11    1    1    2    0    0  0.55697693597E+02 -0.25468051177E+02  0.24402815927E+02  0.65926869545E+02  0.00000000000E+00 0. -1.
        -15    1    3    3    0    0  0.11609517969E+02  0.37937633815E+02 -0.33482447661E+02  0.51944941980E+02  0.17770000000E+01 0.  1.
         15    1    3    3    0    0  0.32932361711E+02 -0.53570199419E+02 -0.83552465345E+02  0.10458718329E+03  0.17770000000E+01 0. -1.
</event>
<event>
 7    1  0.1093668E-008  0.1555341E+03  0.7546771E-02  0.1092208E+00
        -11   -1    0    0    0    0  0.00000000000E+00  0.00000000000E+00  0.18250000000E+03  0.18250000000E+03  0.00000000000E+00 0.  1.
         11   -1    0    0    0    0 -0.00000000000E+00 -0.00000000000E+00 -0.18250000000E+03  0.18250000000E+03  0.00000000000E+00 0.  1.
         23    2    1    2    0    0 -0.45015534943E+00  0.22202046374E+02  0.10985452334E+03  0.14409758671E+03  0.90570219688E+02 0.  0.
        -11    1    1    2    0    0 -0.16836047222E+02 -0.93676102370E+02 -0.11245033574E+03  0.14732190146E+03  0.00000000000E+00 0.  1.
         11    1    1    2    0    0  0.17286202572E+02  0.71474055995E+02  0.25958123954E+01  0.73580511834E+02  0.00000000000E+00 0.  1.
        -15    1    3    3    0    0 -0.39299468986E+02  0.20347692366E+02  0.90192335236E+02  0.10048030609E+03  0.17770000000E+01 0.  1.
         15    1    3    3    0    0  0.38849313637E+02  0.18543540082E+01  0.19662188105E+02  0.43617280623E+02  0.17770000000E+01 0. -1.
</event>
<event>
 7    1  0.1093668E-008  0.1379043E+03  0.7546771E-02  0.1110805E+00
        -11   -1    0    0    0    0  0.00000000000E+00  0.00000000000E+00  0.18250000000E+03  0.18250000000E+03  0.00000000000E+00 0.  1.
         11   -1    0    0    0    0 -0.00000000000E+00 -0.00000000000E+00 -0.18250000000E+03  0.18250000000E+03  0.00000000000E+00 0. -1.
         23    2    1    2    0    0  0.26892087700E+02  0.57699705677E+02 -0.52566767266E+02  0.12344427478E+03  0.91775724132E+02 0.  0.
        -11    1    1    2    0    0  0.44074037723E+02  0.59738390523E+02  0.71464788995E+02  0.10304568001E+03  0.00000000000E+00 0.  1.
         11    1    1    2    0    0 -0.70966125422E+02 -0.11743809620E+03 -0.18898021729E+02  0.13851004520E+03  0.00000000000E+00 0. -1.
        -15    1    3    3    0    0  0.53235945491E+02  0.53411917698E+02 -0.59194771674E+02  0.95885752681E+02  0.17770000000E+01 0.  1.
         15    1    3    3    0    0 -0.26343857791E+02  0.42877879784E+01  0.66280044083E+01  0.27558522103E+02  0.17770000000E+01 0. -1.
</event>
<event>
 7    1  0.1093668E-008  0.1456623E+03  0.7546771E-02  0.1102265E+00
        -11   -1    0    0    0    0  0.00000000000E+00  0.00000000000E+00  0.18250000000E+03  0.18250000000E+03  0.00000000000E+00 0.  1.
         11   -1    0    0    0    0 -0.00000000000E+00 -0.00000000000E+00 -0.18250000000E+03  0.18250000000E+03  0.00000000000E+00 0.  1.
         23    2    1    2    0    0  0.27399809252E+02 -0.10384199518E+02 -0.96989909527E+02  0.13582881327E+03  0.90464594283E+02 0.  0.
        -11    1    1    2    0    0  0.54808853135E+02 -0.99532556520E+01  0.12751446121E+03  0.13915105281E+03  0.00000000000E+00 0.  1.
         11    1    1    2    0    0 -0.82208662387E+02  0.20337455170E+02 -0.30524551687E+02  0.90020133914E+02  0.00000000000E+00 0.  1.
        -15    1    3    3    0    0  0.59675049631E+02  0.34251857430E+01 -0.57468372606E+02  0.82937416314E+02  0.17770000000E+01 0.  1.
         15    1    3    3    0    0 -0.32275240379E+02 -0.13809385261E+02 -0.39521536921E+02  0.52891396960E+02  0.17770000000E+01 0. -1.
</event>
<event>
 7    1  0.1093668E-008  0.1567517E+03  0.7546771E-02  0.1091025E+00
        -11   -1    0    0    0    0  0.00000000000E+00  0.00000000000E+00  0.18250000000E+03  0.18250000000E+03  0.00000000000E+00 0.  1.
         11   -1    0    0    0    0 -0.00000000000E+00 -0.00000000000E+00 -0.18250000000E+03  0.18250000000E+03  0.00000000000E+00 0. -1.
         23    2    1    2    0    0  0.34566263629E+02  0.60921773440E+02  0.80517342774E+02  0.14152195382E+03  0.92946930371E+02 0.  0.
        -11    1    1    2    0    0  0.32875295544E+02 -0.38491369112E+02  0.52334114681E+02  0.72809546851E+02  0.00000000000E+00 0.  1.
         11    1    1    2    0    0 -0.67441559173E+02 -0.22430404328E+02 -0.13285145746E+03  0.15066849933E+03  0.00000000000E+00 0. -1.
        -15    1    3    3    0    0  0.40305713536E+02  0.36163869920E+02  0.97051133368E+02  0.11115060166E+03  0.17770000000E+01 0.  1.
         15    1    3    3    0    0 -0.57394499072E+01  0.24757903519E+02 -0.16533790594E+02  0.30371352165E+02  0.17770000000E+01 0. -1.
</event>
<event>
 7    1  0.1093668E-008  0.1819059E+03  0.7546771E-02  0.1068929E+00
        -11   -1    0    0    0    0  0.00000000000E+00  0.00000000000E+00  0.18250000000E+03  0.18250000000E+03  0.00000000000E+00 0.  1.
         11   -1    0    0    0    0 -0.00000000000E+00 -0.00000000000E+00 -0.18250000000E+03  0.18250000000E+03  0.00000000000E+00 0. -1.
         23    2    1    2    0    0  0.55162559689E+02  0.79354510105E+02 -0.11826012381E+03  0.17794412403E+03  0.91315979580E+02 0.  0.
        -11    1    1    2    0    0 -0.43790896808E+02 -0.10145547833E+03  0.11873015105E+03  0.16219650272E+03  0.00000000000E+00 0.  1.
         11    1    1    2    0    0 -0.11371662881E+02  0.22100968224E+02 -0.47002723941E+00  0.24859373257E+02  0.00000000000E+00 0. -1.
        -15    1    3    3    0    0  0.15435838105E+02  0.34948431950E+01  0.13442123495E+02  0.20840523986E+02  0.17770000000E+01 0.  1.
         15    1    3    3    0    0  0.39726721584E+02  0.75859666910E+02 -0.13170224730E+03  0.15710360004E+03  0.17770000000E+01 0. -1.
</event>
<event>
 7    1  0.1093668E-008  0.1245139E+03  0.7546771E-02  0.1127110E+00
        -11   -1    0    0    0    0  0.00000000000E+00  0.00000000000E+00  0.18250000000E+03  0.18250000000E+03  0.00000000000E+00 0.  1.
         11   -1    0    0    0    0 -0.00000000000E+00 -0.00000000000E+00 -0.18250000000E+03  0.18250000000E+03  0.00000000000E+00 0. -1.
         23    2    1    2    0    0 -0.56113532182E+02 -0.34883375252E+01 -0.73937786558E+00  0.10970347232E+03  0.94198769456E+02 0.  0.
        -11    1    1    2    0    0 -0.35154605964E+02 -0.69487941938E+02 -0.81252242864E+02  0.11254486823E+03  0.00000000000E+00 0. -1.
         11    1    1    2    0    0  0.91268138145E+02  0.72976279463E+02  0.81991620729E+02  0.14275165945E+03  0.00000000000E+00 0.  1.
        -15    1    3    3    0    0 -0.93146528414E+01 -0.41701587464E+02 -0.18657780273E+02  0.46658928923E+02  0.17770000000E+01 0. -1.
         15    1    3    3    0    0 -0.46798879340E+02  0.38213249939E+02  0.17918402407E+02  0.63044543398E+02  0.17770000000E+01 0.  1.
</event>
<event>
 7    1  0.1093668E-008  0.1416240E+03  0.7546771E-02  0.1106636E+00
        -11   -1    0    0    0    0  0.00000000000E+00  0.00000000000E+00  0.18250000000E+03  0.18250000000E+03  0.00000000000E+00 0.  1.
         11   -1    0    0    0    0 -0.00000000000E+00 -0.00000000000E+00 -0.18250000000E+03  0.18250000000E+03  0.00000000000E+00 0.  1.
         23    2    1    2    0    0 -0.26747678553E+02  0.58619466271E+01  0.14150304456E+03  0.17028978436E+03  0.90695635582E+02 0.  0.
        -11    1    1    2    0    0  0.93269615697E+01  0.62360538908E+02 -0.73197649138E+02  0.96611204653E+02  0.00000000000E+00 0.  1.
         11    1    1    2    0    0  0.17420716983E+02 -0.68222485535E+02 -0.68305395418E+02  0.98099010984E+02  0.00000000000E+00 0.  1.
        -15    1    3    3    0    0 -0.24393821414E+02  0.45797972565E+02  0.99653698635E+02  0.11236783434E+03  0.17770000000E+01 0.  1.
         15    1    3    3    0    0 -0.23538571385E+01 -0.39936025938E+02  0.41849345922E+02  0.57921950021E+02  0.17770000000E+01 0. -1.
</event>
<event>
 7    1  0.1093668E-008  0.1879107E+03  0.7546771E-02  0.1064228E+00
        -11   -1    0    0    0    0  0.00000000000E+00  0.00000000000E+00  0.18250000000E+03  0.18250000000E+03  0.00000000000E+00 0.  1.
         11   -1    0    0    0    0 -0.00000000000E+00 -0.00000000000E+00 -0.18250000000E+03  0.18250000000E+03  0.00000000000E+00 0. -1.
         23    2    1    2    0    0  0.10230631782E+03  0.15824675398E+01 -0.12823619684E+03  0.18791071554E+03  0.91634207392E+02 0.  0.
        -11    1    1    2    0    0 -0.61828843009E+02 -0.31149923857E+02  0.55391960919E+02  0.88664496382E+02  0.00000000000E+00 0. -1.
         11    1    1    2    0    0 -0.40477474814E+02  0.29567456317E+02  0.72844235919E+02  0.88424788080E+02  0.00000000000E+00 0.  1.
        -15    1    3    3    0    0  0.92301132230E+02  0.95881071445E+01 -0.14160213651E+03  0.16930963824E+03  0.17770000000E+01 0. -1.
         15    1    3    3    0    0  0.10005185594E+02 -0.80056396047E+01  0.13365939670E+02  0.18601077294E+02  0.17770000000E+01 0.  1.
</event>
<event>
 7    1  0.1093668E-008  0.1559528E+03  0.7546771E-02  0.1091800E+00
        -11   -1    0    0    0    0  0.00000000000E+00  0.00000000000E+00  0.18250000000E+03  0.18250000000E+03  0.00000000000E+00 0.  1.
         11   -1    0    0    0    0 -0.00000000000E+00 -0.00000000000E+00 -0.18250000000E+03  0.18250000000E+03  0.00000000000E+00 0. -1.
         23    2    1    2    0    0  0.12430805904E+03 -0.31660817415E+02  0.41032367327E+02  0.16426168498E+03  0.94039061466E+02 0.  0.
        -11    1    1    2    0    0 -0.12218213155E+03 -0.30421790424E+02  0.67923895361E+00  0.12591433583E+03  0.00000000000E+00 0.  1.
         11    1    1    2    0    0 -0.21259274882E+01  0.62082607839E+02 -0.41711606281E+02  0.74823979193E+02  0.00000000000E+00 0. -1.
        -15    1    3    3    0    0  0.54727161507E+02  0.13182019363E+02  0.56785076338E+02  0.79978312466E+02  0.17770000000E+01 0.  1.
         15    1    3    3    0    0  0.69580897530E+02 -0.44842836777E+02 -0.15752709011E+02  0.84283372509E+02  0.17770000000E+01 0. -1.
</event>
<event>
 7    1  0.1093668E-008  0.2145709E+03  0.7546771E-02  0.1045454E+00
        -11   -1    0    0    0    0  0.00000000000E+00  0.00000000000E+00  0.18250000000E+03  0.18250000000E+03  0.00000000000E+00 0. -1.
         11   -1    0    0    0    0 -0.00000000000E+00 -0.00000000000E+00 -0.18250000000E+03  0.18250000000E+03  0.00000000000E+00 0.  1.
         23    2    1    2    0    0 -0.22879593379E+02 -0.16950398385E+02  0.39039619332E+02  0.10239265326E+03  0.90273870889E+02 0.  0.
        -11    1    1    2    0    0 -0.75455549204E+02  0.40849992192E+02  0.72261374544E+02  0.11217828675E+03  0.00000000000E+00 0. -1.
         11    1    1    2    0    0  0.98335142583E+02 -0.23899593806E+02 -0.11130099388E+03  0.15042905999E+03  0.00000000000E+00 0.  1.
        -15    1    3    3    0    0 -0.60711485343E+01 -0.13706179410E+02 -0.28739368266E+02  0.32462704999E+02  0.17770000000E+01 0.  1.
         15    1    3    3    0    0 -0.16808444845E+02 -0.32442189751E+01  0.67778987598E+02  0.69929948260E+02  0.17770000000E+01 0. -1.
</event>
<event>
 7    1  0.1093668E-008  0.1520078E+03  0.7546771E-02  0.1095704E+00
        -11   -1    0    0    0    0  0.00000000000E+00  0.00000000000E+00  0.18250000000E+03  0.18250000000E+03  0.00000000000E+00 0.  1.
         11   -1    0    0    0    0 -0.00000000000E+00 -0.00000000000E+00 -0.18250000000E+03  0.18250000000E+03  0.00000000000E+00 0.  1.
         23    2    1    2    0    0 -0.20229800724E+02  0.78138354593E+01  0.12789151508E+03  0.15940377399E+03  0.92644604117E+02 0.  0.
        -11    1    1    2    0    0 -0.33620654697E+02 -0.66271270701E+02 -0.31631330805E+02  0.80763672719E+02  0.00000000000E+00 0.  1.
         11    1    1    2    0    0  0.53850455421E+02  0.58457435241E+02 -0.96260184274E+02  0.12483255329E+03  0.00000000000E+00 0.  1.
        -15    1    3    3    0    0 -0.19622630530E+02  0.48661864146E+02  0.56464861460E+02  0.77100343448E+02  0.17770000000E+01 0. -1.
         15    1    3    3    0    0 -0.60717019397E+00 -0.40848028687E+02  0.71426653619E+02  0.82303430545E+02  0.17770000000E+01 0.  1.
</event>
<event>
 7    1  0.1093668E-008  0.1501662E+03  0.7546771E-02  0.1097572E+00
        -11   -1    0    0    0    0  0.00000000000E+00  0.00000000000E+00  0.18250000000E+03  0.18250000000E+03  0.00000000000E+00 0.  1.
         11   -1    0    0    0    0 -0.00000000000E+00 -0.00000000000E+00 -0.18250000000E+03  0.18250000000E+03  0.00000000000E+00 0.  1.
         23    2    1    2    0    0 -0.54474704273E+02  0.49568958825E+02 -0.13231699544E+03  0.17574408095E+03  0.89183068018E+02 0.  0.
        -11    1    1    2    0    0 -0.30562986275E+02 -0.23037872871E+02  0.72418056321E+02  0.81909795494E+02  0.00000000000E+00 0.  1.
         11    1    1    2    0    0  0.85037690547E+02 -0.26531085954E+02  0.59898939119E+02  0.10734612356E+03  0.00000000000E+00 0.  1.
        -15    1    3    3    0    0  0.90601753571E+01  0.55128484074E+00  0.92022543839E+01  0.13047218371E+02  0.17770000000E+01 0. -1.
         15    1    3    3    0    0 -0.63534879630E+02  0.49017673984E+02 -0.14151924982E+03  0.16269686258E+03  0.17770000000E+01 0.  1.
</event>
<event>
 7    1  0.1093668E-008  0.1507497E+03  0.7546771E-02  0.1096977E+00
        -11   -1    0    0    0    0  0.00000000000E+00  0.00000000000E+00  0.18250000000E+03  0.18250000000E+03  0.00000000000E+00 0.  1.
         11   -1    0    0    0    0 -0.00000000000E+00 -0.00000000000E+00 -0.18250000000E+03  0.18250000000E+03  0.00000000000E+00 0.  1.
         23    2    1    2    0    0  0.40720253190E+02 -0.22792605896E+02  0.12341067132E+03  0.16036218734E+03  0.91149302964E+02 0.  0.
        -11    1    1    2    0    0 -0.42928250757E+02 -0.55891107310E+02 -0.10033165165E+03  0.12260950580E+03  0.00000000000E+00 0.  1.
         11    1    1    2    0    0  0.22079975665E+01  0.78683713206E+02 -0.23079019672E+02  0.82028306859E+02  0.00000000000E+00 0.  1.
        -15    1    3    3    0    0  0.16840449622E+02  0.33962853355E+02  0.66127410168E+02  0.76243480088E+02  0.17770000000E+01 0.  1.
         15    1    3    3    0    0  0.23879803568E+02 -0.56755459251E+02  0.57283261152E+02  0.84118707256E+02  0.17770000000E+01 0. -1.
</event>
<event>
 7    1  0.1093668E-008  0.1538368E+03  0.7546771E-02  0.1093878E+00
        -11   -1    0    0    0    0  0.00000000000E+00  0.00000000000E+00  0.18250000000E+03  0.18250000000E+03  0.00000000000E+00 0.  1.
         11   -1    0    0    0    0 -0.00000000000E+00 -0.00000000000E+00 -0.18250000000E+03  0.18250000000E+03  0.00000000000E+00 0. -1.
         23    2    1    2    0    0 -0.13230465171E+02  0.47203384512E+02 -0.94971156561E+02  0.14191653501E+03  0.93367968878E+02 0.  0.
        -11    1    1    2    0    0  0.72867932435E+02  0.12533077781E+01 -0.28004607912E+02  0.78074095718E+02  0.00000000000E+00 0. -1.
         11    1    1    2    0    0 -0.59637467265E+02 -0.48456692291E+02  0.12297576447E+03  0.14500936927E+03  0.00000000000E+00 0.  1.
        -15    1    3    3    0    0 -0.16105780893E+02  0.31842364769E+02  0.89336855720E+01  0.36827989887E+02  0.17770000000E+01 0.  1.
         15    1    3    3    0    0  0.28753157224E+01  0.15361019744E+02 -0.10390484213E+03  0.10508854512E+03  0.17770000000E+01 0. -1.
</event>
<event>
 7    1  0.1093668E-008  0.1394482E+03  0.7546771E-02  0.1109057E+00
        -11   -1    0    0    0    0  0.00000000000E+00  0.00000000000E+00  0.18250000000E+03  0.18250000000E+03  0.00000000000E+00 0.  1.
         11   -1    0    0    0    0 -0.00000000000E+00 -0.00000000000E+00 -0.18250000000E+03  0.18250000000E+03  0.00000000000E+00 0.  1.
         23    2    1    2    0    0  0.50955129987E+02  0.54675390554E+02 -0.18719834980E+02  0.11835381779E+03  0.89840805652E+02 0.  0.
        -11    1    1    2    0    0  0.67056782541E+02  0.15174518103E+02  0.71973978089E+02  0.99534574929E+02  0.00000000000E+00 0.  1.
         11    1    1    2    0    0 -0.11801191253E+03 -0.69849908657E+02 -0.53254143109E+02  0.14711160728E+03  0.00000000000E+00 0.  1.
        -15    1    3    3    0    0 -0.69573076813E+01 -0.14356417306E+02 -0.23092427103E+02  0.28123455807E+02  0.17770000000E+01 0.  1.
         15    1    3    3    0    0  0.57912437668E+02  0.69031807860E+02  0.43725921233E+01  0.90230361985E+02  0.17770000000E+01 0. -1.
</event>
<event>
 7    1  0.1093668E-008  0.1331668E+03  0.7546771E-02  0.1116331E+00
        -11   -1    0    0    0    0  0.00000000000E+00  0.00000000000E+00  0.18250000000E+03  0.18250000000E+03  0.00000000000E+00 0.  1.
         11   -1    0    0    0    0 -0.00000000000E+00 -0.00000000000E+00 -0.18250000000E+03  0.18250000000E+03  0.00000000000E+00 0. -1.
         23    2    1    2    0    0  0.16605222587E+00  0.45486210137E+02  0.22187761565E+02  0.93900512632E+02  0.79094795172E+02 0.  0.
        -11    1    1    2    0    0  0.85105110741E+02 -0.27793780498E+02  0.91417356440E+02  0.12795509825E+03  0.00000000000E+00 0.  1.
         11    1    1    2    0    0 -0.85271162967E+02 -0.17692429640E+02 -0.11360511800E+03  0.14314438912E+03  0.00000000000E+00 0. -1.
        -15    1    3    3    0    0 -0.23331844375E+01  0.47097350983E+02 -0.20229571732E+02  0.51341966467E+02  0.17770000000E+01 0. -1.
         15    1    3    3    0    0  0.24992366633E+01 -0.16111408459E+01  0.42417333296E+02  0.42558546165E+02  0.17770000000E+01 0.  1.
</event>
<event>
 7    1  0.1093668E-008  0.1364974E+03  0.7546771E-02  0.1112420E+00
        -11   -1    0    0    0    0  0.00000000000E+00  0.00000000000E+00  0.18250000000E+03  0.18250000000E+03  0.00000000000E+00 0.  1.
         11   -1    0    0    0    0 -0.00000000000E+00 -0.00000000000E+00 -0.18250000000E+03  0.18250000000E+03  0.00000000000E+00 0. -1.
         23    2    1    2    0    0 -0.48740937306E+02  0.12275076200E+01  0.72091033998E+02  0.12618004658E+03  0.91362471663E+02 0.  0.
        -11    1    1    2    0    0  0.29860291418E+02  0.99674940669E+02  0.13813084630E+02  0.10496443259E+03  0.00000000000E+00 0.  1.
         11    1    1    2    0    0  0.18880645888E+02 -0.10090244829E+03 -0.85904118628E+02  0.13385552083E+03  0.00000000000E+00 0. -1.
        -15    1    3    3    0    0 -0.35274751375E+01 -0.60924752659E+01  0.79428644655E+02  0.79759818558E+02  0.17770000000E+01 0.  1.
         15    1    3    3    0    0 -0.45213462169E+02  0.73199828859E+01 -0.73376106572E+01  0.46420228025E+02  0.17770000000E+01 0. -1.
</event>
<event>
 7    1  0.1093668E-008  0.1781311E+03  0.7546771E-02  0.1071987E+00
        -11   -1    0    0    0    0  0.00000000000E+00  0.00000000000E+00  0.18250000000E+03  0.18250000000E+03  0.00000000000E+00 0.  1.
         11   -1    0    0    0    0 -0.00000000000E+00 -0.00000000000E+00 -0.18250000000E+03  0.18250000000E+03  0.00000000000E+00 0.  1.
         23    2    1    2    0    0  0.28222328037E+02 -0.92465796538E+02 -0.99793514274E+02  0.16656442590E+03  0.91861521628E+02 0.  0.
        -11    1    1    2    0    0 -0.14251657916E+02 -0.16926559326E+02 -0.24000424467E+02  0.32644119510E+02  0.00000000000E+00 0.  1.
         11    1    1    2    0    0 -0.13970670121E+02  0.10939235586E+03  0.12379393874E+03  0.16579145459E+03  0.00000000000E+00 0.  1.
        -15    1    3    3    0    0  0.58240018925E+02 -0.83681585733E+02 -0.78508245396E+02  0.12869036452E+03  0.17770000000E+01 0. -1.
         15    1    3    3    0    0 -0.30017690887E+02 -0.87842108048E+01 -0.21285268879E+02  0.37874061387E+02  0.17770000000E+01 0.  1.
</event>
<event>
 7    1  0.1093668E-008  0.1305928E+03  0.7546771E-02  0.1119441E+00
        -11   -1    0    0    0    0  0.00000000000E+00  0.00000000000E+00  0.18250000000E+03  0.18250000000E+03  0.00000000000E+00 0.  1.
         11   -1    0    0    0    0 -0.00000000000E+00 -0.00000000000E+00 -0.18250000000E+03  0.18250000000E+03  0.00000000000E+00 0. -1.
         23    2    1    2    0    0 -0.24777730284E+02 -0.16640552660E+02 -0.94692207356E+02  0.13301765772E+03  0.88522535107E+02 0.  0.
        -11    1    1    2    0    0  0.82466558538E+02 -0.69595535024E+02  0.52091898815E+02  0.11982419495E+03  0.00000000000E+00 0. -1.
         11    1    1    2    0    0 -0.57688828254E+02  0.86236087685E+02  0.42600308541E+02  0.11215814733E+03  0.00000000000E+00 0.  1.
        -15    1    3    3    0    0 -0.53951122601E+02 -0.25483686313E+02 -0.45249178006E+02  0.74905191657E+02  0.17770000000E+01 0.  1.
         15    1    3    3    0    0  0.29173392317E+02  0.88431336531E+01 -0.49443029350E+02  0.58112466067E+02  0.17770000000E+01 0. -1.
</event>
<event>
 7    1  0.1093668E-008  0.1262746E+03  0.7546771E-02  0.1124840E+00
        -11   -1    0    0    0    0  0.00000000000E+00  0.00000000000E+00  0.18250000000E+03  0.18250000000E+03  0.00000000000E+00 0. -1.
         11   -1    0    0    0    0 -0.00000000000E+00 -0.00000000000E+00 -0.18250000000E+03  0.18250000000E+03  0.00000000000E+00 0.  1.
         23    2    1    2    0    0  0.30100580881E+02 -0.18508732062E+02  0.40299252587E+02  0.10682610612E+03  0.92407624456E+02 0.  0.
        -11    1    1    2    0    0 -0.11092106578E+03 -0.65815234424E+02  0.13301192676E+02  0.12966128814E+03  0.00000000000E+00 0. -1.
         11    1    1    2    0    0  0.80820484895E+02  0.84323966486E+02 -0.53600445263E+02  0.12851260574E+03  0.00000000000E+00 0.  1.
        -15    1    3    3    0    0  0.35430958732E+02 -0.28860149632E+01 -0.22340789471E+02  0.42023214088E+02  0.17770000000E+01 0.  1.
         15    1    3    3    0    0 -0.53303778518E+01 -0.15622717098E+02  0.62640042058E+02  0.64802892031E+02  0.17770000000E+01 0. -1.
</event>
<event>
 7    1  0.1150728E-008  0.2106106E+03  0.7546771E-02  0.1048049E+00
        -11   -1    0    0    0    0  0.00000000000E+00  0.00000000000E+00  0.18250000000E+03  0.18250000000E+03  0.00000000000E+00 0. -1.
         11   -1    0    0    0    0 -0.00000000000E+00 -0.00000000000E+00 -0.18250000000E+03  0.18250000000E+03  0.00000000000E+00 0.  1.
         23    2    1    2    0    0 -0.32263440749E+02  0.21150937951E+02 -0.57983421567E+02  0.11358566504E+03  0.89729227907E+02 0.  0.
        -11    1    1    2    0    0  0.43305679908E+02 -0.10619954660E+03  0.10335557605E+03  0.15438944495E+03  0.00000000000E+00 0. -1.
         11    1    1    2    0    0 -0.11042239159E+02  0.85048608651E+02 -0.45372154484E+02  0.97024890011E+02  0.00000000000E+00 0.  1.
        -15    1    3    3    0    0 -0.58309496895E+02  0.18126148991E+02 -0.61954419529E+02  0.87006106300E+02  0.17770000000E+01 0.  1.
         15    1    3    3    0    0  0.26046056146E+02  0.30247889596E+01  0.39709979620E+01  0.26579558740E+02  0.17770000000E+01 0. -1.
</event>
<event>
 7    1  0.1093668E-008  0.1700582E+03  0.7546771E-02  0.1078814E+00
        -11   -1    0    0    0    0  0.00000000000E+00  0.00000000000E+00  0.18250000000E+03  0.18250000000E+03  0.00000000000E+00 0. -1.
         11   -1    0    0    0    0 -0.00000000000E+00 -0.00000000000E+00 -0.18250000000E+03  0.18250000000E+03  0.00000000000E+00 0.  1.
         23    2    1    2    0    0  0.96835075308E+02 -0.86641676005E+02 -0.24123941641E+02  0.16033825273E+03  0.90788649603E+02 0.  0.
        -11    1    1    2    0    0 -0.12892410148E+03  0.70653493524E+02  0.55378844675E+02  0.15709919327E+03  0.00000000000E+00 0. -1.
         11    1    1    2    0    0  0.32089026167E+02  0.15988182481E+02 -0.31254903035E+02  0.47562554001E+02  0.00000000000E+00 0.  1.
        -15    1    3    3    0    0  0.98995666705E+02 -0.10018728137E+03 -0.31965118892E+02  0.14443877571E+03  0.17770000000E+01 0. -1.
         15    1    3    3    0    0 -0.21605913966E+01  0.13545605361E+02  0.78411772515E+01  0.15899477018E+02  0.17770000000E+01 0.  1.
</event>
<event>
 7    1  0.1093668E-008  0.1849476E+03  0.7546771E-02  0.1066523E+00
        -11   -1    0    0    0    0  0.00000000000E+00  0.00000000000E+00  0.18250000000E+03  0.18250000000E+03  0.00000000000E+00 0.  1.
         11   -1    0    0    0    0 -0.00000000000E+00 -0.00000000000E+00 -0.18250000000E+03  0.18250000000E+03  0.00000000000E+00 0.  1.
         23    2    1    2    0    0  0.44178801126E+02  0.36032653853E+02  0.13588587336E+03  0.17699962346E+03  0.98049872570E+02 0.  0.
        -11    1    1    2    0    0 -0.57851181276E+02 -0.29037651585E+02 -0.15232236958E+03  0.16550543392E+03  0.00000000000E+00 0.  1.
         11    1    1    2    0    0  0.13672380150E+02 -0.69950022680E+01  0.16436496214E+02  0.22494942620E+02  0.00000000000E+00 0.  1.
        -15    1    3    3    0    0  0.32289381266E+02  0.70076208474E+02  0.88458679911E+02  0.11739410086E+03  0.17770000000E+01 0.  1.
         15    1    3    3    0    0  0.11889419860E+02 -0.34043554621E+02  0.47427193453E+02  0.59605522593E+02  0.17770000000E+01 0. -1.
</event>
<event>
 7    1  0.1093668E-008  0.2151992E+03  0.7546771E-02  0.1045048E+00
        -11   -1    0    0    0    0  0.00000000000E+00  0.00000000000E+00  0.18250000000E+03  0.18250000000E+03  0.00000000000E+00 0. -1.
         11   -1    0    0    0    0 -0.00000000000E+00 -0.00000000000E+00 -0.18250000000E+03  0.18250000000E+03  0.00000000000E+00 0.  1.
         23    2    1    2    0    0  0.85639694435E+01 -0.63971367292E+01 -0.25123533893E+02  0.91718116717E+02  0.87560013978E+02 0.  0.
        -11    1    1    2    0    0  0.54372994925E+01 -0.43949399430E+02 -0.11526690625E+03  0.12348106580E+03  0.00000000000E+00 0.  1.
         11    1    1    2    0    0 -0.14001268936E+02  0.50346536159E+02  0.14039044014E+03  0.14980081748E+03  0.00000000000E+00 0. -1.
        -15    1    3    3    0    0  0.37311672270E+02  0.25496017398E+02 -0.12177901381E+02  0.46836596821E+02  0.17770000000E+01 0. -1.
         15    1    3    3    0    0 -0.28747702827E+02 -0.31893154127E+02 -0.12945632512E+02  0.44881519895E+02  0.17770000000E+01 0.  1.
</event>
<event>
 7    1  0.1093668E-008  0.1272175E+03  0.7546771E-02  0.1123641E+00
        -11   -1    0    0    0    0  0.00000000000E+00  0.00000000000E+00  0.18250000000E+03  0.18250000000E+03  0.00000000000E+00 0.  1.
         11   -1    0    0    0    0 -0.00000000000E+00 -0.00000000000E+00 -0.18250000000E+03  0.18250000000E+03  0.00000000000E+00 0. -1.
         23    2    1    2    0    0  0.56390462936E+02  0.51696226339E+02  0.99404362619E+01  0.11916857274E+03  0.90829248195E+02 0.  0.
        -11    1    1    2    0    0  0.57686888401E+02 -0.10216255325E+03  0.16032212940E+02  0.11841451023E+03  0.00000000000E+00 0.  1.
         11    1    1    2    0    0 -0.11407735134E+03  0.50466326913E+02 -0.25972649202E+02  0.12741691704E+03  0.00000000000E+00 0. -1.
        -15    1    3    3    0    0  0.24427954855E+02  0.48408253084E+02 -0.34506018834E+02  0.64295466480E+02  0.17770000000E+01 0.  1.
         15    1    3    3    0    0  0.31962508081E+02  0.32879732545E+01  0.44446455096E+02  0.54873106259E+02  0.17770000000E+01 0. -1.
</event>
<event>
 7    1  0.1093668E-008  0.1650839E+03  0.7546771E-02  0.1083231E+00
        -11   -1    0    0    0    0  0.00000000000E+00  0.00000000000E+00  0.18250000000E+03  0.18250000000E+03  0.00000000000E+00 0.  1.
         11   -1    0    0    0    0 -0.00000000000E+00 -0.00000000000E+00 -0.18250000000E+03  0.18250000000E+03  0.00000000000E+00 0. -1.
         23    2    1    2    0    0 -0.13113289420E+03 -0.89441592291E+01 -0.80228027774E+02  0.17874117366E+03  0.90752613165E+02 0.  0.
        -11    1    1    2    0    0  0.51965039712E+02 -0.99545429816E+01 -0.20512335819E+02  0.56746931186E+02  0.00000000000E+00 0. -1.
         11    1    1    2    0    0  0.79167854486E+02  0.18898702211E+02  0.10074036359E+03  0.12951189515E+03  0.00000000000E+00 0.  1.
        -15    1    3    3    0    0 -0.13033045528E+03 -0.27173994121E+02 -0.87164418553E+02  0.15913908106E+03  0.17770000000E+01 0. -1.
         15    1    3    3    0    0 -0.80243892095E+00  0.18229834892E+02  0.69363907786E+01  0.19602092604E+02  0.17770000000E+01 0.  1.
</event>
<event>
 7    1  0.1093668E-008  0.1509962E+03  0.7546771E-02  0.1096726E+00
        -11   -1    0    0    0    0  0.00000000000E+00  0.00000000000E+00  0.18250000000E+03  0.18250000000E+03  0.00000000000E+00 0.  1.
         11   -1    0    0    0    0 -0.00000000000E+00 -0.00000000000E+00 -0.18250000000E+03  0.18250000000E+03  0.00000000000E+00 0. -1.
         23    2    1    2    0    0  0.26515435428E+01  0.74532517202E+02  0.74436841603E+02  0.13824505569E+03  0.89491481341E+02 0.  0.
        -11    1    1    2    0    0  0.48641357742E+02 -0.32364906525E+02  0.55659075651E+02  0.80693255974E+02  0.00000000000E+00 0.  1.
         11    1    1    2    0    0 -0.51292901285E+02 -0.42167610677E+02 -0.13009591725E+03  0.14606168833E+03  0.00000000000E+00 0. -1.
        -15    1    3    3    0    0  0.16334765539E+01 -0.15549541053E+02  0.37857921925E+02  0.40998005489E+02  0.17770000000E+01 0.  1.
         15    1    3    3    0    0  0.10180669890E+01  0.90082058255E+02  0.36578919678E+02  0.97247050205E+02  0.17770000000E+01 0. -1.
</event>
<event>
 7    1  0.1093668E-008  0.1675384E+03  0.7546771E-02  0.1081030E+00
        -11   -1    0    0    0    0  0.00000000000E+00  0.00000000000E+00  0.18250000000E+03  0.18250000000E+03  0.00000000000E+00 0.  1.
         11   -1    0    0    0    0 -0.00000000000E+00 -0.00000000000E+00 -0.18250000000E+03  0.18250000000E+03  0.00000000000E+00 0. -1.
         23    2    1    2    0    0  0.40512980877E+02 -0.99698023643E+02  0.67805899702E+02  0.16157353950E+03  0.99636193694E+02 0.  0.
        -11    1    1    2    0    0  0.30993626046E+02  0.29338144037E+02  0.38344676774E+02  0.57372866304E+02  0.00000000000E+00 0.  1.
         11    1    1    2    0    0 -0.71506606923E+02  0.70359879606E+02 -0.10615057648E+03  0.14605359420E+03  0.00000000000E+00 0. -1.
        -15    1    3    3    0    0 -0.10848357714E+01 -0.95280935707E+02  0.72072386828E+02  0.11948732255E+03  0.17770000000E+01 0.  1.
         15    1    3    3    0    0  0.41597816648E+02 -0.44170879364E+01 -0.42664871260E+01  0.42086216949E+02  0.17770000000E+01 0. -1.
</event>
<event>
 7    1  0.1093668E-008  0.1175565E+03  0.7546771E-02  0.1136505E+00
        -11   -1    0    0    0    0  0.00000000000E+00  0.00000000000E+00  0.18250000000E+03  0.18250000000E+03  0.00000000000E+00 0. -1.
         11   -1    0    0    0    0 -0.00000000000E+00 -0.00000000000E+00 -0.18250000000E+03  0.18250000000E+03  0.00000000000E+00 0.  1.
         23    2    1    2    0    0  0.63764801712E+02 -0.28291328960E+02 -0.27911722690E+02  0.11817304412E+03  0.91211045716E+02 0.  0.
        -11    1    1    2    0    0  0.33609013629E+02  0.11157620998E+03  0.21789774388E+02  0.11854792575E+03  0.00000000000E+00 0. -1.
         11    1    1    2    0    0 -0.97373815340E+02 -0.83284881024E+02  0.61219483019E+01  0.12827903013E+03  0.00000000000E+00 0.  1.
        -15    1    3    3    0    0  0.78066162552E+02 -0.12613545716E+02  0.46846262172E+01  0.79237180181E+02  0.17770000000E+01 0.  1.
         15    1    3    3    0    0 -0.14301360841E+02 -0.15677783244E+02 -0.32596348908E+02  0.38935863936E+02  0.17770000000E+01 0. -1.
</event>
<event>
 7    1  0.1093668E-008  0.2141532E+03  0.7546771E-02  0.1045724E+00
        -11   -1    0    0    0    0  0.00000000000E+00  0.00000000000E+00  0.18250000000E+03  0.18250000000E+03  0.00000000000E+00 0. -1.
         11   -1    0    0    0    0 -0.00000000000E+00 -0.00000000000E+00 -0.18250000000E+03  0.18250000000E+03  0.00000000000E+00 0.  1.
         23    2    1    2    0    0  0.19265670101E+02 -0.41104377581E+02  0.60870002489E+02  0.11998721752E+03  0.92903386719E+02 0.  0.
        -11    1    1    2    0    0 -0.60869805700E+02 -0.32235150375E+02  0.64210596007E+02  0.94166017253E+02  0.00000000000E+00 0. -1.
         11    1    1    2    0    0  0.41604135599E+02  0.73339527956E+02 -0.12508059850E+03  0.15084676523E+03  0.00000000000E+00 0.  1.
        -15    1    3    3    0    0 -0.29610880101E+02 -0.39289971316E+02  0.11680932540E+02  0.50597509626E+02  0.17770000000E+01 0.  1.
         15    1    3    3    0    0  0.48876550203E+02 -0.18144062655E+01  0.49189069949E+02  0.69389707892E+02  0.17770000000E+01 0. -1.
</event>
<event>
 7    1  0.1093668E-008  0.1731113E+03  0.7546771E-02  0.1076184E+00
        -11   -1    0    0    0    0  0.00000000000E+00  0.00000000000E+00  0.18250000000E+03  0.18250000000E+03  0.00000000000E+00 0.  1.
         11   -1    0    0    0    0 -0.00000000000E+00 -0.00000000000E+00 -0.18250000000E+03  0.18250000000E+03  0.00000000000E+00 0. -1.
         23    2    1    2    0    0  0.62494952049E+01  0.25906936554E+02 -0.15615504291E+03  0.18188984267E+03  0.89382838909E+02 0.  0.
        -11    1    1    2    0    0  0.15298995939E+02  0.27539513306E+02  0.26285715649E+02  0.41029537129E+02  0.00000000000E+00 0. -1.
         11    1    1    2    0    0 -0.21548491144E+02 -0.53446449860E+02  0.12986932726E+03  0.14208062020E+03  0.00000000000E+00 0.  1.
        -15    1    3    3    0    0 -0.10048567428E+02 -0.21633793858E+02 -0.76686280079E+01  0.25118923714E+02  0.17770000000E+01 0.  1.
         15    1    3    3    0    0  0.16298062633E+02  0.47540730411E+02 -0.14848641490E+03  0.15677091896E+03  0.17770000000E+01 0. -1.
</event>
<event>
 7    1  0.1093668E-008  0.1679004E+03  0.7546771E-02  0.1080709E+00
        -11   -1    0    0    0    0  0.00000000000E+00  0.00000000000E+00  0.18250000000E+03  0.18250000000E+03  0.00000000000E+00 0.  1.
         11   -1    0    0    0    0 -0.00000000000E+00 -0.00000000000E+00 -0.18250000000E+03  0.18250000000E+03  0.00000000000E+00 0. -1.
         23    2    1    2    0    0 -0.17248504771E+02 -0.13732435036E+03 -0.11315418755E+02  0.16805315245E+03  0.94648482433E+02 0.  0.
        -11    1    1    2    0    0 -0.36174473608E+02  0.13844686990E+03  0.55568490490E+01  0.14320267769E+03  0.00000000000E+00 0.  1.
         11    1    1    2    0    0  0.53422978380E+02 -0.11225195409E+01  0.57585697060E+01  0.53744169862E+02  0.00000000000E+00 0. -1.
        -15    1    3    3    0    0 -0.97389348938E+01 -0.15012974628E+03 -0.20611826353E+01  0.15046990987E+03  0.17770000000E+01 0. -1.
         15    1    3    3    0    0 -0.75095698773E+01  0.12805395923E+02 -0.92542361198E+01  0.17583242581E+02  0.17770000000E+01 0.  1.
</event>
<event>
 7    1  0.1093668E-008  0.1267578E+03  0.7546771E-02  0.1124224E+00
        -11   -1    0    0    0    0  0.00000000000E+00  0.00000000000E+00  0.18250000000E+03  0.18250000000E+03  0.00000000000E+00 0. -1.
         11   -1    0    0    0    0 -0.00000000000E+00 -0.00000000000E+00 -0.18250000000E+03  0.18250000000E+03  0.00000000000E+00 0. -1.
         23    2    1    2    0    0  0.79247582980E+01  0.57185894191E+02 -0.54897260151E+02  0.11950934476E+03  0.89082804307E+02 0.  0.
        -11    1    1    2    0    0 -0.33486922280E+02  0.40420302192E+02  0.11614702011E+03  0.12745707149E+03  0.00000000000E+00 0. -1.
         11    1    1    2    0    0  0.25562163981E+02 -0.97606196383E+02 -0.61249759955E+02  0.11803358376E+03  0.00000000000E+00 0. -1.
        -15    1    3    3    0    0  0.27339851905E+02 -0.66829932450E+01 -0.43386488025E+02  0.51746255643E+02  0.17770000000E+01 0.  1.
         15    1    3    3    0    0 -0.19415093607E+02  0.63868887436E+02 -0.11510772126E+02  0.67763089112E+02  0.17770000000E+01 0. -1.
</event>
<event>
 7    1  0.1093668E-008  0.1637391E+03  0.7546771E-02  0.1084454E+00
        -11   -1    0    0    0    0  0.00000000000E+00  0.00000000000E+00  0.18250000000E+03  0.18250000000E+03  0.00000000000E+00 0.  1.
         11   -1    0    0    0    0 -0.00000000000E+00 -0.00000000000E+00 -0.18250000000E+03  0.18250000000E+03  0.00000000000E+00 0. -1.
         23    2    1    2    0    0  0.91733820395E+02  0.83466184346E+02 -0.27088340451E+02  0.15865426715E+03  0.95161444723E+02 0.  0.
        -11    1    1    2    0    0 -0.52070027335E+02 -0.12799487168E+03  0.42837538522E+02  0.14466868919E+03  0.00000000000E+00 0.  1.
         11    1    1    2    0    0 -0.39663793059E+02  0.44528687337E+02 -0.15749198071E+02  0.61677043669E+02  0.00000000000E+00 0. -1.
        -15    1    3    3    0    0 -0.14653488777E+01 -0.81651788418E+01 -0.26622647219E+02  0.27941733425E+02  0.17770000000E+01 0.  1.
         15    1    3    3    0    0  0.93199169273E+02  0.91631363188E+02 -0.46569323224E+00  0.13071253372E+03  0.17770000000E+01 0. -1.
</event>
<event>
 7    1  0.1093668E-008  0.1750094E+03  0.7546771E-02  0.1074579E+00
        -11   -1    0    0    0    0  0.00000000000E+00  0.00000000000E+00  0.18250000000E+03  0.18250000000E+03  0.00000000000E+00 0.  1.
         11   -1    0    0    0    0 -0.00000000000E+00 -0.00000000000E+00 -0.18250000000E+03  0.18250000000E+03  0.00000000000E+00 0.  1.
         23    2    1    2    0    0 -0.89531943800E+02 -0.19508273888E+01 -0.12223127068E+03  0.17514424969E+03  0.87836495720E+02 0.  0.
        -11    1    1    2    0    0  0.68154894519E+02  0.29124486227E+02  0.13416805585E+03  0.15327880660E+03  0.00000000000E+00 0.  1.
         11    1    1    2    0    0  0.21377049281E+02 -0.27173658838E+02 -0.11936785169E+02  0.36576943705E+02  0.00000000000E+00 0.  1.
        -15    1    3    3    0    0 -0.17378469992E+02 -0.26185020753E+02 -0.84499725483E+02  0.90172212277E+02  0.17770000000E+01 0. -1.
         15    1    3    3    0    0 -0.72153473808E+02  0.24234193364E+02 -0.37731545193E+02  0.84972037414E+02  0.17770000000E+01 0.  1.
</event>
<event>
 7    1  0.1093668E-008  0.1444569E+03  0.7546771E-02  0.1103553E+00
        -11   -1    0    0    0    0  0.00000000000E+00  0.00000000000E+00  0.18250000000E+03  0.18250000000E+03  0.00000000000E+00 0. -1.
         11   -1    0    0    0    0 -0.00000000000E+00 -0.00000000000E+00 -0.18250000000E+03  0.18250000000E+03  0.00000000000E+00 0. -1.
         23    2    1    2    0    0 -0.82667420979E+02 -0.42991997161E+02 -0.88085949844E+02  0.15640442973E+03  0.89560017690E+02 0.  0.
        -11    1    1    2    0    0  0.27076727859E+02  0.10344062534E+03  0.47835777694E+02  0.11713826783E+03  0.00000000000E+00 0. -1.
         11    1    1    2    0    0  0.55590693120E+02 -0.60448628183E+02  0.40250172150E+02  0.91457302436E+02  0.00000000000E+00 0. -1.
        -15    1    3    3    0    0 -0.21181057490E+02 -0.47739804124E+02 -0.44105620368E+01  0.52443654341E+02  0.17770000000E+01 0.  1.
         15    1    3    3    0    0 -0.61486363489E+02  0.47478069636E+01 -0.83675387807E+02  0.10396077539E+03  0.17770000000E+01 0. -1.
</event>
<event>
 7    1  0.1093668E-008  0.1780301E+03  0.7546771E-02  0.1072070E+00
        -11   -1    0    0    0    0  0.00000000000E+00  0.00000000000E+00  0.18250000000E+03  0.18250000000E+03  0.00000000000E+00 0.  1.
         11   -1    0    0    0    0 -0.00000000000E+00 -0.00000000000E+00 -0.18250000000E+03  0.18250000000E+03  0.00000000000E+00 0.  1.
         23    2    1    2    0    0 -0.43951196591E+01  0.40220409391E+02  0.13950832142E+03  0.17388055365E+03  0.95576549329E+02 0.  0.
        -11    1    1    2    0    0 -0.23208400188E+02 -0.23378511685E+02 -0.15268775977E+03  0.15620094952E+03  0.00000000000E+00 0.  1.
         11    1    1    2    0    0  0.27603519847E+02 -0.16841897706E+02  0.13179438343E+02  0.34918496837E+02  0.00000000000E+00 0.  1.
        -15    1    3    3    0    0 -0.22354787247E+02  0.52104553108E+02  0.14123699438E+03  0.15220271771E+03  0.17770000000E+01 0.  1.
         15    1    3    3    0    0  0.17959667588E+02 -0.11884143716E+02 -0.17286729567E+01  0.21677835938E+02  0.17770000000E+01 0. -1.
</event>
<event>
 7    1  0.1093668E-008  0.1332968E+03  0.7546771E-02  0.1116176E+00
        -11   -1    0    0    0    0  0.00000000000E+00  0.00000000000E+00  0.18250000000E+03  0.18250000000E+03  0.00000000000E+00 0.  1.
         11   -1    0    0    0    0 -0.00000000000E+00 -0.00000000000E+00 -0.18250000000E+03  0.18250000000E+03  0.00000000000E+00 0. -1.
         23    2    1    2    0    0 -0.63034045522E+02 -0.34790300458E+02  0.18710401279E+02  0.12470678727E+03  0.10009019819E+03 0.  0.
        -11    1    1    2    0    0  0.76958335682E+02 -0.84666112321E+02  0.14995272061E+02  0.11539408213E+03  0.00000000000E+00 0.  1.
         11    1    1    2    0    0 -0.13924290160E+02  0.11945641278E+03 -0.33705673339E+02  0.12489913060E+03  0.00000000000E+00 0. -1.
        -15    1    3    3    0    0 -0.29976058368E+02 -0.62366019479E+02  0.36310617374E+02  0.78164589962E+02  0.17770000000E+01 0.  1.
         15    1    3    3    0    0 -0.33057987154E+02  0.27575719021E+02 -0.17600216095E+02  0.46542197303E+02  0.17770000000E+01 0. -1.
</event>
<event>
 7    1  0.1941381E-008  0.1567840E+03  0.7546771E-02  0.1090994E+00
        -11   -1    0    0    0    0  0.00000000000E+00  0.00000000000E+00  0.18250000000E+03  0.18250000000E+03  0.00000000000E+00 0. -1.
         11   -1    0    0    0    0 -0.00000000000E+00 -0.00000000000E+00 -0.18250000000E+03  0.18250000000E+03  0.00000000000E+00 0.  1.
         23    2    1    2    0    0 -0.92409499640E+01 -0.13950580093E+02  0.12053848416E+03  0.14934567654E+03  0.86571306417E+02 0.  0.
        -11    1    1    2    0    0 -0.48818316445E+01 -0.69095299495E+02 -0.82389200999E+00  0.69272443948E+02  0.00000000000E+00 0. -1.
         11    1    1    2    0    0  0.14122781608E+02  0.83045879588E+02 -0.11971459215E+03  0.14638187952E+03  0.00000000000E+00 0.  1.
        -15    1    3    3    0    0 -0.29035615467E+02 -0.87693166500E+01  0.35749601849E+01  0.30592579972E+02  0.17770000000E+01 0.  1.
         15    1    3    3    0    0  0.19794665503E+02 -0.51812634430E+01  0.11696352398E+03  0.11875309656E+03  0.17770000000E+01 0. -1.
</event>
<event>
 7    1  0.1093668E-008  0.1540065E+03  0.7546771E-02  0.1093710E+00
        -11   -1    0    0    0    0  0.00000000000E+00  0.00000000000E+00  0.18250000000E+03  0.18250000000E+03  0.00000000000E+00 0.  1.
         11   -1    0    0    0    0 -0.00000000000E+00 -0.00000000000E+00 -0.18250000000E+03  0.18250000000E+03  0.00000000000E+00 0.  1.
         23    2    1    2    0    0  0.35948107875E+02  0.40713421182E+02 -0.13321992566E+03  0.16787793677E+03  0.86519384737E+02 0.  0.
        -11    1    1    2    0    0  0.45035137871E+02  0.12610326969E+02  0.57369048797E+02  0.74016158703E+02  0.00000000000E+00 0.  1.
         11    1    1    2    0    0 -0.80983245745E+02 -0.53323748151E+02  0.75850876867E+02  0.12310590453E+03  0.00000000000E+00 0.  1.
        -15    1    3    3    0    0  0.28704881044E+01  0.60268434174E+02 -0.59676736083E+02  0.84882238533E+02  0.17770000000E+01 0.  1.
         15    1    3    3    0    0  0.33077619770E+02 -0.19555012992E+02 -0.73543189581E+02  0.82995698235E+02  0.17770000000E+01 0. -1.
</event>
<event>
 7    1  0.1093668E-008  0.1512531E+03  0.7546771E-02  0.1096466E+00
        -11   -1    0    0    0    0  0.00000000000E+00  0.00000000000E+00  0.18250000000E+03  0.18250000000E+03  0.00000000000E+00 0. -1.
         11   -1    0    0    0    0 -0.00000000000E+00 -0.00000000000E+00 -0.18250000000E+03  0.18250000000E+03  0.00000000000E+00 0.  1.
         23    2    1    2    0    0  0.15053055737E+02 -0.61915691256E+02 -0.10351065136E+03  0.15193523084E+03  0.91157622358E+02 0.  0.
        -11    1    1    2    0    0 -0.90246025346E+02  0.34569151611E+02  0.89731951996E+02  0.13187567836E+03  0.00000000000E+00 0.  1.
         11    1    1    2    0    0  0.75192969609E+02  0.27346539645E+02  0.13778699363E+02  0.81189090803E+02  0.00000000000E+00 0. -1.
        -15    1    3    3    0    0 -0.16754531711E+02 -0.46803966258E+02 -0.10547933653E+03  0.11662064034E+03  0.17770000000E+01 0.  1.
         15    1    3    3    0    0  0.31807587448E+02 -0.15111724998E+02  0.19686851671E+01  0.35314590497E+02  0.17770000000E+01 0. -1.
</event>
<event>
 7    1  0.1093668E-008  0.1873058E+03  0.7546771E-02  0.1064692E+00
        -11   -1    0    0    0    0  0.00000000000E+00  0.00000000000E+00  0.18250000000E+03  0.18250000000E+03  0.00000000000E+00 0. -1.
         11   -1    0    0    0    0 -0.00000000000E+00 -0.00000000000E+00 -0.18250000000E+03  0.18250000000E+03  0.00000000000E+00 0. -1.
         23    2    1    2    0    0 -0.13580183855E+03 -0.56128759288E+02  0.70060627228E+02  0.18730578262E+03  0.92641177361E+02 0.  0.
        -11    1    1    2    0    0  0.10169832053E+03  0.71233349345E+02 -0.42202910850E+02  0.13114047485E+03  0.00000000000E+00 0. -1.
         11    1    1    2    0    0  0.34103518018E+02 -0.15104590057E+02 -0.27857716377E+02  0.46553742532E+02  0.00000000000E+00 0. -1.
        -15    1    3    3    0    0 -0.12585332121E+03 -0.70797260109E+02  0.35940735953E+02  0.14881600965E+03  0.17770000000E+01 0. -1.
         15    1    3    3    0    0 -0.99485173389E+01  0.14668500821E+02  0.34119891275E+02  0.38489772969E+02  0.17770000000E+01 0.  1.
</event>
<event>
 7    1  0.1093668E-008  0.1460085E+03  0.7546771E-02  0.1101898E+00
        -11   -1    0    0    0    0  0.00000000000E+00  0.00000000000E+00  0.18250000000E+03  0.18250000000E+03  0.00000000000E+00 0.  1.
         11   -1    0    0    0    0 -0.00000000000E+00 -0.00000000000E+00 -0.18250000000E+03  0.18250000000E+03  0.00000000000E+00 0. -1.
         23    2    1    2    0    0  0.21698199333E+02  0.48258774682E+02 -0.75740481803E+02  0.12985103017E+03  0.91241154445E+02 0.  0.
        -11    1    1    2    0    0 -0.10290350870E+03 -0.18900938604E+02  0.10075314299E+03  0.14525003754E+03  0.00000000000E+00 0.  1.
         11    1    1    2    0    0  0.81205309364E+02 -0.29357836078E+02 -0.25012661184E+02  0.89898932294E+02  0.00000000000E+00 0. -1.
        -15    1    3    3    0    0  0.21055960849E+02  0.13368069254E+02  0.17339789151E+02  0.30428354862E+02  0.17770000000E+01 0.  1.
         15    1    3    3    0    0  0.64223848434E+00  0.34890705428E+02 -0.93080270954E+02  0.99422675308E+02  0.17770000000E+01 0. -1.
</event>
<event>
 7    1  0.1093668E-008  0.1525882E+03  0.7546771E-02  0.1095122E+00
        -11   -1    0    0    0    0  0.00000000000E+00  0.00000000000E+00  0.18250000000E+03  0.18250000000E+03  0.00000000000E+00 0. -1.
         11   -1    0    0    0    0 -0.00000000000E+00 -0.00000000000E+00 -0.18250000000E+03  0.18250000000E+03  0.00000000000E+00 0.  1.
         23    2    1    2    0    0 -0.35528485760E+02 -0.53479491434E+02 -0.78704785639E+02  0.13545918681E+03  0.89623761948E+02 0.  0.
        -11    1    1    2    0    0  0.40286580377E+02  0.13034160421E+03  0.65774001387E+02  0.15145349651E+03  0.00000000000E+00 0. -1.
         11    1    1    2    0    0 -0.47580946168E+01 -0.76862112774E+02  0.12930784252E+02  0.78087316677E+02  0.00000000000E+00 0.  1.
        -15    1    3    3    0    0 -0.60510329944E+02 -0.38757267326E+02 -0.78457451845E+02  0.10640655656E+03  0.17770000000E+01 0.  1.
         15    1    3    3    0    0  0.24981844184E+02 -0.14722224108E+02 -0.24733379335E+00  0.29052630252E+02  0.17770000000E+01 0. -1.
</event>
<event>
 7    1  0.1093668E-008  0.1341743E+03  0.7546771E-02  0.1115135E+00
        -11   -1    0    0    0    0  0.00000000000E+00  0.00000000000E+00  0.18250000000E+03  0.18250000000E+03  0.00000000000E+00 0.  1.
         11   -1    0    0    0    0 -0.00000000000E+00 -0.00000000000E+00 -0.18250000000E+03  0.18250000000E+03  0.00000000000E+00 0. -1.
         23    2    1    2    0    0  0.28884421509E+02 -0.14257882450E+02 -0.19615578258E+01  0.94717853278E+02  0.89050699058E+02 0.  0.
        -11    1    1    2    0    0  0.39790948989E+02  0.88970669058E+02  0.92436277878E+02  0.13432633786E+03  0.00000000000E+00 0.  1.
         11    1    1    2    0    0 -0.68675370498E+02 -0.74712786608E+02 -0.90474720052E+02  0.13595580887E+03  0.00000000000E+00 0. -1.
        -15    1    3    3    0    0 -0.35866902978E+01 -0.42131505276E+02 -0.21697155576E+02  0.47558935787E+02  0.17770000000E+01 0. -1.
         15    1    3    3    0    0  0.32471111807E+02  0.27873622826E+02  0.19735597750E+02  0.47158917491E+02  0.17770000000E+01 0.  1.
</event>
<event>
 7    1  0.1093668E-008  0.1669285E+03  0.7546771E-02  0.1081573E+00
        -11   -1    0    0    0    0  0.00000000000E+00  0.00000000000E+00  0.18250000000E+03  0.18250000000E+03  0.00000000000E+00 0.  1.
         11   -1    0    0    0    0 -0.00000000000E+00 -0.00000000000E+00 -0.18250000000E+03  0.18250000000E+03  0.00000000000E+00 0. -1.
         23    2    1    2    0    0 -0.24163912939E+02  0.44914991556E+01  0.11781824584E+03  0.15137700481E+03  0.91813889358E+02 0.  0.
        -11    1    1    2    0    0  0.45856872969E+02  0.33649660228E+02 -0.14920210873E+03  0.15967598968E+03  0.00000000000E+00 0. -1.
         11    1    1    2    0    0 -0.21692960029E+02 -0.38141159384E+02  0.31383862885E+02  0.53947005511E+02  0.00000000000E+00 0.  1.
        -15    1    3    3    0    0  0.13878298183E+02  0.21526172356E+02 -0.74828412928E+00  0.25684643562E+02  0.17770000000E+01 0. -1.
         15    1    3    3    0    0 -0.38042211122E+02 -0.17034673200E+02  0.11856652997E+03  0.12569236125E+03  0.17770000000E+01 0.  1.
</event>
<event>
 7    1  0.1093668E-008  0.1508438E+03  0.7546771E-02  0.1096881E+00
        -11   -1    0    0    0    0  0.00000000000E+00  0.00000000000E+00  0.18250000000E+03  0.18250000000E+03  0.00000000000E+00 0. -1.
         11   -1    0    0    0    0 -0.00000000000E+00 -0.00000000000E+00 -0.18250000000E+03  0.18250000000E+03  0.00000000000E+00 0. -1.
         23    2    1    2    0    0 -0.26133846960E+02  0.11239529319E+02 -0.10550691019E+03  0.14669421277E+03  0.97868171466E+02 0.  0.
        -11    1    1    2    0    0 -0.35229951675E+02  0.47348568623E+02  0.11858788962E+03  0.13246178321E+03  0.00000000000E+00 0. -1.
         11    1    1    2    0    0  0.61363798635E+02 -0.58588097942E+02 -0.13080979429E+02  0.85844004020E+02  0.00000000000E+00 0. -1.
        -15    1    3    3    0    0 -0.60672888758E+02  0.43211104989E+01 -0.88844531075E+02  0.10768648874E+03  0.17770000000E+01 0.  1.
         15    1    3    3    0    0  0.34539041798E+02  0.69184188202E+01 -0.16662379117E+02  0.39007724032E+02  0.17770000000E+01 0. -1.
</event>
<event>
 7    1  0.1093668E-008  0.1733422E+03  0.7546771E-02  0.1075987E+00
        -11   -1    0    0    0    0  0.00000000000E+00  0.00000000000E+00  0.18250000000E+03  0.18250000000E+03  0.00000000000E+00 0. -1.
         11   -1    0    0    0    0 -0.00000000000E+00 -0.00000000000E+00 -0.18250000000E+03  0.18250000000E+03  0.00000000000E+00 0.  1.
         23    2    1    2    0    0 -0.85910413108E+02 -0.66363964629E+02  0.79345447297E+02  0.16325124226E+03  0.92576958318E+02 0.  0.
        -11    1    1    2    0    0  0.15163351887E+02 -0.27527731882E+02  0.28342427746E+02  0.42320166275E+02  0.00000000000E+00 0. -1.
         11    1    1    2    0    0  0.70747061221E+02  0.93891696511E+02 -0.10768787504E+03  0.15942859146E+03  0.00000000000E+00 0.  1.
        -15    1    3    3    0    0 -0.54139352334E+02 -0.31786890789E+02 -0.87438854985E+01  0.63412058473E+02  0.17770000000E+01 0.  1.
         15    1    3    3    0    0 -0.31771060773E+02 -0.34577073840E+02  0.88089332796E+02  0.99839183788E+02  0.17770000000E+01 0. -1.
</event>
<event>
 7    1  0.1093668E-008  0.1825244E+03  0.7546771E-02  0.1068435E+00
        -11   -1    0    0    0    0  0.00000000000E+00  0.00000000000E+00  0.18250000000E+03  0.18250000000E+03  0.00000000000E+00 0.  1.
         11   -1    0    0    0    0 -0.00000000000E+00 -0.00000000000E+00 -0.18250000000E+03  0.18250000000E+03  0.00000000000E+00 0. -1.
         23    2    1    2    0    0  0.69080123923E+02 -0.50797220770E+02  0.13474091368E+03  0.18475397945E+03  0.92878942417E+02 0.  0.
        -11    1    1    2    0    0  0.40615467207E+01 -0.18247099825E+02 -0.15788592321E+02  0.24469010222E+02  0.00000000000E+00 0.  1.
         11    1    1    2    0    0 -0.73141670644E+02  0.69044320595E+02 -0.11895232136E+03  0.15577701033E+03  0.00000000000E+00 0. -1.
        -15    1    3    3    0    0  0.97836761124E+01 -0.58462149126E+02  0.36195481972E+02  0.69475275047E+02  0.17770000000E+01 0. -1.
         15    1    3    3    0    0  0.59296447811E+02  0.76649283558E+01  0.98545431704E+02  0.11527870440E+03  0.17770000000E+01 0.  1.
</event>
<event>
 7    1  0.1093668E-008  0.1252163E+03  0.7546771E-02  0.1126199E+00
        -11   -1    0    0    0    0  0.00000000000E+00  0.00000000000E+00  0.18250000000E+03  0.18250000000E+03  0.00000000000E+00 0.  1.
         11   -1    0    0    0    0 -0.00000000000E+00 -0.00000000000E+00 -0.18250000000E+03  0.18250000000E+03  0.00000000000E+00 0. -1.
         23    2    1    2    0    0 -0.36366213875E+02  0.38019169269E+02  0.15981226400E+02  0.10860219084E+03  0.93654030962E+02 0.  0.
        -11    1    1    2    0    0  0.89185961496E+02 -0.41936676592E+02  0.92824611657E+02  0.13538548335E+03  0.00000000000E+00 0.  1.
         11    1    1    2    0    0 -0.52819747621E+02  0.39175073227E+01 -0.10880583806E+03  0.12101232581E+03  0.00000000000E+00 0. -1.
        -15    1    3    3    0    0  0.17485199995E+02  0.23396639041E+02  0.38537296521E+02  0.48388179232E+02  0.17770000000E+01 0. -1.
         15    1    3    3    0    0 -0.53851413870E+02  0.14622530228E+02 -0.22556070120E+02  0.60214011612E+02  0.17770000000E+01 0.  1.
</event>
<event>
 7    1  0.1093668E-008  0.1305844E+03  0.7546771E-02  0.1119451E+00
        -11   -1    0    0    0    0  0.00000000000E+00  0.00000000000E+00  0.18250000000E+03  0.18250000000E+03  0.00000000000E+00 0. -1.
         11   -1    0    0    0    0 -0.00000000000E+00 -0.00000000000E+00 -0.18250000000E+03  0.18250000000E+03  0.00000000000E+00 0.  1.
         23    2    1    2    0    0  0.40889733304E+01 -0.94381014449E+01 -0.41973998851E+02  0.10027978845E+03  0.90489899601E+02 0.  0.
        -11    1    1    2    0    0 -0.11842095072E+03 -0.53217910404E+02  0.84486052771E+01  0.13010398337E+03  0.00000000000E+00 0. -1.
         11    1    1    2    0    0  0.11433197739E+03  0.62656011849E+02  0.33525393574E+02  0.13461622818E+03  0.00000000000E+00 0.  1.
        -15    1    3    3    0    0  0.19527213454E+02 -0.45591921507E+02 -0.33914877649E+02  0.60110831195E+02  0.17770000000E+01 0.  1.
         15    1    3    3    0    0 -0.15438240124E+02  0.36153820062E+02 -0.80591212020E+01  0.40168957253E+02  0.17770000000E+01 0. -1.
</event>
<event>
 7    1  0.1093668E-008  0.1531296E+03  0.7546771E-02  0.1094581E+00
        -11   -1    0    0    0    0  0.00000000000E+00  0.00000000000E+00  0.18250000000E+03  0.18250000000E+03  0.00000000000E+00 0. -1.
         11   -1    0    0    0    0 -0.00000000000E+00 -0.00000000000E+00 -0.18250000000E+03  0.18250000000E+03  0.00000000000E+00 0.  1.
         23    2    1    2    0    0 -0.34763199022E+02 -0.95867890991E+02 -0.56846210122E+02  0.14825188996E+03  0.91367383358E+02 0.  0.
        -11    1    1    2    0    0  0.10853966710E+03  0.76307339055E+02  0.40111904981E+02  0.13860964703E+03  0.00000000000E+00 0. -1.
         11    1    1    2    0    0 -0.73776468076E+02  0.19560551936E+02  0.16734305141E+02  0.78138463015E+02  0.00000000000E+00 0.  1.
        -15    1    3    3    0    0 -0.29429225883E+02 -0.52284274305E+02 -0.78857371077E+02  0.99102812160E+02  0.17770000000E+01 0.  1.
         15    1    3    3    0    0 -0.53339731391E+01 -0.43583616686E+02  0.22011160955E+02  0.49149077799E+02  0.17770000000E+01 0. -1.
</event>
<event>
 7    1  0.1093668E-008  0.1305646E+03  0.7546771E-02  0.1119475E+00
        -11   -1    0    0    0    0  0.00000000000E+00  0.00000000000E+00  0.18250000000E+03  0.18250000000E+03  0.00000000000E+00 0. -1.
         11   -1    0    0    0    0 -0.00000000000E+00 -0.00000000000E+00 -0.18250000000E+03  0.18250000000E+03  0.00000000000E+00 0.  1.
         23    2    1    2    0    0 -0.47112851407E+01 -0.27511178456E+02 -0.27125675975E+02  0.10098603955E+03  0.93184315955E+02 0.  0.
        -11    1    1    2    0    0 -0.12051933666E+03  0.54325882816E+02  0.31391717684E+02  0.13587366188E+03  0.00000000000E+00 0. -1.
         11    1    1    2    0    0  0.12523062180E+03 -0.26814704359E+02 -0.42660417083E+01  0.12814029857E+03  0.00000000000E+00 0.  1.
        -15    1    3    3    0    0 -0.28218742482E+02 -0.40767698066E+02  0.14192338752E+02  0.51603128210E+02  0.17770000000E+01 0.  1.
         15    1    3    3    0    0  0.23507457341E+02  0.13256519609E+02 -0.41318014727E+02  0.49382911344E+02  0.17770000000E+01 0. -1.
</event>
<event>
 7    1  0.1093668E-008  0.1820941E+03  0.7546771E-02  0.1068778E+00
        -11   -1    0    0    0    0  0.00000000000E+00  0.00000000000E+00  0.18250000000E+03  0.18250000000E+03  0.00000000000E+00 0.  1.
         11   -1    0    0    0    0 -0.00000000000E+00 -0.00000000000E+00 -0.18250000000E+03  0.18250000000E+03  0.00000000000E+00 0. -1.
         23    2    1    2    0    0  0.70426126388E+02  0.41378588460E+02  0.14208089846E+03  0.18787865802E+03  0.91866106770E+02 0.  0.
        -11    1    1    2    0    0 -0.69778111269E+02 -0.17882324907E+02 -0.13423536053E+03  0.15234137447E+03  0.00000000000E+00 0. -1.
         11    1    1    2    0    0 -0.64801511860E+00 -0.23496263553E+02 -0.78455379234E+01  0.24779967511E+02  0.00000000000E+00 0.  1.
        -15    1    3    3    0    0 -0.13256193916E+02 -0.30889719399E+00  0.65964156637E+02  0.67307130265E+02  0.17770000000E+01 0. -1.
         15    1    3    3    0    0  0.83682320304E+02  0.41687485654E+02  0.76116741821E+02  0.12057152776E+03  0.17770000000E+01 0.  1.
</event>
<event>
 7    1  0.1093668E-008  0.1528675E+03  0.7546771E-02  0.1094842E+00
        -11   -1    0    0    0    0  0.00000000000E+00  0.00000000000E+00  0.18250000000E+03  0.18250000000E+03  0.00000000000E+00 0.  1.
         11   -1    0    0    0    0 -0.00000000000E+00 -0.00000000000E+00 -0.18250000000E+03  0.18250000000E+03  0.00000000000E+00 0. -1.
         23    2    1    2    0    0 -0.12067855127E+03  0.48555382313E+02 -0.20734665490E+02  0.15837084876E+03  0.87923043023E+02 0.  0.
        -11    1    1    2    0    0  0.35011612816E+02  0.43931959563E+02  0.52210612248E+02  0.76692751511E+02  0.00000000000E+00 0.  1.
         11    1    1    2    0    0  0.85666938454E+02 -0.92487341876E+02 -0.31475946758E+02  0.12993639973E+03  0.00000000000E+00 0. -1.
        -15    1    3    3    0    0 -0.40513570296E+02  0.62749151953E+02 -0.18213742141E+02  0.76900608455E+02  0.17770000000E+01 0.  1.
         15    1    3    3    0    0 -0.80164980974E+02 -0.14193769640E+02 -0.25209233488E+01  0.81470240301E+02  0.17770000000E+01 0. -1.
</event>
<event>
 7    1  0.1093668E-008  0.1259181E+03  0.7546771E-02  0.1125296E+00
        -11   -1    0    0    0    0  0.00000000000E+00  0.00000000000E+00  0.18250000000E+03  0.18250000000E+03  0.00000000000E+00 0.  1.
         11   -1    0    0    0    0 -0.00000000000E+00 -0.00000000000E+00 -0.18250000000E+03  0.18250000000E+03  0.00000000000E+00 0. -1.
         23    2    1    2    0    0 -0.53498592439E+01  0.35508487016E+02  0.36236023928E+02  0.10804863624E+03  0.95246966978E+02 0.  0.
        -11    1    1    2    0    0 -0.99204951635E+02  0.39085783788E+02 -0.65613451721E+02  0.12519762765E+03  0.00000000000E+00 0. -1.
         11    1    1    2    0    0  0.10455481088E+03 -0.74594270805E+02  0.29377427793E+02  0.13175373611E+03  0.00000000000E+00 0.  1.
        -15    1    3    3    0    0  0.83461630411E+01 -0.24218551894E+02  0.38987605776E+02  0.46683914002E+02  0.17770000000E+01 0.  1.
         15    1    3    3    0    0 -0.13696022285E+02  0.59727038910E+02 -0.27515818479E+01  0.61364722236E+02  0.17770000000E+01 0. -1.
</event>
<event>
 7    1  0.1093668E-008  0.1663439E+03  0.7546771E-02  0.1082096E+00
        -11   -1    0    0    0    0  0.00000000000E+00  0.00000000000E+00  0.18250000000E+03  0.18250000000E+03  0.00000000000E+00 0.  1.
         11   -1    0    0    0    0 -0.00000000000E+00 -0.00000000000E+00 -0.18250000000E+03  0.18250000000E+03  0.00000000000E+00 0. -1.
         23    2    1    2    0    0 -0.11061171020E+03  0.74728633505E+02  0.64189367956E+02  0.17316035777E+03  0.89693452628E+02 0.  0.
        -11    1    1    2    0    0  0.77774904247E+02 -0.10774959457E+03 -0.37115047339E+02  0.13797259728E+03  0.00000000000E+00 0.  1.
         11    1    1    2    0    0  0.32836805958E+02  0.33020961065E+02 -0.27074320617E+02  0.53867044953E+02  0.00000000000E+00 0. -1.
        -15    1    3    3    0    0 -0.11503193120E+03  0.81980771204E+02  0.39048776730E+02  0.14656451390E+03  0.17770000000E+01 0.  1.
         15    1    3    3    0    0  0.44202209923E+01 -0.72521376998E+01  0.25140591226E+02  0.26595843868E+02  0.17770000000E+01 0. -1.
</event>
<event>
 7    1  0.1093668E-008  0.1562683E+03  0.7546771E-02  0.1091493E+00
        -11   -1    0    0    0    0  0.00000000000E+00  0.00000000000E+00  0.18250000000E+03  0.18250000000E+03  0.00000000000E+00 0.  1.
         11   -1    0    0    0    0 -0.00000000000E+00 -0.00000000000E+00 -0.18250000000E+03  0.18250000000E+03  0.00000000000E+00 0.  1.
         23    2    1    2    0    0  0.69983711539E+02 -0.11646183174E+03  0.64915818070E+02  0.17552480096E+03  0.90187660919E+02 0.  0.
        -11    1    1    2    0    0 -0.46934838202E+02  0.18278723124E+01 -0.54703435849E+02  0.72101914315E+02  0.00000000000E+00 0.  1.
         11    1    1    2    0    0 -0.23048873337E+02  0.11463395943E+03 -0.10212382221E+02  0.11737328473E+03  0.00000000000E+00 0.  1.
        -15    1    3    3    0    0  0.66566651388E+02 -0.32249020193E+02  0.51538306643E+02  0.90169136411E+02  0.17770000000E+01 0. -1.
         15    1    3    3    0    0  0.34170601506E+01 -0.84212811551E+02  0.13377511427E+02  0.85355664547E+02  0.17770000000E+01 0.  1.
</event>
<event>
 7    1  0.1093668E-008  0.2154321E+03  0.7546771E-02  0.1044897E+00
        -11   -1    0    0    0    0  0.00000000000E+00  0.00000000000E+00  0.18250000000E+03  0.18250000000E+03  0.00000000000E+00 0.  1.
         11   -1    0    0    0    0 -0.00000000000E+00 -0.00000000000E+00 -0.18250000000E+03  0.18250000000E+03  0.00000000000E+00 0. -1.
         23    2    1    2    0    0  0.21566265952E+02  0.38446573473E+02 -0.31616496000E+02  0.10786787075E+03  0.93234284909E+02 0.  0.
        -11    1    1    2    0    0 -0.11322975027E+03 -0.94379321740E+02  0.25340349872E+02  0.14956793122E+03  0.00000000000E+00 0.  1.
         11    1    1    2    0    0  0.91663484320E+02  0.55932748267E+02  0.62761461280E+01  0.10756419802E+03  0.00000000000E+00 0. -1.
        -15    1    3    3    0    0  0.34068571512E+02 -0.20447144179E+02  0.14678232798E+00  0.39773515610E+02  0.17770000000E+01 0.  1.
         15    1    3    3    0    0 -0.12502305560E+02  0.58893717651E+02 -0.31763278328E+02  0.68094355142E+02  0.17770000000E+01 0. -1.
</event>
<event>
 7    1  0.1093668E-008  0.1733710E+03  0.7546771E-02  0.1075963E+00
        -11   -1    0    0    0    0  0.00000000000E+00  0.00000000000E+00  0.18250000000E+03  0.18250000000E+03  0.00000000000E+00 0.  1.
         11   -1    0    0    0    0 -0.00000000000E+00 -0.00000000000E+00 -0.18250000000E+03  0.18250000000E+03  0.00000000000E+00 0. -1.
         23    2    1    2    0    0 -0.87803809409E+01  0.89825725338E+02 -0.13156075865E+03  0.18431377705E+03  0.92290731789E+02 0.  0.
        -11    1    1    2    0    0  0.29061258996E+02 -0.29233915320E+02  0.85909506921E+01  0.42106804832E+02  0.00000000000E+00 0. -1.
         11    1    1    2    0    0 -0.20280878055E+02 -0.60591810018E+02  0.12296980796E+03  0.13857941811E+03  0.00000000000E+00 0.  1.
        -15    1    3    3    0    0 -0.22090135843E+02  0.11614084364E+02 -0.92578747653E+02  0.95900173635E+02  0.17770000000E+01 0. -1.
         15    1    3    3    0    0  0.13309754903E+02  0.78211640975E+02 -0.38982010994E+02  0.88413603420E+02  0.17770000000E+01 0.  1.
</event>
<event>
 7    1  0.1093668E-008  0.1819729E+03  0.7546771E-02  0.1068875E+00
        -11   -1    0    0    0    0  0.00000000000E+00  0.00000000000E+00  0.18250000000E+03  0.18250000000E+03  0.00000000000E+00 0. -1.
         11   -1    0    0    0    0 -0.00000000000E+00 -0.00000000000E+00 -0.18250000000E+03  0.18250000000E+03  0.00000000000E+00 0. -1.
         23    2    1    2    0    0  0.10045948347E+03  0.15541974838E+02  0.12840935496E+03  0.18767139605E+03  0.91640218533E+02 0.  0.
        -11    1    1    2    0    0  0.84671386403E+01 -0.78554957095E+01 -0.22059820514E+02  0.24900540771E+02  0.00000000000E+00 0. -1.
         11    1    1    2    0    0 -0.10892662211E+03 -0.76864791281E+01 -0.10634953445E+03  0.15242806318E+03  0.00000000000E+00 0. -1.
        -15    1    3    3    0    0  0.56681309923E+01 -0.24275124349E+02  0.57690799793E+02  0.62871261168E+02  0.17770000000E+01 0.  1.
         15    1    3    3    0    0  0.94791352482E+02  0.39817099187E+02  0.70718555169E+02  0.12480013488E+03  0.17770000000E+01 0. -1.
</event>
<event>
 7    1  0.1093668E-008  0.1534290E+03  0.7546771E-02  0.1094283E+00
        -11   -1    0    0    0    0  0.00000000000E+00  0.00000000000E+00  0.18250000000E+03  0.18250000000E+03  0.00000000000E+00 0. -1.
         11   -1    0    0    0    0 -0.00000000000E+00 -0.00000000000E+00 -0.18250000000E+03  0.18250000000E+03  0.00000000000E+00 0.  1.
         23    2    1    2    0    0  0.66357721735E+02  0.94986856028E+02 -0.59835133132E+01  0.14905386941E+03  0.93570313143E+02 0.  0.
        -11    1    1    2    0    0 -0.12410769733E+03 -0.48237701626E+02  0.32490297177E+02  0.13705916900E+03  0.00000000000E+00 0. -1.
         11    1    1    2    0    0  0.57749975598E+02 -0.46749154402E+02 -0.26506783863E+02  0.78886961595E+02  0.00000000000E+00 0.  1.
        -15    1    3    3    0    0  0.35226210371E+02  0.34430883795E+02  0.42795253080E+02  0.65276052816E+02  0.17770000000E+01 0.  1.
         15    1    3    3    0    0  0.31131511364E+02  0.60555972233E+02 -0.48778766393E+02  0.83777816591E+02  0.17770000000E+01 0. -1.
</event>
<event>
 7    1  0.1093668E-008  0.1888333E+03  0.7546771E-02  0.1063522E+00
        -11   -1    0    0    0    0  0.00000000000E+00  0.00000000000E+00  0.18250000000E+03  0.18250000000E+03  0.00000000000E+00 0.  1.
         11   -1    0    0    0    0 -0.00000000000E+00 -0.00000000000E+00 -0.18250000000E+03  0.18250000000E+03  0.00000000000E+00 0.  1.
         23    2    1    2    0    0 -0.30225477560E+02 -0.13379499605E+02 -0.15277715675E+03  0.18533384373E+03  0.99575014454E+02 0.  0.
        -11    1    1    2    0    0  0.20601571465E+02  0.68466949564E+01  0.16284301320E+03  0.16428374517E+03  0.00000000000E+00 0.  1.
         11    1    1    2    0    0  0.96239060951E+01  0.65328046488E+01 -0.10065856456E+02  0.15382411101E+02  0.00000000000E+00 0.  1.
        -15    1    3    3    0    0 -0.22086512579E+02 -0.12863528130E+02 -0.16693990086E+03  0.16889456067E+03  0.17770000000E+01 0.  1.
         15    1    3    3    0    0 -0.81389649805E+01 -0.51597147557E+00  0.14162744118E+02  0.16439283058E+02  0.17770000000E+01 0. -1.
</event>
<event>
 7    1  0.1093668E-008  0.1408248E+03  0.7546771E-02  0.1107519E+00
        -11   -1    0    0    0    0  0.00000000000E+00  0.00000000000E+00  0.18250000000E+03  0.18250000000E+03  0.00000000000E+00 0. -1.
         11   -1    0    0    0    0 -0.00000000000E+00 -0.00000000000E+00 -0.18250000000E+03  0.18250000000E+03  0.00000000000E+00 0. -1.
         23    2    1    2    0    0  0.71059179174E+02  0.15842659134E+02  0.29371338756E+02  0.11989930758E+03  0.90624343443E+02 0.  0.
        -11    1    1    2    0    0 -0.13477288721E+03 -0.44769823750E+02  0.38997763006E+02  0.14727149678E+03  0.00000000000E+00 0. -1.
         11    1    1    2    0    0  0.63713708031E+02  0.28927164617E+02 -0.68369101762E+02  0.97829195640E+02  0.00000000000E+00 0. -1.
        -15    1    3    3    0    0 -0.95162846603E+01 -0.51890259134E+01  0.34737464321E+02  0.36432606551E+02  0.17770000000E+01 0.  1.
         15    1    3    3    0    0  0.80575463835E+02  0.21031685047E+02 -0.53661255646E+01  0.83466701029E+02  0.17770000000E+01 0. -1.
</event>
<event>
 7    1  0.1093668E-008  0.1356579E+03  0.7546771E-02  0.1113394E+00
        -11   -1    0    0    0    0  0.00000000000E+00  0.00000000000E+00  0.18250000000E+03  0.18250000000E+03  0.00000000000E+00 0. -1.
         11   -1    0    0    0    0 -0.00000000000E+00 -0.00000000000E+00 -0.18250000000E+03  0.18250000000E+03  0.00000000000E+00 0. -1.
         23    2    1    2    0    0  0.74522445762E+02 -0.10313076605E+02 -0.48715267464E+02  0.12562890561E+03  0.88031188609E+02 0.  0.
        -11    1    1    2    0    0  0.38270890308E+01 -0.98647986281E+02  0.33758289627E+02  0.10433452893E+03  0.00000000000E+00 0. -1.
         11    1    1    2    0    0 -0.78349534793E+02  0.10896106289E+03  0.14956977837E+02  0.13503656547E+03  0.00000000000E+00 0. -1.
        -15    1    3    3    0    0  0.55471443614E+02  0.26578286652E+02 -0.56276290875E+02  0.83388638444E+02  0.17770000000E+01 0. -1.
         15    1    3    3    0    0  0.19051002148E+02 -0.36891363257E+02  0.75610234104E+01  0.42240267161E+02  0.17770000000E+01 0.  1.
</event>
<event>
 7    1  0.1093668E-008  0.1519032E+03  0.7546771E-02  0.1095809E+00
        -11   -1    0    0    0    0  0.00000000000E+00  0.00000000000E+00  0.18250000000E+03  0.18250000000E+03  0.00000000000E+00 0. -1.
         11   -1    0    0    0    0 -0.00000000000E+00 -0.00000000000E+00 -0.18250000000E+03  0.18250000000E+03  0.00000000000E+00 0.  1.
         23    2    1    2    0    0 -0.21334380028E+02 -0.52838520046E+02 -0.66110497209E+02  0.12512379082E+03  0.89656568168E+02 0.  0.
        -11    1    1    2    0    0  0.22141890914E+02 -0.52041432020E+02 -0.55531462440E+02  0.79261070524E+02  0.00000000000E+00 0.  1.
         11    1    1    2    0    0 -0.80751088661E+00  0.10487995207E+03  0.12164195965E+03  0.16061513866E+03  0.00000000000E+00 0. -1.
        -15    1    3    3    0    0 -0.14049312112E+02  0.19672244830E+02  0.33046921319E+01  0.24463423852E+02  0.17770000000E+01 0. -1.
         15    1    3    3    0    0 -0.72850679160E+01 -0.72510764877E+02 -0.69415189340E+02  0.10066036697E+03  0.17770000000E+01 0.  1.
</event>
<event>
 7    1  0.1093668E-008  0.2167708E+03  0.7546771E-02  0.1044038E+00
        -11   -1    0    0    0    0  0.00000000000E+00  0.00000000000E+00  0.18250000000E+03  0.18250000000E+03  0.00000000000E+00 0. -1.
         11   -1    0    0    0    0 -0.00000000000E+00 -0.00000000000E+00 -0.18250000000E+03  0.18250000000E+03  0.00000000000E+00 0.  1.
         23    2    1    2    0    0 -0.33959916567E+02 -0.21415510869E+01  0.13663551745E+02  0.98780130048E+02  0.91722185276E+02 0.  0.
        -11    1    1    2    0    0 -0.57663051821E+02  0.48673134004E+01  0.10282548777E+03  0.11799067430E+03  0.00000000000E+00 0. -1.
         11    1    1    2    0    0  0.91622968387E+02 -0.27257623135E+01 -0.11648903952E+03  0.14822919565E+03  0.00000000000E+00 0.  1.
        -15    1    3    3    0    0 -0.35567277053E+00 -0.23031739314E+02  0.43457739563E+02  0.49217074028E+02  0.17770000000E+01 0. -1.
         15    1    3    3    0    0 -0.33604243796E+02  0.20890188227E+02 -0.29794187819E+02  0.49563056020E+02  0.17770000000E+01 0.  1.
</event>
<event>
 7    1  0.1093668E-008  0.1659037E+03  0.7546771E-02  0.1082491E+00
        -11   -1    0    0    0    0  0.00000000000E+00  0.00000000000E+00  0.18250000000E+03  0.18250000000E+03  0.00000000000E+00 0.  1.
         11   -1    0    0    0    0 -0.00000000000E+00 -0.00000000000E+00 -0.18250000000E+03  0.18250000000E+03  0.00000000000E+00 0. -1.
         23    2    1    2    0    0 -0.37010734112E+02  0.25682390400E+01  0.13307322839E+03  0.16575224490E+03  0.91591114662E+02 0.  0.
        -11    1    1    2    0    0 -0.27002277218E+02 -0.47081241936E+02 -0.12555503717E+02  0.55708230907E+02  0.00000000000E+00 0.  1.
         11    1    1    2    0    0  0.64013011330E+02  0.44513002896E+02 -0.12051772467E+03  0.14353952419E+03  0.00000000000E+00 0. -1.
        -15    1    3    3    0    0 -0.49925316997E+02  0.33208132316E+02  0.10983030831E+03  0.12514460309E+03  0.17770000000E+01 0.  1.
         15    1    3    3    0    0  0.12914582885E+02 -0.30639893276E+02  0.23242920077E+02  0.40607641815E+02  0.17770000000E+01 0. -1.
</event>
<event>
 7    1  0.1093668E-008  0.1746191E+03  0.7546771E-02  0.1074907E+00
        -11   -1    0    0    0    0  0.00000000000E+00  0.00000000000E+00  0.18250000000E+03  0.18250000000E+03  0.00000000000E+00 0.  1.
         11   -1    0    0    0    0 -0.00000000000E+00 -0.00000000000E+00 -0.18250000000E+03  0.18250000000E+03  0.00000000000E+00 0.  1.
         23    2    1    2    0    0  0.12117104442E+03 -0.17487735621E+00 -0.49053306484E+02  0.15974971987E+03  0.91822075411E+02 0.  0.
        -11    1    1    2    0    0 -0.14747481153E+03  0.15477395821E+02  0.74163456895E+02  0.16579682795E+03  0.00000000000E+00 0.  1.
         11    1    1    2    0    0  0.26303767112E+02 -0.15302518465E+02 -0.25110150411E+02  0.39453452185E+02  0.00000000000E+00 0.  1.
        -15    1    3    3    0    0  0.52499691313E+02  0.12163218407E+02 -0.68615673478E+02  0.87266430234E+02  0.17770000000E+01 0. -1.
         15    1    3    3    0    0  0.68671353109E+02 -0.12338095763E+02  0.19562366994E+02  0.72483289635E+02  0.17770000000E+01 0.  1.
</event>
<event>
 7    1  0.1093668E-008  0.1283158E+03  0.7546771E-02  0.1122258E+00
        -11   -1    0    0    0    0  0.00000000000E+00  0.00000000000E+00  0.18250000000E+03  0.18250000000E+03  0.00000000000E+00 0.  1.
         11   -1    0    0    0    0 -0.00000000000E+00 -0.00000000000E+00 -0.18250000000E+03  0.18250000000E+03  0.00000000000E+00 0. -1.
         23    2    1    2    0    0 -0.10420436086E+02  0.14966433780E+02 -0.40268266539E+02  0.10458908651E+03  0.94787995543E+02 0.  0.
        -11    1    1    2    0    0 -0.10339954609E+03 -0.29641167833E+01  0.88575055894E+02  0.13618293816E+03  0.00000000000E+00 0.  1.
         11    1    1    2    0    0  0.11381998218E+03 -0.12002316996E+02 -0.48306789355E+02  0.12422797533E+03  0.00000000000E+00 0. -1.
        -15    1    3    3    0    0  0.37467284814E+00  0.19484118603E+02  0.28631588364E+02  0.34679919819E+02  0.17770000000E+01 0.  1.
         15    1    3    3    0    0 -0.10795108934E+02 -0.45176848230E+01 -0.68899854903E+02  0.69909166693E+02  0.17770000000E+01 0. -1.
</event>
<event>
 7    1  0.1093668E-008  0.1343162E+03  0.7546771E-02  0.1114967E+00
        -11   -1    0    0    0    0  0.00000000000E+00  0.00000000000E+00  0.18250000000E+03  0.18250000000E+03  0.00000000000E+00 0. -1.
         11   -1    0    0    0    0 -0.00000000000E+00 -0.00000000000E+00 -0.18250000000E+03  0.18250000000E+03  0.00000000000E+00 0.  1.
         23    2    1    2    0    0 -0.20324382427E+00 -0.37961592726E+02 -0.61288671810E+02  0.11726076584E+03  0.92480603814E+02 0.  0.
        -11    1    1    2    0    0  0.53185704719E+02 -0.33993752081E+02  0.12361138358E+03  0.13879505942E+03  0.00000000000E+00 0. -1.
         11    1    1    2    0    0 -0.52982460895E+02  0.71955344807E+02 -0.62322711773E+02  0.10894417475E+03  0.00000000000E+00 0.  1.
        -15    1    3    3    0    0 -0.20053871121E+02  0.11658345297E+02 -0.59356706732E+02  0.63753047967E+02  0.17770000000E+01 0.  1.
         15    1    3    3    0    0  0.19850627297E+02 -0.49619938023E+02 -0.19319650783E+01  0.53507717869E+02  0.17770000000E+01 0. -1.
</event>
<event>
 7    1  0.1093668E-008  0.1451442E+03  0.7546771E-02  0.1102817E+00
        -11   -1    0    0    0    0  0.00000000000E+00  0.00000000000E+00  0.18250000000E+03  0.18250000000E+03  0.00000000000E+00 0.  1.
         11   -1    0    0    0    0 -0.00000000000E+00 -0.00000000000E+00 -0.18250000000E+03  0.18250000000E+03  0.00000000000E+00 0. -1.
         23    2    1    2    0    0  0.93696778173E+02 -0.87536662955E+02  0.36128726961E+02  0.16153216879E+03  0.91354272146E+02 0.  0.
        -11    1    1    2    0    0 -0.89356289901E+02 -0.18990607816E+02 -0.14824994607E+01  0.91364038521E+02  0.00000000000E+00 0. -1.
         11    1    1    2    0    0 -0.43404882722E+01  0.10652727077E+03 -0.34646227500E+02  0.11210379269E+03  0.00000000000E+00 0.  1.
        -15    1    3    3    0    0  0.82064547863E+02 -0.30844454643E+02  0.51412644325E+02  0.10164835524E+03  0.17770000000E+01 0.  1.
         15    1    3    3    0    0  0.11632230310E+02 -0.56692208313E+02 -0.15283917364E+02  0.59883813542E+02  0.17770000000E+01 0. -1.
</event>
