<event>
 6    1  0.6564965E-004  0.5067145E+03  0.7546771E-02  0.9384910E-01
        -11   -1    0    0    0    0  0.00000000000E+00  0.00000000000E+00  0.50000000000E+03  0.50000000000E+03  0.00000000000E+00 0.  1.
         11   -1    0    0    0    0 -0.00000000000E+00 -0.00000000000E+00 -0.50000000000E+03  0.50000000000E+03  0.00000000000E+00 0. -1.
        -11    1    1    2    0    0 -0.18417891061E+01  0.23991145256E+02  0.49269832870E+03  0.49328552618E+03  0.00000000000E+00 0.  1.
         11    1    1    2    0    0 -0.80228948431E+01 -0.26395267367E+01 -0.45093261144E+03  0.45101170051E+03  0.00000000000E+00 0. -1.
        -15    1    1    2    0    0  0.11821257877E+02 -0.19905708895E+02 -0.12669430653E+02  0.26450927895E+02  0.17770000000E+01 0.  1.
         15    1    1    2    0    0 -0.19565739278E+01 -0.14459096236E+01 -0.29096286612E+02  0.29251845409E+02  0.17770000000E+01 0. -1.
</event>
<event>
 6    1  0.6564965E-004  0.5004656E+03  0.7546771E-02  0.9398768E-01
        -11   -1    0    0    0    0  0.00000000000E+00  0.00000000000E+00  0.50000000000E+03  0.50000000000E+03  0.00000000000E+00 0. -1.
         11   -1    0    0    0    0 -0.00000000000E+00 -0.00000000000E+00 -0.50000000000E+03  0.50000000000E+03  0.00000000000E+00 0. -1.
        -11    1    1    2    0    0 -0.86808830522E+01  0.78639765903E+01  0.29001001157E+03  0.29024645849E+03  0.00000000000E+00 0. -1.
         11    1    1    2    0    0 -0.76635508025E+00 -0.68803922756E+01 -0.49948642446E+03  0.49953439853E+03  0.00000000000E+00 0. -1.
        -15    1    1    2    0    0 -0.28358293061E+01 -0.10058265724E+00  0.96791697499E+02  0.96849586878E+02  0.17770000000E+01 0.  1.
         15    1    1    2    0    0  0.12283067439E+02 -0.88300165746E+00  0.11268471539E+03  0.11336955610E+03  0.17770000000E+01 0. -1.
</event>
<event>
 6    1  0.6564965E-004  0.4895671E+03  0.7546771E-02  0.9423462E-01
        -11   -1    0    0    0    0  0.00000000000E+00  0.00000000000E+00  0.50000000000E+03  0.50000000000E+03  0.00000000000E+00 0.  1.
         11   -1    0    0    0    0 -0.00000000000E+00 -0.00000000000E+00 -0.50000000000E+03  0.50000000000E+03  0.00000000000E+00 0.  1.
        -11    1    1    2    0    0 -0.19441639526E+02  0.95756898041E+01  0.90482983712E+00  0.21690779140E+02  0.00000000000E+00 0.  1.
         11    1    1    2    0    0  0.25985921301E+02 -0.29895140991E+02 -0.48803717570E+03  0.48964198393E+03  0.00000000000E+00 0.  1.
        -15    1    1    2    0    0  0.22436143154E+01  0.21714102950E+02  0.44637963857E+03  0.44691663153E+03  0.17770000000E+01 0.  1.
         15    1    1    2    0    0 -0.87878960903E+01 -0.13946517630E+01  0.40752707289E+02  0.41750605404E+02  0.17770000000E+01 0. -1.
</event>
<event>
 6    1  0.6564965E-004  0.5005905E+03  0.7546771E-02  0.9398489E-01
        -11   -1    0    0    0    0  0.00000000000E+00  0.00000000000E+00  0.50000000000E+03  0.50000000000E+03  0.00000000000E+00 0. -1.
         11   -1    0    0    0    0 -0.00000000000E+00 -0.00000000000E+00 -0.50000000000E+03  0.50000000000E+03  0.00000000000E+00 0. -1.
        -11    1    1    2    0    0 -0.64757933345E+01  0.12347489525E+02  0.31060956123E+03  0.31092233101E+03  0.00000000000E+00 0. -1.
         11    1    1    2    0    0  0.59980523082E+01  0.34676775028E+01 -0.49936146781E+03  0.49940952829E+03  0.00000000000E+00 0. -1.
        -15    1    1    2    0    0 -0.36803231518E+01 -0.12044320242E+02  0.12557447562E+03  0.12621694452E+03  0.17770000000E+01 0. -1.
         15    1    1    2    0    0  0.41580641780E+01 -0.37708467851E+01  0.63177430961E+02  0.63451196167E+02  0.17770000000E+01 0. -1.
</event>
<event>
 6    1  0.6564965E-004  0.5016171E+03  0.7546771E-02  0.9396199E-01
        -11   -1    0    0    0    0  0.00000000000E+00  0.00000000000E+00  0.50000000000E+03  0.50000000000E+03  0.00000000000E+00 0. -1.
         11   -1    0    0    0    0 -0.00000000000E+00 -0.00000000000E+00 -0.50000000000E+03  0.50000000000E+03  0.00000000000E+00 0.  1.
        -11    1    1    2    0    0  0.66940154851E+01  0.15382125542E+01  0.45211388434E+03  0.45216605396E+03  0.00000000000E+00 0. -1.
         11    1    1    2    0    0 -0.67827258717E+01 -0.92155835936E+01 -0.49825150060E+03  0.49838287511E+03  0.00000000000E+00 0.  1.
        -15    1    1    2    0    0 -0.70342607410E+00 -0.29105647289E+01  0.29030881184E+02  0.29238946401E+02  0.17770000000E+01 0.  1.
         15    1    1    2    0    0  0.79213646074E+00  0.10587935768E+02  0.17106735072E+02  0.20212124525E+02  0.17770000000E+01 0. -1.
</event>
<event>
 6    1  0.6564965E-004  0.5006619E+03  0.7546771E-02  0.9398330E-01
        -11   -1    0    0    0    0  0.00000000000E+00  0.00000000000E+00  0.50000000000E+03  0.50000000000E+03  0.00000000000E+00 0. -1.
         11   -1    0    0    0    0 -0.00000000000E+00 -0.00000000000E+00 -0.50000000000E+03  0.50000000000E+03  0.00000000000E+00 0. -1.
        -11    1    1    2    0    0 -0.71956186454E+01  0.98502804073E+01  0.49918910310E+03  0.49933812753E+03  0.00000000000E+00 0. -1.
         11    1    1    2    0    0  0.34607600334E+01 -0.53514496056E+01 -0.35909064467E+03  0.35914719261E+03  0.00000000000E+00 0. -1.
        -15    1    1    2    0    0 -0.38648620921E+01 -0.48523052110E+00 -0.11190420189E+03  0.11198607386E+03  0.17770000000E+01 0.  1.
         15    1    1    2    0    0  0.75997207041E+01 -0.40136002806E+01 -0.28194256539E+02  0.29528606008E+02  0.17770000000E+01 0. -1.
</event>
<event>
 6    1  0.6564965E-004  0.5032119E+03  0.7546771E-02  0.9392651E-01
        -11   -1    0    0    0    0  0.00000000000E+00  0.00000000000E+00  0.50000000000E+03  0.50000000000E+03  0.00000000000E+00 0.  1.
         11   -1    0    0    0    0 -0.00000000000E+00 -0.00000000000E+00 -0.50000000000E+03  0.50000000000E+03  0.00000000000E+00 0.  1.
        -11    1    1    2    0    0 -0.24701137150E+02  0.19162576231E+02  0.49580346961E+03  0.49678811478E+03  0.00000000000E+00 0.  1.
         11    1    1    2    0    0  0.10410819832E+02 -0.15247013307E+02 -0.47472369452E+03  0.47508256411E+03  0.00000000000E+00 0.  1.
        -15    1    1    2    0    0  0.11304578853E+02 -0.71996712519E+01 -0.13090721096E+02  0.18818965885E+02  0.17770000000E+01 0.  1.
         15    1    1    2    0    0  0.29857384655E+01  0.32841083286E+01 -0.79890539941E+01  0.93103552252E+01  0.17770000000E+01 0. -1.
</event>
<event>
 6    1  0.6564965E-004  0.5010395E+03  0.7546771E-02  0.9397487E-01
        -11   -1    0    0    0    0  0.00000000000E+00  0.00000000000E+00  0.50000000000E+03  0.50000000000E+03  0.00000000000E+00 0. -1.
         11   -1    0    0    0    0 -0.00000000000E+00 -0.00000000000E+00 -0.50000000000E+03  0.50000000000E+03  0.00000000000E+00 0.  1.
        -11    1    1    2    0    0 -0.31648083406E+01 -0.21005656614E+02  0.49850806966E+03  0.49896046851E+03  0.00000000000E+00 0. -1.
         11    1    1    2    0    0  0.52091678235E+01 -0.15749716824E+01 -0.37456765347E+03  0.37460718492E+03  0.00000000000E+00 0.  1.
        -15    1    1    2    0    0  0.36370686853E+01  0.67681156874E+01 -0.32420726680E+02  0.33366104149E+02  0.17770000000E+01 0. -1.
         15    1    1    2    0    0 -0.56814281683E+01  0.15812512609E+02 -0.91519689510E+02  0.93066242419E+02  0.17770000000E+01 0.  1.
</event>
<event>
 6    1  0.6564965E-004  0.5007508E+03  0.7546771E-02  0.9398131E-01
        -11   -1    0    0    0    0  0.00000000000E+00  0.00000000000E+00  0.50000000000E+03  0.50000000000E+03  0.00000000000E+00 0. -1.
         11   -1    0    0    0    0 -0.00000000000E+00 -0.00000000000E+00 -0.50000000000E+03  0.50000000000E+03  0.00000000000E+00 0. -1.
        -11    1    1    2    0    0 -0.10831570728E+02  0.16221498186E+02  0.49886797343E+03  0.49924915107E+03  0.00000000000E+00 0. -1.
         11    1    1    2    0    0 -0.49848542953E+01  0.31212426524E+00 -0.29535603859E+03  0.29539826629E+03  0.00000000000E+00 0. -1.
        -15    1    1    2    0    0  0.17315722097E+02 -0.14713214328E+02 -0.14632104590E+03  0.14808551283E+03  0.17770000000E+01 0.  1.
         15    1    1    2    0    0 -0.14992970737E+01 -0.18204081233E+01 -0.57190888944E+02  0.57267069810E+02  0.17770000000E+01 0.  1.
</event>
<event>
 6    1  0.6564965E-004  0.4882374E+03  0.7546771E-02  0.9426521E-01
        -11   -1    0    0    0    0  0.00000000000E+00  0.00000000000E+00  0.50000000000E+03  0.50000000000E+03  0.00000000000E+00 0.  1.
         11   -1    0    0    0    0 -0.00000000000E+00 -0.00000000000E+00 -0.50000000000E+03  0.50000000000E+03  0.00000000000E+00 0.  1.
        -11    1    1    2    0    0  0.84797906967E+01  0.24998618445E+00  0.48546942112E+03  0.48554353892E+03  0.00000000000E+00 0.  1.
         11    1    1    2    0    0  0.12102364232E+02  0.27297207084E+01 -0.49101169269E+03  0.49116840386E+03  0.00000000000E+00 0.  1.
        -15    1    1    2    0    0 -0.86505893579E+01 -0.48597888691E+01  0.44873215310E+01  0.11033767607E+02  0.17770000000E+01 0. -1.
         15    1    1    2    0    0 -0.11931565571E+02  0.18800819762E+01  0.10549500375E+01  0.12254289607E+02  0.17770000000E+01 0.  1.
</event>
<event>
 6    1  0.6564965E-004  0.5044892E+03  0.7546771E-02  0.9389820E-01
        -11   -1    0    0    0    0  0.00000000000E+00  0.00000000000E+00  0.50000000000E+03  0.50000000000E+03  0.00000000000E+00 0.  1.
         11   -1    0    0    0    0 -0.00000000000E+00 -0.00000000000E+00 -0.50000000000E+03  0.50000000000E+03  0.00000000000E+00 0. -1.
        -11    1    1    2    0    0 -0.11136382125E+02  0.58501068374E+01  0.46405935884E+03  0.46422982593E+03  0.00000000000E+00 0.  1.
         11    1    1    2    0    0 -0.21111462958E+01  0.74671085712E+01 -0.49545005537E+03  0.49551081927E+03  0.00000000000E+00 0. -1.
        -15    1    1    2    0    0 -0.17388964990E+01 -0.85816185724E+01  0.15156100277E+02  0.17593551176E+02  0.17770000000E+01 0.  1.
         15    1    1    2    0    0  0.14986424919E+02 -0.47355968361E+01  0.16234596256E+02  0.22665803623E+02  0.17770000000E+01 0. -1.
</event>
<event>
 6    1  0.6564965E-004  0.5015918E+03  0.7546771E-02  0.9396255E-01
        -11   -1    0    0    0    0  0.00000000000E+00  0.00000000000E+00  0.50000000000E+03  0.50000000000E+03  0.00000000000E+00 0.  1.
         11   -1    0    0    0    0 -0.00000000000E+00 -0.00000000000E+00 -0.50000000000E+03  0.50000000000E+03  0.00000000000E+00 0. -1.
        -11    1    1    2    0    0  0.87450040834E+01  0.29058351355E+02  0.37311177343E+03  0.37434377029E+03  0.00000000000E+00 0.  1.
         11    1    1    2    0    0 -0.19902713820E+02 -0.13096320703E+02 -0.49783842284E+03  0.49840819304E+03  0.00000000000E+00 0. -1.
        -15    1    1    2    0    0  0.11262748300E+02 -0.10607144077E+02  0.11461688799E+03  0.11567000366E+03  0.17770000000E+01 0. -1.
         15    1    1    2    0    0 -0.10503856282E+00 -0.53548865751E+01  0.10109761421E+02  0.11578033008E+02  0.17770000000E+01 0.  1.
</event>
<event>
 6    1  0.6564965E-004  0.5017667E+03  0.7546771E-02  0.9395865E-01
        -11   -1    0    0    0    0  0.00000000000E+00  0.00000000000E+00  0.50000000000E+03  0.50000000000E+03  0.00000000000E+00 0. -1.
         11   -1    0    0    0    0 -0.00000000000E+00 -0.00000000000E+00 -0.50000000000E+03  0.50000000000E+03  0.00000000000E+00 0. -1.
        -11    1    1    2    0    0 -0.14230677887E+02 -0.62908181076E+01  0.49799030589E+03  0.49823331016E+03  0.00000000000E+00 0. -1.
         11    1    1    2    0    0  0.19117282087E-01 -0.71142353317E+01 -0.43315964470E+03  0.43321806346E+03  0.00000000000E+00 0. -1.
        -15    1    1    2    0    0  0.10372693605E+02  0.11182234774E+02 -0.59221511538E+02  0.61179901152E+02  0.17770000000E+01 0.  1.
         15    1    1    2    0    0  0.38388670000E+01  0.22228186649E+01 -0.56091496518E+01  0.73687252274E+01  0.17770000000E+01 0. -1.
</event>
<event>
 6    1  0.6564965E-004  0.5010417E+03  0.7546771E-02  0.9397482E-01
        -11   -1    0    0    0    0  0.00000000000E+00  0.00000000000E+00  0.50000000000E+03  0.50000000000E+03  0.00000000000E+00 0. -1.
         11   -1    0    0    0    0 -0.00000000000E+00 -0.00000000000E+00 -0.50000000000E+03  0.50000000000E+03  0.00000000000E+00 0.  1.
        -11    1    1    2    0    0 -0.13371003816E+01 -0.96207632747E+01  0.49886375269E+03  0.49895830555E+03  0.00000000000E+00 0. -1.
         11    1    1    2    0    0  0.33761906409E+01 -0.61036805267E+01 -0.42264937590E+03  0.42270692983E+03  0.00000000000E+00 0.  1.
        -15    1    1    2    0    0 -0.14056859258E+01  0.27239132902E+01 -0.32406951975E+02  0.32600060151E+02  0.17770000000E+01 0. -1.
         15    1    1    2    0    0 -0.63340433344E+00  0.13000530511E+02 -0.43807424820E+02  0.45734704471E+02  0.17770000000E+01 0.  1.
</event>
<event>
 6    1  0.6564965E-004  0.5032753E+03  0.7546771E-02  0.9392511E-01
        -11   -1    0    0    0    0  0.00000000000E+00  0.00000000000E+00  0.50000000000E+03  0.50000000000E+03  0.00000000000E+00 0. -1.
         11   -1    0    0    0    0 -0.00000000000E+00 -0.00000000000E+00 -0.50000000000E+03  0.50000000000E+03  0.00000000000E+00 0. -1.
        -11    1    1    2    0    0 -0.11911661381E+02  0.75362726390E+02  0.49082993415E+03  0.49672472503E+03  0.00000000000E+00 0. -1.
         11    1    1    2    0    0 -0.70499515993E+01 -0.27383937769E+01 -0.62373831111E+02  0.62830688564E+02  0.00000000000E+00 0. -1.
        -15    1    1    2    0    0 -0.35397206823E+01  0.12856971189E+02 -0.66513859049E+02  0.67860758213E+02  0.17770000000E+01 0.  1.
         15    1    1    2    0    0  0.22501333663E+02 -0.85481303801E+02 -0.36194224399E+03  0.37258382819E+03  0.17770000000E+01 0. -1.
</event>
<event>
 6    1  0.6564965E-004  0.5075402E+03  0.7546771E-02  0.9383094E-01
        -11   -1    0    0    0    0  0.00000000000E+00  0.00000000000E+00  0.50000000000E+03  0.50000000000E+03  0.00000000000E+00 0.  1.
         11   -1    0    0    0    0 -0.00000000000E+00 -0.00000000000E+00 -0.50000000000E+03  0.50000000000E+03  0.00000000000E+00 0.  1.
        -11    1    1    2    0    0 -0.22085561369E+02 -0.29048486982E+02  0.31339192716E+03  0.31550924967E+03  0.00000000000E+00 0.  1.
         11    1    1    2    0    0 -0.12762420962E+02  0.44245881407E+01 -0.49227447815E+03  0.49245976303E+03  0.00000000000E+00 0.  1.
        -15    1    1    2    0    0  0.20555306864E+02  0.33343974182E+02  0.58180549630E+02  0.70160354466E+02  0.17770000000E+01 0.  1.
         15    1    1    2    0    0  0.14292675468E+02 -0.87200753407E+01  0.12070200136E+03  0.12187063283E+03  0.17770000000E+01 0. -1.
</event>
<event>
 6    1  0.6564965E-004  0.5037357E+03  0.7546771E-02  0.9391489E-01
        -11   -1    0    0    0    0  0.00000000000E+00  0.00000000000E+00  0.50000000000E+03  0.50000000000E+03  0.00000000000E+00 0. -1.
         11   -1    0    0    0    0 -0.00000000000E+00 -0.00000000000E+00 -0.50000000000E+03  0.50000000000E+03  0.00000000000E+00 0.  1.
        -11    1    1    2    0    0  0.19990435343E+02 -0.18224468537E+02  0.49552652846E+03  0.49626433396E+03  0.00000000000E+00 0. -1.
         11    1    1    2    0    0 -0.97826842025E+01 -0.63936109816E+01 -0.37693389510E+03  0.37711502284E+03  0.00000000000E+00 0.  1.
        -15    1    1    2    0    0  0.10659598748E+02 -0.34526504815E+00 -0.42316265255E+02  0.43675740264E+02  0.17770000000E+01 0. -1.
         15    1    1    2    0    0 -0.20867349888E+02  0.24963344566E+02 -0.76276368100E+02  0.82944902935E+02  0.17770000000E+01 0.  1.
</event>
<event>
 6    1  0.6564965E-004  0.5000518E+03  0.7546771E-02  0.9399694E-01
        -11   -1    0    0    0    0  0.00000000000E+00  0.00000000000E+00  0.50000000000E+03  0.50000000000E+03  0.00000000000E+00 0.  1.
         11   -1    0    0    0    0 -0.00000000000E+00 -0.00000000000E+00 -0.50000000000E+03  0.50000000000E+03  0.00000000000E+00 0.  1.
        -11    1    1    2    0    0 -0.82894082824E+01 -0.96841915019E+01  0.49978565463E+03  0.49994819574E+03  0.00000000000E+00 0.  1.
         11    1    1    2    0    0  0.32855887170E+01  0.40848703641E+01 -0.25724786871E+03  0.25730127714E+03  0.00000000000E+00 0.  1.
        -15    1    1    2    0    0  0.53300437425E+01  0.46762271608E+01 -0.13834063574E+03  0.13853362658E+03  0.17770000000E+01 0. -1.
         15    1    1    2    0    0 -0.32622417704E+00  0.92309397706E+00 -0.10419715017E+03  0.10421690054E+03  0.17770000000E+01 0.  1.
</event>
<event>
 6    1  0.6564965E-004  0.5018906E+03  0.7546771E-02  0.9395589E-01
        -11   -1    0    0    0    0  0.00000000000E+00  0.00000000000E+00  0.50000000000E+03  0.50000000000E+03  0.00000000000E+00 0.  1.
         11   -1    0    0    0    0 -0.00000000000E+00 -0.00000000000E+00 -0.50000000000E+03  0.50000000000E+03  0.00000000000E+00 0.  1.
        -11    1    1    2    0    0  0.57572686485E+01  0.11570548395E+02  0.49794173609E+03  0.49810942199E+03  0.00000000000E+00 0.  1.
         11    1    1    2    0    0 -0.83579978510E+01  0.26307869797E+01 -0.46523915678E+03  0.46532166312E+03  0.00000000000E+00 0.  1.
        -15    1    1    2    0    0  0.12831282071E+01 -0.10212790984E+02 -0.28549884160E+02  0.30400676509E+02  0.17770000000E+01 0.  1.
         15    1    1    2    0    0  0.13176009953E+01 -0.39885443910E+01 -0.41526951456E+01  0.61682383801E+01  0.17770000000E+01 0. -1.
</event>
<event>
 6    1  0.6564965E-004  0.5004456E+03  0.7546771E-02  0.9398813E-01
        -11   -1    0    0    0    0  0.00000000000E+00  0.00000000000E+00  0.50000000000E+03  0.50000000000E+03  0.00000000000E+00 0. -1.
         11   -1    0    0    0    0 -0.00000000000E+00 -0.00000000000E+00 -0.50000000000E+03  0.50000000000E+03  0.00000000000E+00 0. -1.
        -11    1    1    2    0    0  0.75303237347E+01  0.80503863331E+01  0.49943280093E+03  0.49955443861E+03  0.00000000000E+00 0. -1.
         11    1    1    2    0    0 -0.62031545275E+01 -0.92451777030E+00 -0.43607335021E+03  0.43611844793E+03  0.00000000000E+00 0. -1.
        -15    1    1    2    0    0 -0.20770086411E+01  0.39997929081E+00 -0.27346535519E+02  0.27485717786E+02  0.17770000000E+01 0. -1.
         15    1    1    2    0    0  0.74983943399E+00 -0.75258478536E+01 -0.36012915197E+02  0.36841395672E+02  0.17770000000E+01 0. -1.
</event>
<event>
 6    1  0.6564965E-004  0.5021574E+03  0.7546771E-02  0.9394995E-01
        -11   -1    0    0    0    0  0.00000000000E+00  0.00000000000E+00  0.50000000000E+03  0.50000000000E+03  0.00000000000E+00 0. -1.
         11   -1    0    0    0    0 -0.00000000000E+00 -0.00000000000E+00 -0.50000000000E+03  0.50000000000E+03  0.00000000000E+00 0. -1.
        -11    1    1    2    0    0 -0.34941653168E+00 -0.17369229764E+02  0.49753936375E+03  0.49784257623E+03  0.00000000000E+00 0. -1.
         11    1    1    2    0    0  0.10360168272E+02  0.42816056914E+01 -0.44992658546E+03  0.45006621462E+03  0.00000000000E+00 0. -1.
        -15    1    1    2    0    0 -0.51028714681E+01  0.52695742491E+01 -0.37628483169E+02  0.38377964831E+02  0.17770000000E+01 0. -1.
         15    1    1    2    0    0 -0.49078802724E+01  0.78180498236E+01 -0.99842951152E+01  0.13713244319E+02  0.17770000000E+01 0.  1.
</event>
<event>
 6    1  0.6564965E-004  0.5000991E+03  0.7546771E-02  0.9399588E-01
        -11   -1    0    0    0    0  0.00000000000E+00  0.00000000000E+00  0.50000000000E+03  0.50000000000E+03  0.00000000000E+00 0. -1.
         11   -1    0    0    0    0 -0.00000000000E+00 -0.00000000000E+00 -0.50000000000E+03  0.50000000000E+03  0.00000000000E+00 0. -1.
        -11    1    1    2    0    0 -0.26730012015E+01 -0.87994522920E+01  0.44836409192E+03  0.44845839742E+03  0.00000000000E+00 0. -1.
         11    1    1    2    0    0  0.22515390996E+01  0.72969173969E+01 -0.49984253670E+03  0.49990086610E+03  0.00000000000E+00 0. -1.
        -15    1    1    2    0    0 -0.96390158845E-01  0.12696364294E+01  0.31295655403E+02  0.31371914889E+02  0.17770000000E+01 0. -1.
         15    1    1    2    0    0  0.51785226081E+00  0.23289846564E+00  0.20182789374E+02  0.20268821588E+02  0.17770000000E+01 0.  1.
</event>
<event>
 6    1  0.6564965E-004  0.5177690E+03  0.7546771E-02  0.9360905E-01
        -11   -1    0    0    0    0  0.00000000000E+00  0.00000000000E+00  0.50000000000E+03  0.50000000000E+03  0.00000000000E+00 0.  1.
         11   -1    0    0    0    0 -0.00000000000E+00 -0.00000000000E+00 -0.50000000000E+03  0.50000000000E+03  0.00000000000E+00 0.  1.
        -11    1    1    2    0    0 -0.64253904019E+01  0.54428958707E+02  0.68655861690E+02  0.87848873255E+02  0.00000000000E+00 0.  1.
         11    1    1    2    0    0 -0.14016275626E+02  0.19054366663E+01 -0.48202349160E+03  0.48223099561E+03  0.00000000000E+00 0.  1.
        -15    1    1    2    0    0 -0.25779908916E+02 -0.50991190506E+02  0.32545789983E+03  0.33044017235E+03  0.17770000000E+01 0.  1.
         15    1    1    2    0    0  0.46221574944E+02 -0.53432048665E+01  0.87909730080E+02  0.99479958787E+02  0.17770000000E+01 0. -1.
</event>
<event>
 6    1  0.6564965E-004  0.5023940E+03  0.7546771E-02  0.9394469E-01
        -11   -1    0    0    0    0  0.00000000000E+00  0.00000000000E+00  0.50000000000E+03  0.50000000000E+03  0.00000000000E+00 0. -1.
         11   -1    0    0    0    0 -0.00000000000E+00 -0.00000000000E+00 -0.50000000000E+03  0.50000000000E+03  0.00000000000E+00 0. -1.
        -11    1    1    2    0    0  0.55860918719E+01 -0.11725459080E+02  0.49743642549E+03  0.49760595678E+03  0.00000000000E+00 0. -1.
         11    1    1    2    0    0 -0.89120199521E+01  0.29157187292E+01 -0.46662844336E+03  0.46672264748E+03  0.00000000000E+00 0. -1.
        -15    1    1    2    0    0  0.60852750523E+01 -0.46219050291E+00 -0.20329140146E+02  0.21299668086E+02  0.17770000000E+01 0.  1.
         15    1    1    2    0    0 -0.27593469720E+01  0.92719308537E+01 -0.10478841986E+02  0.14371727657E+02  0.17770000000E+01 0. -1.
</event>
<event>
 6    1  0.6564965E-004  0.4844303E+03  0.7546771E-02  0.9435338E-01
        -11   -1    0    0    0    0  0.00000000000E+00  0.00000000000E+00  0.50000000000E+03  0.50000000000E+03  0.00000000000E+00 0.  1.
         11   -1    0    0    0    0 -0.00000000000E+00 -0.00000000000E+00 -0.50000000000E+03  0.50000000000E+03  0.00000000000E+00 0.  1.
        -11    1    1    2    0    0 -0.12756657864E+02 -0.27989719555E+02  0.55413072029E+01  0.31254804529E+02  0.00000000000E+00 0.  1.
         11    1    1    2    0    0  0.13950004398E+02  0.18710471003E+02 -0.48650637482E+03  0.48706584472E+03  0.00000000000E+00 0.  1.
        -15    1    1    2    0    0 -0.95995390924E+01  0.15621174395E+01  0.36646210224E+03  0.36659544660E+03  0.17770000000E+01 0.  1.
         15    1    1    2    0    0  0.84061925588E+01  0.77171311123E+01  0.11450296538E+03  0.11508390415E+03  0.17770000000E+01 0. -1.
</event>
<event>
 6    1  0.6564965E-004  0.5023793E+03  0.7546771E-02  0.9394502E-01
        -11   -1    0    0    0    0  0.00000000000E+00  0.00000000000E+00  0.50000000000E+03  0.50000000000E+03  0.00000000000E+00 0. -1.
         11   -1    0    0    0    0 -0.00000000000E+00 -0.00000000000E+00 -0.50000000000E+03  0.50000000000E+03  0.00000000000E+00 0. -1.
        -11    1    1    2    0    0  0.10833738569E+02  0.58798866819E-01  0.41101414573E+03  0.41115690598E+03  0.00000000000E+00 0. -1.
         11    1    1    2    0    0  0.14695998376E+02  0.34178489712E+01 -0.49739193908E+03  0.49762073422E+03  0.00000000000E+00 0. -1.
        -15    1    1    2    0    0 -0.53331364842E+01  0.41803032260E+00  0.59876913004E+01  0.82235801339E+01  0.17770000000E+01 0.  1.
         15    1    1    2    0    0 -0.20196600461E+02 -0.38946781606E+01  0.80390102056E+02  0.82998779664E+02  0.17770000000E+01 0. -1.
</event>
<event>
 6    1  0.6564965E-004  0.5030503E+03  0.7546771E-02  0.9393010E-01
        -11   -1    0    0    0    0  0.00000000000E+00  0.00000000000E+00  0.50000000000E+03  0.50000000000E+03  0.00000000000E+00 0.  1.
         11   -1    0    0    0    0 -0.00000000000E+00 -0.00000000000E+00 -0.50000000000E+03  0.50000000000E+03  0.00000000000E+00 0. -1.
        -11    1    1    2    0    0  0.13717916319E+02  0.48162189621E+02  0.49442011945E+03  0.49694972809E+03  0.00000000000E+00 0.  1.
         11    1    1    2    0    0 -0.86332460751E+01  0.22082312199E+01 -0.31660914234E+03  0.31673452328E+03  0.00000000000E+00 0. -1.
        -15    1    1    2    0    0 -0.41997697761E+00 -0.44862850863E+02 -0.12177453532E+03  0.12978847002E+03  0.17770000000E+01 0. -1.
         15    1    1    2    0    0 -0.46646932660E+01 -0.55075699777E+01 -0.56036441787E+02  0.56527278614E+02  0.17770000000E+01 0.  1.
</event>
<event>
 6    1  0.6564965E-004  0.5030450E+03  0.7546771E-02  0.9393022E-01
        -11   -1    0    0    0    0  0.00000000000E+00  0.00000000000E+00  0.50000000000E+03  0.50000000000E+03  0.00000000000E+00 0.  1.
         11   -1    0    0    0    0 -0.00000000000E+00 -0.00000000000E+00 -0.50000000000E+03  0.50000000000E+03  0.00000000000E+00 0. -1.
        -11    1    1    2    0    0  0.95334261417E+01  0.84765256223E+01  0.41151373503E+03  0.41171141813E+03  0.00000000000E+00 0.  1.
         11    1    1    2    0    0  0.10511733493E+01  0.20139760237E+02 -0.49654557982E+03  0.49695495545E+03  0.00000000000E+00 0. -1.
        -15    1    1    2    0    0 -0.78797848821E+01 -0.26951178237E+02  0.81664090054E+02  0.86374986839E+02  0.17770000000E+01 0. -1.
         15    1    1    2    0    0 -0.27048146090E+01 -0.16651076224E+01  0.33677547422E+01  0.49586395782E+01  0.17770000000E+01 0.  1.
</event>
<event>
 6    1  0.6564965E-004  0.5015536E+03  0.7546771E-02  0.9396340E-01
        -11   -1    0    0    0    0  0.00000000000E+00  0.00000000000E+00  0.50000000000E+03  0.50000000000E+03  0.00000000000E+00 0.  1.
         11   -1    0    0    0    0 -0.00000000000E+00 -0.00000000000E+00 -0.50000000000E+03  0.50000000000E+03  0.00000000000E+00 0. -1.
        -11    1    1    2    0    0  0.30730652642E+01  0.22839187161E+02  0.94925579566E+02  0.97682843203E+02  0.00000000000E+00 0.  1.
         11    1    1    2    0    0  0.13424442809E+02 -0.10574315573E+02 -0.49815338825E+03  0.49844641642E+03  0.00000000000E+00 0. -1.
        -15    1    1    2    0    0  0.59165465260E+00 -0.21082618299E+01  0.51006617158E+02  0.51084513759E+02  0.17770000000E+01 0.  1.
         15    1    1    2    0    0 -0.17089162726E+02 -0.10156609759E+02  0.35222119153E+03  0.35278622662E+03  0.17770000000E+01 0.  1.
</event>
<event>
 6    1  0.6564965E-004  0.5002877E+03  0.7546771E-02  0.9399166E-01
        -11   -1    0    0    0    0  0.00000000000E+00  0.00000000000E+00  0.50000000000E+03  0.50000000000E+03  0.00000000000E+00 0.  1.
         11   -1    0    0    0    0 -0.00000000000E+00 -0.00000000000E+00 -0.50000000000E+03  0.50000000000E+03  0.00000000000E+00 0. -1.
        -11    1    1    2    0    0  0.13288814455E+02 -0.16245507536E+01  0.49953291786E+03  0.49971228500E+03  0.00000000000E+00 0.  1.
         11    1    1    2    0    0 -0.91686772151E+01  0.24146227592E+01 -0.42511134530E+03  0.42521706333E+03  0.00000000000E+00 0. -1.
        -15    1    1    2    0    0 -0.63234961541E+01 -0.85662298091E+00 -0.41251461049E+02  0.41779913525E+02  0.17770000000E+01 0.  1.
         15    1    1    2    0    0  0.22033589146E+01  0.66550975332E-01 -0.33170111508E+02  0.33290738141E+02  0.17770000000E+01 0. -1.
</event>
<event>
 6    1  0.6564965E-004  0.5013619E+03  0.7546771E-02  0.9396768E-01
        -11   -1    0    0    0    0  0.00000000000E+00  0.00000000000E+00  0.50000000000E+03  0.50000000000E+03  0.00000000000E+00 0. -1.
         11   -1    0    0    0    0 -0.00000000000E+00 -0.00000000000E+00 -0.50000000000E+03  0.50000000000E+03  0.00000000000E+00 0.  1.
        -11    1    1    2    0    0 -0.81433374235E+01 -0.22075401866E+02  0.88854814772E+02  0.91917438063E+02  0.00000000000E+00 0. -1.
         11    1    1    2    0    0  0.16679064220E+02  0.30252744562E+02 -0.49744001714E+03  0.49863813571E+03  0.00000000000E+00 0.  1.
        -15    1    1    2    0    0 -0.92267407998E+00  0.58233186369E+01  0.36651091955E+02  0.37164803752E+02  0.17770000000E+01 0.  1.
         15    1    1    2    0    0 -0.76130527162E+01 -0.14000661333E+02  0.37193411041E+03  0.37227962247E+03  0.17770000000E+01 0. -1.
</event>
<event>
 6    1  0.6564965E-004  0.5002363E+03  0.7546771E-02  0.9399281E-01
        -11   -1    0    0    0    0  0.00000000000E+00  0.00000000000E+00  0.50000000000E+03  0.50000000000E+03  0.00000000000E+00 0. -1.
         11   -1    0    0    0    0 -0.00000000000E+00 -0.00000000000E+00 -0.50000000000E+03  0.50000000000E+03  0.00000000000E+00 0.  1.
        -11    1    1    2    0    0 -0.14584804799E+02 -0.93355203065E+01  0.25912672430E+03  0.25970469329E+03  0.00000000000E+00 0. -1.
         11    1    1    2    0    0  0.16294844265E+02  0.81979608223E+01 -0.49943068508E+03  0.49976368187E+03  0.00000000000E+00 0.  1.
        -15    1    1    2    0    0 -0.38218205568E+01  0.38530013436E+00  0.21847878569E+03  0.21851977553E+03  0.17770000000E+01 0. -1.
         15    1    1    2    0    0  0.21117810903E+01  0.75225934980E+00  0.21825175086E+02  0.22011849310E+02  0.17770000000E+01 0.  1.
</event>
<event>
 6    1  0.6564965E-004  0.5025942E+03  0.7546771E-02  0.9394024E-01
        -11   -1    0    0    0    0  0.00000000000E+00  0.00000000000E+00  0.50000000000E+03  0.50000000000E+03  0.00000000000E+00 0. -1.
         11   -1    0    0    0    0 -0.00000000000E+00 -0.00000000000E+00 -0.50000000000E+03  0.50000000000E+03  0.00000000000E+00 0.  1.
        -11    1    1    2    0    0 -0.12138984647E+02  0.62286363054E+01  0.46919925995E+03  0.46939758883E+03  0.00000000000E+00 0. -1.
         11    1    1    2    0    0  0.41532280526E-01 -0.88174719095E+01 -0.49732762901E+03  0.49740579019E+03  0.00000000000E+00 0.  1.
        -15    1    1    2    0    0  0.94972282648E+01  0.59839487408E+01  0.25387765598E+02  0.27815487741E+02  0.17770000000E+01 0.  1.
         15    1    1    2    0    0  0.26002241022E+01 -0.33951131367E+01  0.27406034614E+01  0.53811332380E+01  0.17770000000E+01 0. -1.
</event>
<event>
 6    1  0.2082564E-003  0.5001279E+03  0.7546771E-02  0.9399524E-01
        -11   -1    0    0    0    0  0.00000000000E+00  0.00000000000E+00  0.50000000000E+03  0.50000000000E+03  0.00000000000E+00 0. -1.
         11   -1    0    0    0    0 -0.00000000000E+00 -0.00000000000E+00 -0.50000000000E+03  0.50000000000E+03  0.00000000000E+00 0. -1.
        -11    1    1    2    0    0 -0.11389708197E+02  0.38143311407E+01  0.49972775348E+03  0.49987208581E+03  0.00000000000E+00 0. -1.
         11    1    1    2    0    0 -0.97291236182E+00 -0.17765223299E+01 -0.12464654497E+03  0.12466300078E+03  0.00000000000E+00 0. -1.
        -15    1    1    2    0    0  0.18203954419E+01 -0.48575522447E+01 -0.16718961964E+03  0.16727951547E+03  0.17770000000E+01 0. -1.
         15    1    1    2    0    0  0.10542225117E+02  0.28197434339E+01 -0.20789158887E+03  0.20818539794E+03  0.17770000000E+01 0.  1.
</event>
<event>
 6    1  0.6564965E-004  0.5004416E+03  0.7546771E-02  0.9398822E-01
        -11   -1    0    0    0    0  0.00000000000E+00  0.00000000000E+00  0.50000000000E+03  0.50000000000E+03  0.00000000000E+00 0. -1.
         11   -1    0    0    0    0 -0.00000000000E+00 -0.00000000000E+00 -0.50000000000E+03  0.50000000000E+03  0.00000000000E+00 0.  1.
        -11    1    1    2    0    0 -0.77451909299E+01  0.84409482984E+01  0.49942703812E+03  0.49955840900E+03  0.00000000000E+00 0. -1.
         11    1    1    2    0    0 -0.19927746885E+01  0.65059892578E+01 -0.19682892994E+03  0.19694650722E+03  0.00000000000E+00 0.  1.
        -15    1    1    2    0    0  0.13022241586E+02 -0.14402393510E+02 -0.24619406482E+03  0.24696494285E+03  0.17770000000E+01 0.  1.
         15    1    1    2    0    0 -0.32842759677E+01 -0.54454404630E+00 -0.56404043366E+02  0.56530140933E+02  0.17770000000E+01 0. -1.
</event>
<event>
 6    1  0.6564965E-004  0.5018426E+03  0.7546771E-02  0.9395696E-01
        -11   -1    0    0    0    0  0.00000000000E+00  0.00000000000E+00  0.50000000000E+03  0.50000000000E+03  0.00000000000E+00 0.  1.
         11   -1    0    0    0    0 -0.00000000000E+00 -0.00000000000E+00 -0.50000000000E+03  0.50000000000E+03  0.00000000000E+00 0.  1.
        -11    1    1    2    0    0 -0.16678365914E+02 -0.15610286956E+02  0.49763330193E+03  0.49815735680E+03  0.00000000000E+00 0.  1.
         11    1    1    2    0    0  0.55153279039E+01  0.47630666806E+01 -0.38514900868E+03  0.38521794420E+03  0.00000000000E+00 0.  1.
        -15    1    1    2    0    0  0.14313835739E+02  0.17829370052E+02 -0.83086188645E+02  0.86193067022E+02  0.17770000000E+01 0. -1.
         15    1    1    2    0    0 -0.31507977289E+01 -0.69821497769E+01 -0.29398104598E+02  0.30431631977E+02  0.17770000000E+01 0.  1.
</event>
<event>
 6    1  0.6564965E-004  0.5091395E+03  0.7546771E-02  0.9379588E-01
        -11   -1    0    0    0    0  0.00000000000E+00  0.00000000000E+00  0.50000000000E+03  0.50000000000E+03  0.00000000000E+00 0.  1.
         11   -1    0    0    0    0 -0.00000000000E+00 -0.00000000000E+00 -0.50000000000E+03  0.50000000000E+03  0.00000000000E+00 0. -1.
        -11    1    1    2    0    0 -0.94833884026E+00 -0.11769440937E+03  0.47654083134E+03  0.49086050695E+03  0.00000000000E+00 0.  1.
         11    1    1    2    0    0  0.46030526501E+01  0.31702220288E+01 -0.19019718979E+03  0.19027929316E+03  0.00000000000E+00 0. -1.
        -15    1    1    2    0    0 -0.28895923293E+01  0.80232118122E+01 -0.12635985373E+03  0.12665974907E+03  0.17770000000E+01 0.  1.
         15    1    1    2    0    0 -0.76512148052E+00  0.10650097553E+03 -0.15998378782E+03  0.19220045082E+03  0.17770000000E+01 0. -1.
</event>
<event>
 6    1  0.6564965E-004  0.5021617E+03  0.7546771E-02  0.9394986E-01
        -11   -1    0    0    0    0  0.00000000000E+00  0.00000000000E+00  0.50000000000E+03  0.50000000000E+03  0.00000000000E+00 0. -1.
         11   -1    0    0    0    0 -0.00000000000E+00 -0.00000000000E+00 -0.50000000000E+03  0.50000000000E+03  0.00000000000E+00 0.  1.
        -11    1    1    2    0    0 -0.20412540908E+02  0.54149296616E+01  0.36480916014E+03  0.36541991819E+03  0.00000000000E+00 0. -1.
         11    1    1    2    0    0 -0.78939573894E+01  0.76459069720E+01 -0.49771697612E+03  0.49783828978E+03  0.00000000000E+00 0.  1.
        -15    1    1    2    0    0  0.14972988211E+02 -0.68948683290E+01  0.84958409656E+02  0.86561069111E+02  0.17770000000E+01 0. -1.
         15    1    1    2    0    0  0.13333510086E+02 -0.61659683045E+01  0.47949406328E+02  0.50180722918E+02  0.17770000000E+01 0.  1.
</event>
<event>
 6    1  0.6564965E-004  0.5057438E+03  0.7546771E-02  0.9387049E-01
        -11   -1    0    0    0    0  0.00000000000E+00  0.00000000000E+00  0.50000000000E+03  0.50000000000E+03  0.00000000000E+00 0.  1.
         11   -1    0    0    0    0 -0.00000000000E+00 -0.00000000000E+00 -0.50000000000E+03  0.50000000000E+03  0.00000000000E+00 0.  1.
        -11    1    1    2    0    0  0.27210558428E+02  0.23360478001E+02  0.49295343025E+03  0.49425621981E+03  0.00000000000E+00 0.  1.
         11    1    1    2    0    0  0.64473427713E+01 -0.36836173483E+01 -0.43568410156E+03  0.43574737362E+03  0.00000000000E+00 0.  1.
        -15    1    1    2    0    0 -0.12428897834E+02 -0.49879655812E+01 -0.26869923700E+02  0.30075036669E+02  0.17770000000E+01 0. -1.
         15    1    1    2    0    0 -0.21229003366E+02 -0.14688895072E+02 -0.30399404990E+02  0.39921369905E+02  0.17770000000E+01 0.  1.
</event>
<event>
 6    1  0.6564965E-004  0.5018035E+03  0.7546771E-02  0.9395783E-01
        -11   -1    0    0    0    0  0.00000000000E+00  0.00000000000E+00  0.50000000000E+03  0.50000000000E+03  0.00000000000E+00 0. -1.
         11   -1    0    0    0    0 -0.00000000000E+00 -0.00000000000E+00 -0.50000000000E+03  0.50000000000E+03  0.00000000000E+00 0.  1.
        -11    1    1    2    0    0  0.13494200374E+02  0.33893414284E+01  0.49800213170E+03  0.49819645147E+03  0.00000000000E+00 0. -1.
         11    1    1    2    0    0  0.71309275356E+01  0.22803593381E+01 -0.43290715725E+03  0.43297188934E+03  0.00000000000E+00 0.  1.
        -15    1    1    2    0    0 -0.20789985608E+01 -0.17303785834E+01 -0.74470581354E+01  0.81199044902E+01  0.17770000000E+01 0. -1.
         15    1    1    2    0    0 -0.18546129349E+02 -0.39393221831E+01 -0.57647916322E+02  0.60711754696E+02  0.17770000000E+01 0.  1.
</event>
<event>
 6    1  0.6564965E-004  0.4731312E+03  0.7546771E-02  0.9462023E-01
        -11   -1    0    0    0    0  0.00000000000E+00  0.00000000000E+00  0.50000000000E+03  0.50000000000E+03  0.00000000000E+00 0. -1.
         11   -1    0    0    0    0 -0.00000000000E+00 -0.00000000000E+00 -0.50000000000E+03  0.50000000000E+03  0.00000000000E+00 0. -1.
        -11    1    1    2    0    0  0.19216028076E+02  0.35084714153E+02  0.48291656796E+03  0.48457053615E+03  0.00000000000E+00 0. -1.
         11    1    1    2    0    0  0.47002419285E+01 -0.66968285490E+01 -0.46256597193E+03  0.46263832329E+03  0.00000000000E+00 0. -1.
        -15    1    1    2    0    0 -0.63094970891E+01 -0.29835926918E+02 -0.16114979320E+02  0.34537553128E+02  0.17770000000E+01 0. -1.
         15    1    1    2    0    0 -0.17606772915E+02  0.14480413137E+01 -0.42356167021E+01  0.18253587428E+02  0.17770000000E+01 0.  1.
</event>
<event>
 6    1  0.6564965E-004  0.5019987E+03  0.7546771E-02  0.9395349E-01
        -11   -1    0    0    0    0  0.00000000000E+00  0.00000000000E+00  0.50000000000E+03  0.50000000000E+03  0.00000000000E+00 0. -1.
         11   -1    0    0    0    0 -0.00000000000E+00 -0.00000000000E+00 -0.50000000000E+03  0.50000000000E+03  0.00000000000E+00 0.  1.
        -11    1    1    2    0    0 -0.62134666536E+02  0.14385031926E+02  0.17113685199E+03  0.18263479416E+03  0.00000000000E+00 0. -1.
         11    1    1    2    0    0  0.10164607493E+03 -0.16490414471E+02 -0.48723856762E+03  0.49800128524E+03  0.00000000000E+00 0.  1.
        -15    1    1    2    0    0 -0.30589421129E+02  0.98876054130E+01  0.26088707410E+03  0.26286631695E+03  0.17770000000E+01 0. -1.
         15    1    1    2    0    0 -0.89219872644E+01 -0.77822228682E+01  0.55214641540E+02  0.56497603656E+02  0.17770000000E+01 0.  1.
</event>
<event>
 6    1  0.6564965E-004  0.4923111E+03  0.7546771E-02  0.9417181E-01
        -11   -1    0    0    0    0  0.00000000000E+00  0.00000000000E+00  0.50000000000E+03  0.50000000000E+03  0.00000000000E+00 0.  1.
         11   -1    0    0    0    0 -0.00000000000E+00 -0.00000000000E+00 -0.50000000000E+03  0.50000000000E+03  0.00000000000E+00 0. -1.
        -11    1    1    2    0    0  0.96218007891E+01  0.39541273249E-01  0.49426538571E+03  0.49435903160E+03  0.00000000000E+00 0.  1.
         11    1    1    2    0    0 -0.26842194502E+01  0.75588649333E+01 -0.49025941765E+03  0.49032503308E+03  0.00000000000E+00 0. -1.
        -15    1    1    2    0    0 -0.17988632393E+01 -0.51760551633E+01  0.26890813826E+01  0.63573849726E+01  0.17770000000E+01 0.  1.
         15    1    1    2    0    0 -0.51387180996E+01 -0.24223510433E+01 -0.66950494462E+01  0.89585503499E+01  0.17770000000E+01 0. -1.
</event>
<event>
 6    1  0.6564965E-004  0.5040595E+03  0.7546771E-02  0.9390772E-01
        -11   -1    0    0    0    0  0.00000000000E+00  0.00000000000E+00  0.50000000000E+03  0.50000000000E+03  0.00000000000E+00 0.  1.
         11   -1    0    0    0    0 -0.00000000000E+00 -0.00000000000E+00 -0.50000000000E+03  0.50000000000E+03  0.00000000000E+00 0.  1.
        -11    1    1    2    0    0 -0.20659225984E+02  0.42749563420E+02  0.19591801090E+03  0.20158917577E+03  0.00000000000E+00 0.  1.
         11    1    1    2    0    0  0.61824373214E+01 -0.80428180443E+01 -0.49583671342E+03  0.49594047609E+03  0.00000000000E+00 0.  1.
        -15    1    1    2    0    0  0.40426481177E+01 -0.29189689713E+01  0.28059286324E+02  0.28554240695E+02  0.17770000000E+01 0.  1.
         15    1    1    2    0    0  0.10434140545E+02 -0.31787776404E+02  0.27185941619E+03  0.27391610744E+03  0.17770000000E+01 0.  1.
</event>
<event>
 6    1  0.6564965E-004  0.5065362E+03  0.7546771E-02  0.9385302E-01
        -11   -1    0    0    0    0  0.00000000000E+00  0.00000000000E+00  0.50000000000E+03  0.50000000000E+03  0.00000000000E+00 0.  1.
         11   -1    0    0    0    0 -0.00000000000E+00 -0.00000000000E+00 -0.50000000000E+03  0.50000000000E+03  0.00000000000E+00 0. -1.
        -11    1    1    2    0    0 -0.21331565055E+02 -0.94771379577E+01  0.49291143796E+03  0.49346381578E+03  0.00000000000E+00 0.  1.
         11    1    1    2    0    0  0.13859206215E+02  0.21115663598E+01 -0.46957332658E+03  0.46978255113E+03  0.00000000000E+00 0. -1.
        -15    1    1    2    0    0 -0.28180295754E+01 -0.67676075852E+01 -0.16041207421E+02  0.17726247986E+02  0.17770000000E+01 0.  1.
         15    1    1    2    0    0  0.10290388416E+02  0.14133179183E+02 -0.72969039591E+01  0.19027385106E+02  0.17770000000E+01 0. -1.
</event>
<event>
 6    1  0.6564965E-004  0.5063976E+03  0.7546771E-02  0.9385607E-01
        -11   -1    0    0    0    0  0.00000000000E+00  0.00000000000E+00  0.50000000000E+03  0.50000000000E+03  0.00000000000E+00 0.  1.
         11   -1    0    0    0    0 -0.00000000000E+00 -0.00000000000E+00 -0.50000000000E+03  0.50000000000E+03  0.00000000000E+00 0. -1.
        -11    1    1    2    0    0 -0.25863728849E+02 -0.14307204517E+02  0.43778497002E+03  0.43878161829E+03  0.00000000000E+00 0.  1.
         11    1    1    2    0    0  0.93296771491E+01 -0.11746264021E+00 -0.49351417879E+03  0.49360237169E+03  0.00000000000E+00 0. -1.
        -15    1    1    2    0    0  0.21264945616E+02  0.17205936344E+02  0.55432696772E+02  0.61839985106E+02  0.17770000000E+01 0.  1.
         15    1    1    2    0    0 -0.47308939162E+01 -0.27812691866E+01  0.29651199529E+00  0.57760249219E+01  0.17770000000E+01 0. -1.
</event>
<event>
 6    1  0.6564965E-004  0.4974384E+03  0.7546771E-02  0.9405560E-01
        -11   -1    0    0    0    0  0.00000000000E+00  0.00000000000E+00  0.50000000000E+03  0.50000000000E+03  0.00000000000E+00 0.  1.
         11   -1    0    0    0    0 -0.00000000000E+00 -0.00000000000E+00 -0.50000000000E+03  0.50000000000E+03  0.00000000000E+00 0. -1.
        -11    1    1    2    0    0 -0.49983514592E+01 -0.99817452027E+00 -0.13322132432E+01  0.52682693370E+01  0.00000000000E+00 0.  1.
         11    1    1    2    0    0  0.42877682338E+01 -0.69361107444E+01 -0.49655502104E+03  0.49662197244E+03  0.00000000000E+00 0. -1.
        -15    1    1    2    0    0  0.41556424076E+01  0.22222776593E+00  0.30029164392E+03  0.30032573630E+03  0.17770000000E+01 0.  1.
         15    1    1    2    0    0 -0.34450591822E+01  0.77120574988E+01  0.19759559037E+03  0.19778402192E+03  0.17770000000E+01 0. -1.
</event>
<event>
 6    1  0.6564965E-004  0.4676084E+03  0.7546771E-02  0.9475356E-01
        -11   -1    0    0    0    0  0.00000000000E+00  0.00000000000E+00  0.50000000000E+03  0.50000000000E+03  0.00000000000E+00 0. -1.
         11   -1    0    0    0    0 -0.00000000000E+00 -0.00000000000E+00 -0.50000000000E+03  0.50000000000E+03  0.00000000000E+00 0. -1.
        -11    1    1    2    0    0  0.17771546394E+02  0.35222344676E+02  0.45870094331E+03  0.46039439269E+03  0.00000000000E+00 0. -1.
         11    1    1    2    0    0  0.14295829236E+02  0.10966558475E+01 -0.47602076338E+03  0.47623664344E+03  0.00000000000E+00 0. -1.
        -15    1    1    2    0    0 -0.26021291439E+02 -0.30991918865E+02  0.28460464624E+02  0.49505175676E+02  0.17770000000E+01 0. -1.
         15    1    1    2    0    0 -0.60460841912E+01 -0.53270816591E+01 -0.11140644554E+02  0.13863788196E+02  0.17770000000E+01 0.  1.
</event>
<event>
 6    1  0.6564965E-004  0.5010808E+03  0.7546771E-02  0.9397395E-01
        -11   -1    0    0    0    0  0.00000000000E+00  0.00000000000E+00  0.50000000000E+03  0.50000000000E+03  0.00000000000E+00 0.  1.
         11   -1    0    0    0    0 -0.00000000000E+00 -0.00000000000E+00 -0.50000000000E+03  0.50000000000E+03  0.00000000000E+00 0. -1.
        -11    1    1    2    0    0 -0.17398378211E+02  0.24192736878E+02  0.49802849647E+03  0.49891920726E+03  0.00000000000E+00 0.  1.
         11    1    1    2    0    0  0.29212058074E+01  0.33849720572E+01 -0.30754972010E+03  0.30758221960E+03  0.00000000000E+00 0. -1.
        -15    1    1    2    0    0  0.16139429859E+02 -0.26684354121E+02 -0.16883956456E+03  0.17170466575E+03  0.17770000000E+01 0.  1.
         15    1    1    2    0    0 -0.16622574553E+01 -0.89335481417E+00 -0.21639211808E+02  0.21793907390E+02  0.17770000000E+01 0. -1.
</event>
<event>
 6    1  0.6564965E-004  0.5008471E+03  0.7546771E-02  0.9397916E-01
        -11   -1    0    0    0    0  0.00000000000E+00  0.00000000000E+00  0.50000000000E+03  0.50000000000E+03  0.00000000000E+00 0. -1.
         11   -1    0    0    0    0 -0.00000000000E+00 -0.00000000000E+00 -0.50000000000E+03  0.50000000000E+03  0.00000000000E+00 0.  1.
        -11    1    1    2    0    0  0.13408378295E+02 -0.19659146341E+02  0.49858536677E+03  0.49915291705E+03  0.00000000000E+00 0. -1.
         11    1    1    2    0    0 -0.80526066818E+00  0.26216614935E+01 -0.18609543622E+03  0.18611564399E+03  0.00000000000E+00 0.  1.
        -15    1    1    2    0    0 -0.27838180393E+01  0.21520575565E+02 -0.12199465201E+03  0.12392230495E+03  0.17770000000E+01 0. -1.
         15    1    1    2    0    0 -0.98192995873E+01 -0.44830907169E+01 -0.19049527854E+03  0.19080913401E+03  0.17770000000E+01 0.  1.
</event>
<event>
 6    1  0.6564965E-004  0.5119600E+03  0.7546771E-02  0.9373439E-01
        -11   -1    0    0    0    0  0.00000000000E+00  0.00000000000E+00  0.50000000000E+03  0.50000000000E+03  0.00000000000E+00 0. -1.
         11   -1    0    0    0    0 -0.00000000000E+00 -0.00000000000E+00 -0.50000000000E+03  0.50000000000E+03  0.00000000000E+00 0. -1.
        -11    1    1    2    0    0 -0.17542174775E+02 -0.11255807255E+02  0.47031558538E+03  0.47077719884E+03  0.00000000000E+00 0. -1.
         11    1    1    2    0    0  0.13089301806E+02  0.26464961004E+02 -0.48714607751E+03  0.48803998281E+03  0.00000000000E+00 0. -1.
        -15    1    1    2    0    0 -0.77020572092E+01 -0.19837040649E+02  0.18102407849E+02  0.27994370253E+02  0.17770000000E+01 0.  1.
         15    1    1    2    0    0  0.12154930178E+02  0.46278868995E+01 -0.12719157199E+01  0.13188448104E+02  0.17770000000E+01 0. -1.
</event>
<event>
 6    1  0.6564965E-004  0.5002785E+03  0.7546771E-02  0.9399187E-01
        -11   -1    0    0    0    0  0.00000000000E+00  0.00000000000E+00  0.50000000000E+03  0.50000000000E+03  0.00000000000E+00 0.  1.
         11   -1    0    0    0    0 -0.00000000000E+00 -0.00000000000E+00 -0.50000000000E+03  0.50000000000E+03  0.00000000000E+00 0. -1.
        -11    1    1    2    0    0  0.12217756936E+01  0.39218445941E+01 -0.29738010826E+02  0.30020374560E+02  0.00000000000E+00 0.  1.
         11    1    1    2    0    0 -0.32240180855E+01  0.16414395975E+02 -0.46940320331E+03  0.46970117518E+03  0.00000000000E+00 0. -1.
        -15    1    1    2    0    0 -0.10273051782E+02 -0.65241184132E+00  0.15254722886E+03  0.15290446689E+03  0.17770000000E+01 0. -1.
         15    1    1    2    0    0  0.12275294174E+02 -0.19683828727E+02  0.34659398528E+03  0.34737398337E+03  0.17770000000E+01 0.  1.
</event>
<event>
 6    1  0.6564965E-004  0.5000420E+03  0.7546771E-02  0.9399716E-01
        -11   -1    0    0    0    0  0.00000000000E+00  0.00000000000E+00  0.50000000000E+03  0.50000000000E+03  0.00000000000E+00 0.  1.
         11   -1    0    0    0    0 -0.00000000000E+00 -0.00000000000E+00 -0.50000000000E+03  0.50000000000E+03  0.00000000000E+00 0.  1.
        -11    1    1    2    0    0  0.81353259212E+01  0.10337009841E+02  0.49978494424E+03  0.49995802603E+03  0.00000000000E+00 0.  1.
         11    1    1    2    0    0 -0.46778802429E+01 -0.15749410824E+01 -0.15518502794E+03  0.15526350473E+03  0.00000000000E+00 0.  1.
        -15    1    1    2    0    0 -0.36918521569E+01 -0.68754396934E+01 -0.20829483181E+03  0.20844854552E+03  0.17770000000E+01 0. -1.
         15    1    1    2    0    0  0.23440647854E+00 -0.18866290655E+01 -0.13630508449E+03  0.13632992372E+03  0.17770000000E+01 0.  1.
</event>
<event>
 6    1  0.6564965E-004  0.5006988E+03  0.7546771E-02  0.9398247E-01
        -11   -1    0    0    0    0  0.00000000000E+00  0.00000000000E+00  0.50000000000E+03  0.50000000000E+03  0.00000000000E+00 0.  1.
         11   -1    0    0    0    0 -0.00000000000E+00 -0.00000000000E+00 -0.50000000000E+03  0.50000000000E+03  0.00000000000E+00 0. -1.
        -11    1    1    2    0    0  0.10837202714E+02 -0.34367318191E+01  0.49917172083E+03  0.49930117461E+03  0.00000000000E+00 0.  1.
         11    1    1    2    0    0  0.60421606265E+01 -0.25409291678E+01 -0.35962060064E+03  0.35968033090E+03  0.00000000000E+00 0. -1.
        -15    1    1    2    0    0 -0.14337108702E+02  0.24625511640E+01 -0.12099753770E+03  0.12188182270E+03  0.17770000000E+01 0. -1.
         15    1    1    2    0    0 -0.25422546393E+01  0.35151098230E+01 -0.18553582483E+02  0.19136671802E+02  0.17770000000E+01 0.  1.
</event>
<event>
 6    1  0.6564965E-004  0.5053009E+03  0.7546771E-02  0.9388026E-01
        -11   -1    0    0    0    0  0.00000000000E+00  0.00000000000E+00  0.50000000000E+03  0.50000000000E+03  0.00000000000E+00 0.  1.
         11   -1    0    0    0    0 -0.00000000000E+00 -0.00000000000E+00 -0.50000000000E+03  0.50000000000E+03  0.00000000000E+00 0. -1.
        -11    1    1    2    0    0  0.63981489402E+00  0.87028397414E+01  0.47817345837E+03  0.47825307639E+03  0.00000000000E+00 0.  1.
         11    1    1    2    0    0 -0.92731829665E+01  0.70764143857E+01 -0.49456155540E+03  0.49469910011E+03  0.00000000000E+00 0. -1.
        -15    1    1    2    0    0 -0.98883220132E+00 -0.62968971852E+01  0.10019241640E+02  0.12007149342E+02  0.17770000000E+01 0. -1.
         15    1    1    2    0    0  0.96222002738E+01 -0.94823569419E+01  0.63688553933E+01  0.15040674164E+02  0.17770000000E+01 0.  1.
</event>
<event>
 6    1  0.6564965E-004  0.5004878E+03  0.7546771E-02  0.9398719E-01
        -11   -1    0    0    0    0  0.00000000000E+00  0.00000000000E+00  0.50000000000E+03  0.50000000000E+03  0.00000000000E+00 0. -1.
         11   -1    0    0    0    0 -0.00000000000E+00 -0.00000000000E+00 -0.50000000000E+03  0.50000000000E+03  0.00000000000E+00 0. -1.
        -11    1    1    2    0    0  0.76415628452E+01 -0.34117159415E+01  0.25913342672E+03  0.25926852129E+03  0.00000000000E+00 0. -1.
         11    1    1    2    0    0 -0.67615955623E+01  0.21743524662E+02 -0.49899290149E+03  0.49951217781E+03  0.00000000000E+00 0. -1.
        -15    1    1    2    0    0  0.24329723827E-01 -0.16890375723E+02  0.23619911943E+03  0.23680892537E+03  0.17770000000E+01 0. -1.
         15    1    1    2    0    0 -0.90429700678E+00 -0.14414329972E+01  0.36603553329E+01  0.44103755311E+01  0.17770000000E+01 0. -1.
</event>
<event>
 6    1  0.6564965E-004  0.5038114E+03  0.7546771E-02  0.9391322E-01
        -11   -1    0    0    0    0  0.00000000000E+00  0.00000000000E+00  0.50000000000E+03  0.50000000000E+03  0.00000000000E+00 0.  1.
         11   -1    0    0    0    0 -0.00000000000E+00 -0.00000000000E+00 -0.50000000000E+03  0.50000000000E+03  0.00000000000E+00 0.  1.
        -11    1    1    2    0    0 -0.10321822803E+02  0.21182795904E+02  0.49562881780E+03  0.49618864951E+03  0.00000000000E+00 0.  1.
         11    1    1    2    0    0  0.66450664842E+01 -0.29866931023E+01 -0.46762184409E+03  0.46767859296E+03  0.00000000000E+00 0.  1.
        -15    1    1    2    0    0 -0.13191300300E+01  0.13345722935E+01 -0.34710969031E+01  0.43275200696E+01  0.17770000000E+01 0.  1.
         15    1    1    2    0    0  0.49958863484E+01 -0.19530675096E+02 -0.24535876805E+02  0.31805237457E+02  0.17770000000E+01 0. -1.
</event>
<event>
 6    1  0.6564965E-004  0.5025572E+03  0.7546771E-02  0.9394106E-01
        -11   -1    0    0    0    0  0.00000000000E+00  0.00000000000E+00  0.50000000000E+03  0.50000000000E+03  0.00000000000E+00 0. -1.
         11   -1    0    0    0    0 -0.00000000000E+00 -0.00000000000E+00 -0.50000000000E+03  0.50000000000E+03  0.00000000000E+00 0.  1.
        -11    1    1    2    0    0  0.69958130114E+01  0.10586495610E+02  0.49728096268E+03  0.49744283202E+03  0.00000000000E+00 0. -1.
         11    1    1    2    0    0  0.78917365777E+01  0.61369687151E+01 -0.41728657582E+03  0.41740631074E+03  0.00000000000E+00 0.  1.
        -15    1    1    2    0    0  0.39758135465E+01 -0.52512380551E+01 -0.14800071076E+02  0.16296699891E+02  0.17770000000E+01 0.  1.
         15    1    1    2    0    0 -0.18863363136E+02 -0.11472226270E+02 -0.65194315781E+02  0.68854157344E+02  0.17770000000E+01 0. -1.
</event>
<event>
 6    1  0.6564965E-004  0.5018986E+03  0.7546771E-02  0.9395572E-01
        -11   -1    0    0    0    0  0.00000000000E+00  0.00000000000E+00  0.50000000000E+03  0.50000000000E+03  0.00000000000E+00 0.  1.
         11   -1    0    0    0    0 -0.00000000000E+00 -0.00000000000E+00 -0.50000000000E+03  0.50000000000E+03  0.00000000000E+00 0.  1.
        -11    1    1    2    0    0 -0.12924078121E+02  0.18739058130E+02  0.42230253317E+03  0.42291561051E+03  0.00000000000E+00 0.  1.
         11    1    1    2    0    0  0.64698059957E+01 -0.30535770527E+01 -0.49805006063E+03  0.49810144109E+03  0.00000000000E+00 0.  1.
        -15    1    1    2    0    0 -0.12802043681E+01 -0.10784855452E+02  0.24017019034E+02  0.26418307338E+02  0.17770000000E+01 0.  1.
         15    1    1    2    0    0  0.77344764930E+01 -0.49006256260E+01  0.51730508431E+02  0.52564641059E+02  0.17770000000E+01 0. -1.
</event>
<event>
 6    1  0.6564965E-004  0.5026344E+03  0.7546771E-02  0.9393934E-01
        -11   -1    0    0    0    0  0.00000000000E+00  0.00000000000E+00  0.50000000000E+03  0.50000000000E+03  0.00000000000E+00 0.  1.
         11   -1    0    0    0    0 -0.00000000000E+00 -0.00000000000E+00 -0.50000000000E+03  0.50000000000E+03  0.00000000000E+00 0.  1.
        -11    1    1    2    0    0  0.24202478422E+02 -0.74712599330E+01  0.49672018055E+03  0.49736557727E+03  0.00000000000E+00 0.  1.
         11    1    1    2    0    0  0.73825953937E+01 -0.14471230289E+01 -0.37153126815E+03  0.37160742739E+03  0.00000000000E+00 0.  1.
        -15    1    1    2    0    0 -0.32971027096E+02  0.11370554730E+02 -0.10758659629E+03  0.11311238470E+03  0.17770000000E+01 0. -1.
         15    1    1    2    0    0  0.13859532796E+01 -0.24521717683E+01 -0.17602316109E+02  0.17914610637E+02  0.17770000000E+01 0.  1.
</event>
<event>
 6    1  0.6564965E-004  0.5006598E+03  0.7546771E-02  0.9398335E-01
        -11   -1    0    0    0    0  0.00000000000E+00  0.00000000000E+00  0.50000000000E+03  0.50000000000E+03  0.00000000000E+00 0. -1.
         11   -1    0    0    0    0 -0.00000000000E+00 -0.00000000000E+00 -0.50000000000E+03  0.50000000000E+03  0.00000000000E+00 0.  1.
        -11    1    1    2    0    0 -0.27148377170E+02  0.14094047196E+02  0.49840240258E+03  0.49934019611E+03  0.00000000000E+00 0. -1.
         11    1    1    2    0    0  0.48136983403E+01 -0.21304589660E+02 -0.22310855065E+03  0.22417511594E+03  0.00000000000E+00 0.  1.
        -15    1    1    2    0    0  0.59196721776E+01 -0.47866832805E+00 -0.11344187697E+03  0.11361112983E+03  0.17770000000E+01 0. -1.
         15    1    1    2    0    0  0.16415006652E+02  0.76892107922E+01 -0.16185197496E+03  0.16287355811E+03  0.17770000000E+01 0.  1.
</event>
<event>
 6    1  0.6564965E-004  0.5005721E+03  0.7546771E-02  0.9398530E-01
        -11   -1    0    0    0    0  0.00000000000E+00  0.00000000000E+00  0.50000000000E+03  0.50000000000E+03  0.00000000000E+00 0.  1.
         11   -1    0    0    0    0 -0.00000000000E+00 -0.00000000000E+00 -0.50000000000E+03  0.50000000000E+03  0.00000000000E+00 0.  1.
        -11    1    1    2    0    0 -0.42843270472E+00 -0.11611267426E+02  0.49929270889E+03  0.49942788692E+03  0.00000000000E+00 0.  1.
         11    1    1    2    0    0 -0.32450212882E+01 -0.46710912986E+01 -0.37083780701E+03  0.37088142090E+03  0.00000000000E+00 0.  1.
        -15    1    1    2    0    0  0.24765184512E+01  0.14652934231E+02 -0.11494198775E+03  0.11591229401E+03  0.17770000000E+01 0. -1.
         15    1    1    2    0    0  0.11969355417E+01  0.16294244934E+01 -0.13512914127E+02  0.13778398168E+02  0.17770000000E+01 0.  1.
</event>
<event>
 6    1  0.6564965E-004  0.4698069E+03  0.7546771E-02  0.9470025E-01
        -11   -1    0    0    0    0  0.00000000000E+00  0.00000000000E+00  0.50000000000E+03  0.50000000000E+03  0.00000000000E+00 0. -1.
         11   -1    0    0    0    0 -0.00000000000E+00 -0.00000000000E+00 -0.50000000000E+03  0.50000000000E+03  0.00000000000E+00 0. -1.
        -11    1    1    2    0    0 -0.38838316597E+02 -0.23344745746E+02  0.47396377045E+03  0.47612503367E+03  0.00000000000E+00 0. -1.
         11    1    1    2    0    0 -0.69849809754E+01  0.76166429621E+00 -0.46486730161E+03  0.46492039985E+03  0.00000000000E+00 0. -1.
        -15    1    1    2    0    0  0.60830783421E+01 -0.33376562880E+00 -0.11335617578E+02  0.12991119909E+02  0.17770000000E+01 0.  1.
         15    1    1    2    0    0  0.39740219231E+02  0.22916847079E+02  0.22391487361E+01  0.45963446570E+02  0.17770000000E+01 0. -1.
</event>
<event>
 6    1  0.6564965E-004  0.4606508E+03  0.7546771E-02  0.9492434E-01
        -11   -1    0    0    0    0  0.00000000000E+00  0.00000000000E+00  0.50000000000E+03  0.50000000000E+03  0.00000000000E+00 0. -1.
         11   -1    0    0    0    0 -0.00000000000E+00 -0.00000000000E+00 -0.50000000000E+03  0.50000000000E+03  0.00000000000E+00 0. -1.
        -11    1    1    2    0    0 -0.34122892759E+02  0.23167152304E+01  0.46072973851E+03  0.46199743606E+03  0.00000000000E+00 0. -1.
         11    1    1    2    0    0 -0.49786595105E+01  0.72715762648E+01 -0.46009932011E+03  0.46018371031E+03  0.00000000000E+00 0. -1.
        -15    1    1    2    0    0  0.31350367457E+02 -0.13105436984E+02 -0.31121678888E+02  0.46111979399E+02  0.17770000000E+01 0.  1.
         15    1    1    2    0    0  0.77511848123E+01  0.35171454889E+01  0.30491260483E+02  0.31706874227E+02  0.17770000000E+01 0. -1.
</event>
<event>
 6    1  0.6564965E-004  0.5026976E+03  0.7546771E-02  0.9393794E-01
        -11   -1    0    0    0    0  0.00000000000E+00  0.00000000000E+00  0.50000000000E+03  0.50000000000E+03  0.00000000000E+00 0.  1.
         11   -1    0    0    0    0 -0.00000000000E+00 -0.00000000000E+00 -0.50000000000E+03  0.50000000000E+03  0.00000000000E+00 0.  1.
        -11    1    1    2    0    0  0.24429608908E+02  0.21438882067E+02  0.49623906187E+03  0.49730236073E+03  0.00000000000E+00 0.  1.
         11    1    1    2    0    0  0.39843486551E+01  0.32307148783E+01 -0.37391852566E+03  0.37395370888E+03  0.00000000000E+00 0.  1.
        -15    1    1    2    0    0 -0.25987141276E+02 -0.25931282152E+02 -0.11496999884E+03  0.12070220076E+03  0.17770000000E+01 0.  1.
         15    1    1    2    0    0 -0.24268162866E+01  0.12616852058E+01 -0.73505373663E+01  0.80417296287E+01  0.17770000000E+01 0.  1.
</event>
<event>
 6    1  0.6564965E-004  0.5005023E+03  0.7546771E-02  0.9398686E-01
        -11   -1    0    0    0    0  0.00000000000E+00  0.00000000000E+00  0.50000000000E+03  0.50000000000E+03  0.00000000000E+00 0. -1.
         11   -1    0    0    0    0 -0.00000000000E+00 -0.00000000000E+00 -0.50000000000E+03  0.50000000000E+03  0.00000000000E+00 0.  1.
        -11    1    1    2    0    0  0.41476349109E+01  0.71557934151E+01  0.49942922376E+03  0.49949770550E+03  0.00000000000E+00 0. -1.
         11    1    1    2    0    0 -0.16725498013E+01 -0.81311993105E+01 -0.47076276242E+03  0.47083595052E+03  0.00000000000E+00 0.  1.
        -15    1    1    2    0    0 -0.33343614490E+01 -0.14154341211E+01 -0.10722031012E+02  0.11456050718E+02  0.17770000000E+01 0.  1.
         15    1    1    2    0    0  0.85927633951E+00  0.23908400165E+01 -0.17944430331E+02  0.18210293263E+02  0.17770000000E+01 0. -1.
</event>
<event>
 6    1  0.6564965E-004  0.5001407E+03  0.7546771E-02  0.9399495E-01
        -11   -1    0    0    0    0  0.00000000000E+00  0.00000000000E+00  0.50000000000E+03  0.50000000000E+03  0.00000000000E+00 0.  1.
         11   -1    0    0    0    0 -0.00000000000E+00 -0.00000000000E+00 -0.50000000000E+03  0.50000000000E+03  0.00000000000E+00 0.  1.
        -11    1    1    2    0    0 -0.15128633047E+01  0.25269660288E+01  0.15181520496E+02  0.15464568447E+02  0.00000000000E+00 0.  1.
         11    1    1    2    0    0  0.86750937046E+01 -0.82435513179E+01 -0.49971605434E+03  0.49985932856E+03  0.00000000000E+00 0.  1.
        -15    1    1    2    0    0 -0.53305997107E+01  0.67568370112E+01  0.40046783162E+03  0.40056424208E+03  0.17770000000E+01 0.  1.
         15    1    1    2    0    0 -0.18316306892E+01 -0.10402517220E+01  0.84066702223E+02  0.84111860913E+02  0.17770000000E+01 0. -1.
</event>
<event>
 6    1  0.6564965E-004  0.5010067E+03  0.7546771E-02  0.9397560E-01
        -11   -1    0    0    0    0  0.00000000000E+00  0.00000000000E+00  0.50000000000E+03  0.50000000000E+03  0.00000000000E+00 0.  1.
         11   -1    0    0    0    0 -0.00000000000E+00 -0.00000000000E+00 -0.50000000000E+03  0.50000000000E+03  0.00000000000E+00 0. -1.
        -11    1    1    2    0    0 -0.10948521026E+02  0.45082671929E+01  0.40279852641E+03  0.40297251452E+03  0.00000000000E+00 0.  1.
         11    1    1    2    0    0 -0.11195691253E+01 -0.66910948351E+01 -0.49894716477E+03  0.49899328394E+03  0.00000000000E+00 0. -1.
        -15    1    1    2    0    0  0.97449890191E+01 -0.41223210371E+01  0.38465697889E+02  0.39934020394E+02  0.17770000000E+01 0. -1.
         15    1    1    2    0    0  0.23231011322E+01  0.63051486794E+01  0.57682940472E+02  0.58100181146E+02  0.17770000000E+01 0.  1.
</event>
<event>
 6    1  0.6564965E-004  0.5016634E+03  0.7546771E-02  0.9396095E-01
        -11   -1    0    0    0    0  0.00000000000E+00  0.00000000000E+00  0.50000000000E+03  0.50000000000E+03  0.00000000000E+00 0.  1.
         11   -1    0    0    0    0 -0.00000000000E+00 -0.00000000000E+00 -0.50000000000E+03  0.50000000000E+03  0.00000000000E+00 0.  1.
        -11    1    1    2    0    0 -0.19276520006E+02 -0.11947098092E+01  0.33956867798E+03  0.34011747768E+03  0.00000000000E+00 0.  1.
         11    1    1    2    0    0 -0.29408848828E+01 -0.10117205237E+02 -0.49822524460E+03  0.49833663422E+03  0.00000000000E+00 0.  1.
        -15    1    1    2    0    0  0.12271180503E+02  0.48164031348E+01  0.12687253443E+03  0.12756793222E+03  0.17770000000E+01 0.  1.
         15    1    1    2    0    0  0.99462243854E+01  0.64955119118E+01  0.31784032188E+02  0.33977955878E+02  0.17770000000E+01 0. -1.
</event>
<event>
 6    1  0.6564965E-004  0.5012693E+03  0.7546771E-02  0.9396974E-01
        -11   -1    0    0    0    0  0.00000000000E+00  0.00000000000E+00  0.50000000000E+03  0.50000000000E+03  0.00000000000E+00 0.  1.
         11   -1    0    0    0    0 -0.00000000000E+00 -0.00000000000E+00 -0.50000000000E+03  0.50000000000E+03  0.00000000000E+00 0.  1.
        -11    1    1    2    0    0 -0.29721306409E+01 -0.97700841606E+01  0.42050377932E+03  0.42062776481E+03  0.00000000000E+00 0.  1.
         11    1    1    2    0    0  0.81587753145E+01  0.84735951032E+01 -0.49859199906E+03  0.49873073793E+03  0.00000000000E+00 0.  1.
        -15    1    1    2    0    0  0.42140520506E+01  0.59714272494E+01  0.50721462501E+02  0.51276121785E+02  0.17770000000E+01 0.  1.
         15    1    1    2    0    0 -0.94006967243E+01 -0.46749381919E+01  0.27366757242E+02  0.29365375478E+02  0.17770000000E+01 0. -1.
</event>
<event>
 6    1  0.6564965E-004  0.5048449E+03  0.7546771E-02  0.9389034E-01
        -11   -1    0    0    0    0  0.00000000000E+00  0.00000000000E+00  0.50000000000E+03  0.50000000000E+03  0.00000000000E+00 0. -1.
         11   -1    0    0    0    0 -0.00000000000E+00 -0.00000000000E+00 -0.50000000000E+03  0.50000000000E+03  0.00000000000E+00 0. -1.
        -11    1    1    2    0    0  0.90492450210E+01  0.48455588097E+01  0.49504873282E+03  0.49515514351E+03  0.00000000000E+00 0. -1.
         11    1    1    2    0    0 -0.21377877859E+01  0.17489243047E+02 -0.46153153642E+03  0.46186773309E+03  0.00000000000E+00 0. -1.
        -15    1    1    2    0    0  0.59999535762E+00 -0.12088107352E+02 -0.86059300231E+01  0.14956673906E+02  0.17770000000E+01 0.  1.
         15    1    1    2    0    0 -0.75114525927E+01 -0.10246694505E+02 -0.24911266380E+02  0.28020449496E+02  0.17770000000E+01 0. -1.
</event>
<event>
 6    1  0.6564965E-004  0.5032768E+03  0.7546771E-02  0.9392507E-01
        -11   -1    0    0    0    0  0.00000000000E+00  0.00000000000E+00  0.50000000000E+03  0.50000000000E+03  0.00000000000E+00 0.  1.
         11   -1    0    0    0    0 -0.00000000000E+00 -0.00000000000E+00 -0.50000000000E+03  0.50000000000E+03  0.00000000000E+00 0. -1.
        -11    1    1    2    0    0 -0.47426552053E+01  0.37775615676E+02  0.18974867701E+03  0.19353048945E+03  0.00000000000E+00 0.  1.
         11    1    1    2    0    0 -0.20209150259E+02 -0.51188890551E+01 -0.49628551795E+03  0.49672319063E+03  0.00000000000E+00 0. -1.
        -15    1    1    2    0    0  0.16190805844E+02 -0.10364295501E+02  0.17224651541E+03  0.17332507209E+03  0.17770000000E+01 0. -1.
         15    1    1    2    0    0  0.87609996207E+01 -0.22292431119E+02  0.13429032553E+03  0.13642124783E+03  0.17770000000E+01 0.  1.
</event>
<event>
 6    1  0.6564965E-004  0.4937770E+03  0.7546771E-02  0.9413843E-01
        -11   -1    0    0    0    0  0.00000000000E+00  0.00000000000E+00  0.50000000000E+03  0.50000000000E+03  0.00000000000E+00 0.  1.
         11   -1    0    0    0    0 -0.00000000000E+00 -0.00000000000E+00 -0.50000000000E+03  0.50000000000E+03  0.00000000000E+00 0. -1.
        -11    1    1    2    0    0 -0.94508858828E+01  0.10187556224E+02  0.49184554861E+03  0.49204181655E+03  0.00000000000E+00 0.  1.
         11    1    1    2    0    0  0.83556143549E+01 -0.30791768029E+01 -0.49546489198E+03  0.49554490897E+03  0.00000000000E+00 0. -1.
        -15    1    1    2    0    0  0.32327226815E+01 -0.38915769398E+01  0.55736485849E+01  0.77342197126E+01  0.17770000000E+01 0. -1.
         15    1    1    2    0    0 -0.21374511536E+01 -0.32168024810E+01 -0.19543052192E+01  0.46790547684E+01  0.17770000000E+01 0.  1.
</event>
<event>
 6    1  0.6564965E-004  0.5025877E+03  0.7546771E-02  0.9394038E-01
        -11   -1    0    0    0    0  0.00000000000E+00  0.00000000000E+00  0.50000000000E+03  0.50000000000E+03  0.00000000000E+00 0. -1.
         11   -1    0    0    0    0 -0.00000000000E+00 -0.00000000000E+00 -0.50000000000E+03  0.50000000000E+03  0.00000000000E+00 0. -1.
        -11    1    1    2    0    0  0.39866153825E+00  0.32584500866E+02  0.16927764255E+03  0.17238569806E+03  0.00000000000E+00 0. -1.
         11    1    1    2    0    0 -0.69587100381E+01  0.23979504384E+01 -0.49735780653E+03  0.49741226515E+03  0.00000000000E+00 0. -1.
        -15    1    1    2    0    0  0.91127318521E+00 -0.22268522072E+02  0.23645059649E+03  0.23750528373E+03  0.17770000000E+01 0.  1.
         15    1    1    2    0    0  0.56487753146E+01 -0.12713929233E+02  0.91629567489E+02  0.92696753052E+02  0.17770000000E+01 0. -1.
</event>
<event>
 6    1  0.6564965E-004  0.5005510E+03  0.7546771E-02  0.9398578E-01
        -11   -1    0    0    0    0  0.00000000000E+00  0.00000000000E+00  0.50000000000E+03  0.50000000000E+03  0.00000000000E+00 0. -1.
         11   -1    0    0    0    0 -0.00000000000E+00 -0.00000000000E+00 -0.50000000000E+03  0.50000000000E+03  0.00000000000E+00 0.  1.
        -11    1    1    2    0    0 -0.73426330764E+01 -0.14866996971E+02  0.49917367412E+03  0.49944899518E+03  0.00000000000E+00 0. -1.
         11    1    1    2    0    0  0.67636835987E+00  0.16607454940E+02 -0.45798912196E+03  0.45829062926E+03  0.00000000000E+00 0.  1.
        -15    1    1    2    0    0  0.30675183708E+01 -0.34749657680E+01 -0.18269223129E+02  0.18931648074E+02  0.17770000000E+01 0. -1.
         15    1    1    2    0    0  0.35987463458E+01  0.17345077994E+01 -0.22915329022E+02  0.23328727478E+02  0.17770000000E+01 0.  1.
</event>
<event>
 6    1  0.6564965E-004  0.5226485E+03  0.7546771E-02  0.9350511E-01
        -11   -1    0    0    0    0  0.00000000000E+00  0.00000000000E+00  0.50000000000E+03  0.50000000000E+03  0.00000000000E+00 0. -1.
         11   -1    0    0    0    0 -0.00000000000E+00 -0.00000000000E+00 -0.50000000000E+03  0.50000000000E+03  0.00000000000E+00 0. -1.
        -11    1    1    2    0    0 -0.10626430960E+02 -0.77213995409E+02  0.36967734245E+03  0.37780452570E+03  0.00000000000E+00 0. -1.
         11    1    1    2    0    0 -0.53716068521E+02  0.14481904057E+02 -0.47409843124E+03  0.47735150997E+03  0.00000000000E+00 0. -1.
        -15    1    1    2    0    0  0.50281940873E+02  0.56088934900E+02  0.10493317561E+03  0.12918347909E+03  0.17770000000E+01 0.  1.
         15    1    1    2    0    0  0.14060558609E+02  0.66431564531E+01 -0.51208681597E+00  0.15660485240E+02  0.17770000000E+01 0. -1.
</event>
<event>
 6    1  0.6564965E-004  0.5019492E+03  0.7546771E-02  0.9395459E-01
        -11   -1    0    0    0    0  0.00000000000E+00  0.00000000000E+00  0.50000000000E+03  0.50000000000E+03  0.00000000000E+00 0.  1.
         11   -1    0    0    0    0 -0.00000000000E+00 -0.00000000000E+00 -0.50000000000E+03  0.50000000000E+03  0.00000000000E+00 0.  1.
        -11    1    1    2    0    0 -0.74962578531E+01 -0.80582058970E+00  0.57623264093E+01  0.94893431949E+01  0.00000000000E+00 0.  1.
         11    1    1    2    0    0 -0.22471392134E+01  0.34920591845E+02 -0.49682002595E+03  0.49805083631E+03  0.00000000000E+00 0.  1.
        -15    1    1    2    0    0  0.63760760886E+00 -0.20915327251E+02  0.27940621416E+03  0.28019430347E+03  0.17770000000E+01 0.  1.
         15    1    1    2    0    0  0.91057894576E+01 -0.13199444005E+02  0.21165148538E+03  0.21226551702E+03  0.17770000000E+01 0. -1.
</event>
<event>
 6    1  0.6564965E-004  0.5085294E+03  0.7546771E-02  0.9380924E-01
        -11   -1    0    0    0    0  0.00000000000E+00  0.00000000000E+00  0.50000000000E+03  0.50000000000E+03  0.00000000000E+00 0.  1.
         11   -1    0    0    0    0 -0.00000000000E+00 -0.00000000000E+00 -0.50000000000E+03  0.50000000000E+03  0.00000000000E+00 0. -1.
        -11    1    1    2    0    0 -0.42577366734E+02  0.77707947188E+01  0.48956116219E+03  0.49147059824E+03  0.00000000000E+00 0.  1.
         11    1    1    2    0    0  0.45791677789E+01 -0.49360375142E+01 -0.45738793235E+03  0.45743748634E+03  0.00000000000E+00 0. -1.
        -15    1    1    2    0    0  0.35332696299E+02  0.28858593942E-01 -0.28236179163E+02  0.45264111648E+02  0.17770000000E+01 0. -1.
         15    1    1    2    0    0  0.26655026559E+01 -0.28636157986E+01 -0.39370506721E+01  0.58278037755E+01  0.17770000000E+01 0.  1.
</event>
<event>
 6    1  0.6564965E-004  0.4931129E+03  0.7546771E-02  0.9415353E-01
        -11   -1    0    0    0    0  0.00000000000E+00  0.00000000000E+00  0.50000000000E+03  0.50000000000E+03  0.00000000000E+00 0.  1.
         11   -1    0    0    0    0 -0.00000000000E+00 -0.00000000000E+00 -0.50000000000E+03  0.50000000000E+03  0.00000000000E+00 0.  1.
        -11    1    1    2    0    0 -0.29122840691E+01  0.75459618569E+01  0.49394544424E+03  0.49401166467E+03  0.00000000000E+00 0.  1.
         11    1    1    2    0    0 -0.87071329808E+01 -0.81980027456E+01 -0.49213923912E+03  0.49228452351E+03  0.00000000000E+00 0.  1.
        -15    1    1    2    0    0  0.17432708788E+01 -0.67092387128E+00  0.15883742595E+01  0.30281667699E+01  0.17770000000E+01 0. -1.
         15    1    1    2    0    0  0.98761461711E+01  0.13229647600E+01 -0.33945793870E+01  0.10675645047E+02  0.17770000000E+01 0.  1.
</event>
<event>
 6    1  0.6564965E-004  0.5226255E+03  0.7546771E-02  0.9350560E-01
        -11   -1    0    0    0    0  0.00000000000E+00  0.00000000000E+00  0.50000000000E+03  0.50000000000E+03  0.00000000000E+00 0.  1.
         11   -1    0    0    0    0 -0.00000000000E+00 -0.00000000000E+00 -0.50000000000E+03  0.50000000000E+03  0.00000000000E+00 0.  1.
        -11    1    1    2    0    0 -0.44963108617E+02  0.42987301367E+02  0.54263783305E+02  0.82547849117E+02  0.00000000000E+00 0.  1.
         11    1    1    2    0    0  0.32184228870E+02 -0.16832825793E+02 -0.47599078662E+03  0.47737448356E+03  0.00000000000E+00 0.  1.
        -15    1    1    2    0    0 -0.39444980268E+02 -0.86660577748E+01  0.50041175918E+02  0.64329495894E+02  0.17770000000E+01 0.  1.
         15    1    1    2    0    0  0.52223860015E+02 -0.17488417799E+02  0.37168582740E+03  0.37574817142E+03  0.17770000000E+01 0. -1.
</event>
<event>
 6    1  0.6564965E-004  0.5000805E+03  0.7546771E-02  0.9399630E-01
        -11   -1    0    0    0    0  0.00000000000E+00  0.00000000000E+00  0.50000000000E+03  0.50000000000E+03  0.00000000000E+00 0.  1.
         11   -1    0    0    0    0 -0.00000000000E+00 -0.00000000000E+00 -0.50000000000E+03  0.50000000000E+03  0.00000000000E+00 0. -1.
        -11    1    1    2    0    0 -0.62148095447E+01  0.15470278127E+02  0.49964138223E+03  0.49991945771E+03  0.00000000000E+00 0.  1.
         11    1    1    2    0    0  0.38345490837E+01 -0.67814957892E+00 -0.13477334405E+03  0.13482958844E+03  0.00000000000E+00 0. -1.
        -15    1    1    2    0    0 -0.12199614903E+01 -0.24124953736E+01 -0.11364827632E+03  0.11369431331E+03  0.17770000000E+01 0. -1.
         15    1    1    2    0    0  0.36002219513E+01 -0.12379633175E+02 -0.25121976187E+03  0.25155664053E+03  0.17770000000E+01 0. -1.
</event>
<event>
 6    1  0.6564965E-004  0.5019627E+03  0.7546771E-02  0.9395429E-01
        -11   -1    0    0    0    0  0.00000000000E+00  0.00000000000E+00  0.50000000000E+03  0.50000000000E+03  0.00000000000E+00 0. -1.
         11   -1    0    0    0    0 -0.00000000000E+00 -0.00000000000E+00 -0.50000000000E+03  0.50000000000E+03  0.00000000000E+00 0. -1.
        -11    1    1    2    0    0 -0.24347925994E+01 -0.10541915451E+02  0.49791978319E+03  0.49803731857E+03  0.00000000000E+00 0. -1.
         11    1    1    2    0    0  0.96331394022E+01  0.27321019537E+01 -0.47222885510E+03  0.47233500119E+03  0.00000000000E+00 0. -1.
        -15    1    1    2    0    0 -0.35983252632E+01 -0.15261658552E+01 -0.10572351416E+02  0.11410936438E+02  0.17770000000E+01 0. -1.
         15    1    1    2    0    0 -0.36000215396E+01  0.93359793521E+01 -0.15118576666E+02  0.18216743808E+02  0.17770000000E+01 0.  1.
</event>
<event>
 6    1  0.6564965E-004  0.5090154E+03  0.7546771E-02  0.9379860E-01
        -11   -1    0    0    0    0  0.00000000000E+00  0.00000000000E+00  0.50000000000E+03  0.50000000000E+03  0.00000000000E+00 0. -1.
         11   -1    0    0    0    0 -0.00000000000E+00 -0.00000000000E+00 -0.50000000000E+03  0.50000000000E+03  0.00000000000E+00 0. -1.
        -11    1    1    2    0    0 -0.42571515668E+02 -0.32581827023E+02  0.31129727909E+03  0.31587957416E+03  0.00000000000E+00 0. -1.
         11    1    1    2    0    0 -0.34129849224E+01  0.15337047935E+02 -0.49073317437E+03  0.49098464531E+03  0.00000000000E+00 0. -1.
        -15    1    1    2    0    0  0.49771915334E+02  0.22641405540E+02  0.17791998583E+03  0.18614122565E+03  0.17770000000E+01 0. -1.
         15    1    1    2    0    0 -0.37874147433E+01 -0.53966264517E+01  0.15159094492E+01  0.69945548790E+01  0.17770000000E+01 0.  1.
</event>
<event>
 6    1  0.6564965E-004  0.4694075E+03  0.7546771E-02  0.9470991E-01
        -11   -1    0    0    0    0  0.00000000000E+00  0.00000000000E+00  0.50000000000E+03  0.50000000000E+03  0.00000000000E+00 0.  1.
         11   -1    0    0    0    0 -0.00000000000E+00 -0.00000000000E+00 -0.50000000000E+03  0.50000000000E+03  0.00000000000E+00 0. -1.
        -11    1    1    2    0    0 -0.18276086015E+02  0.95272426072E+01  0.46488671008E+03  0.46534335375E+03  0.00000000000E+00 0.  1.
         11    1    1    2    0    0 -0.13909895060E+02 -0.58578438191E+01 -0.47383265057E+03  0.47407296934E+03  0.00000000000E+00 0. -1.
        -15    1    1    2    0    0  0.24158210215E+02  0.13556272065E+01  0.29313766519E+02  0.38051432068E+02  0.17770000000E+01 0.  1.
         15    1    1    2    0    0  0.80277708600E+01 -0.50250259946E+01 -0.20367826034E+02  0.22532244841E+02  0.17770000000E+01 0. -1.
</event>
<event>
 6    1  0.6564965E-004  0.5074864E+03  0.7546771E-02  0.9383212E-01
        -11   -1    0    0    0    0  0.00000000000E+00  0.00000000000E+00  0.50000000000E+03  0.50000000000E+03  0.00000000000E+00 0. -1.
         11   -1    0    0    0    0 -0.00000000000E+00 -0.00000000000E+00 -0.50000000000E+03  0.50000000000E+03  0.00000000000E+00 0. -1.
        -11    1    1    2    0    0 -0.17541910641E+02  0.13962425849E+02  0.46726345911E+03  0.46780103482E+03  0.00000000000E+00 0. -1.
         11    1    1    2    0    0  0.67911818301E+01  0.68207917316E+01 -0.49241953046E+03  0.49251359101E+03  0.00000000000E+00 0. -1.
        -15    1    1    2    0    0 -0.21645003982E+01 -0.77613399232E+01  0.18212081522E+02  0.19994026651E+02  0.17770000000E+01 0.  1.
         15    1    1    2    0    0  0.12915229209E+02 -0.13021877657E+02  0.69439898328E+01  0.19691347517E+02  0.17770000000E+01 0. -1.
</event>
<event>
 6    1  0.6564965E-004  0.4896672E+03  0.7546771E-02  0.9423232E-01
        -11   -1    0    0    0    0  0.00000000000E+00  0.00000000000E+00  0.50000000000E+03  0.50000000000E+03  0.00000000000E+00 0.  1.
         11   -1    0    0    0    0 -0.00000000000E+00 -0.00000000000E+00 -0.50000000000E+03  0.50000000000E+03  0.00000000000E+00 0. -1.
        -11    1    1    2    0    0 -0.82070800260E+01  0.88887489480E+01  0.49353760091E+03  0.49368586118E+03  0.00000000000E+00 0.  1.
         11    1    1    2    0    0  0.38715983354E+01  0.53438532959E+01 -0.48574780261E+03  0.48579262426E+03  0.00000000000E+00 0. -1.
        -15    1    1    2    0    0  0.19624557392E+01 -0.11811288735E+02 -0.10342083822E+02  0.15920873120E+02  0.17770000000E+01 0.  1.
         15    1    1    2    0    0  0.23730259514E+01 -0.24213135085E+01  0.25522855266E+01  0.46006414424E+01  0.17770000000E+01 0. -1.
</event>
<event>
 6    1  0.6564965E-004  0.5005475E+03  0.7546771E-02  0.9398585E-01
        -11   -1    0    0    0    0  0.00000000000E+00  0.00000000000E+00  0.50000000000E+03  0.50000000000E+03  0.00000000000E+00 0.  1.
         11   -1    0    0    0    0 -0.00000000000E+00 -0.00000000000E+00 -0.50000000000E+03  0.50000000000E+03  0.00000000000E+00 0.  1.
        -11    1    1    2    0    0 -0.94445295566E+01 -0.49520705166E+01  0.21893481620E+03  0.21919437923E+03  0.00000000000E+00 0.  1.
         11    1    1    2    0    0 -0.49452022812E+01 -0.12505674053E+02 -0.49927138655E+03  0.49945246454E+03  0.00000000000E+00 0.  1.
        -15    1    1    2    0    0  0.42981421903E+01  0.29839463938E+01  0.42749682821E+02  0.43105348539E+02  0.17770000000E+01 0. -1.
         15    1    1    2    0    0  0.10091589648E+02  0.14473798175E+02  0.23758688753E+03  0.23824780769E+03  0.17770000000E+01 0.  1.
</event>
<event>
 6    1  0.6564965E-004  0.4841419E+03  0.7546771E-02  0.9436010E-01
        -11   -1    0    0    0    0  0.00000000000E+00  0.00000000000E+00  0.50000000000E+03  0.50000000000E+03  0.00000000000E+00 0. -1.
         11   -1    0    0    0    0 -0.00000000000E+00 -0.00000000000E+00 -0.50000000000E+03  0.50000000000E+03  0.00000000000E+00 0. -1.
        -11    1    1    2    0    0 -0.11790314389E+02  0.15362304682E+02  0.48270113561E+03  0.48308943089E+03  0.00000000000E+00 0. -1.
         11    1    1    2    0    0  0.89421301718E+01 -0.89692173346E+01 -0.48505715283E+03  0.48522247481E+03  0.00000000000E+00 0. -1.
        -15    1    1    2    0    0 -0.24619631446E+00  0.51503379988E+01 -0.11846433730E+02  0.13041561074E+02  0.17770000000E+01 0.  1.
         15    1    1    2    0    0  0.30943805318E+01 -0.11543425346E+02  0.14202450949E+02  0.18646533232E+02  0.17770000000E+01 0. -1.
</event>
<event>
 6    1  0.6564965E-004  0.5032743E+03  0.7546771E-02  0.9392513E-01
        -11   -1    0    0    0    0  0.00000000000E+00  0.00000000000E+00  0.50000000000E+03  0.50000000000E+03  0.00000000000E+00 0. -1.
         11   -1    0    0    0    0 -0.00000000000E+00 -0.00000000000E+00 -0.50000000000E+03  0.50000000000E+03  0.00000000000E+00 0.  1.
        -11    1    1    2    0    0 -0.30035886585E+02  0.15688482754E+02  0.35968641396E+03  0.36127911559E+03  0.00000000000E+00 0. -1.
         11    1    1    2    0    0  0.73430885268E+01  0.27567135929E+01 -0.49666376962E+03  0.49672569943E+03  0.00000000000E+00 0.  1.
        -15    1    1    2    0    0  0.22323503823E+02 -0.11957463429E+02  0.12935430721E+03  0.13182190364E+03  0.17770000000E+01 0. -1.
         15    1    1    2    0    0  0.36929423513E+00 -0.64877329178E+01  0.76230484528E+01  0.10173281347E+02  0.17770000000E+01 0.  1.
</event>
<event>
 6    1  0.6564965E-004  0.5028685E+03  0.7546771E-02  0.9393414E-01
        -11   -1    0    0    0    0  0.00000000000E+00  0.00000000000E+00  0.50000000000E+03  0.50000000000E+03  0.00000000000E+00 0.  1.
         11   -1    0    0    0    0 -0.00000000000E+00 -0.00000000000E+00 -0.50000000000E+03  0.50000000000E+03  0.00000000000E+00 0. -1.
        -11    1    1    2    0    0 -0.75846910675E+01 -0.78189140944E+01  0.49701214054E+03  0.49713150252E+03  0.00000000000E+00 0.  1.
         11    1    1    2    0    0 -0.43308476867E+01 -0.50038009846E+01 -0.45936909944E+03  0.45941676481E+03  0.00000000000E+00 0. -1.
        -15    1    1    2    0    0  0.71754400277E+01  0.60617344672E+00 -0.20503349654E+02  0.21803657076E+02  0.17770000000E+01 0. -1.
         15    1    1    2    0    0  0.47400987266E+01  0.12216541632E+02 -0.17139691440E+02  0.21648075597E+02  0.17770000000E+01 0.  1.
</event>
<event>
 6    1  0.6564965E-004  0.5002484E+03  0.7546771E-02  0.9399254E-01
        -11   -1    0    0    0    0  0.00000000000E+00  0.00000000000E+00  0.50000000000E+03  0.50000000000E+03  0.00000000000E+00 0. -1.
         11   -1    0    0    0    0 -0.00000000000E+00 -0.00000000000E+00 -0.50000000000E+03  0.50000000000E+03  0.00000000000E+00 0.  1.
        -11    1    1    2    0    0 -0.37224255610E+01 -0.10882000485E+02  0.49961921805E+03  0.49975157571E+03  0.00000000000E+00 0. -1.
         11    1    1    2    0    0  0.88147866245E+01 -0.30327754865E+01 -0.18406733855E+03  0.18430323739E+03  0.00000000000E+00 0.  1.
        -15    1    1    2    0    0 -0.36145281963E+01  0.78229958888E+01 -0.14309327520E+03  0.14336354911E+03  0.17770000000E+01 0. -1.
         15    1    1    2    0    0 -0.14778328671E+01  0.60917800825E+01 -0.17245860430E+03  0.17258163778E+03  0.17770000000E+01 0.  1.
</event>
<event>
 6    1  0.6564965E-004  0.5039758E+03  0.7546771E-02  0.9390957E-01
        -11   -1    0    0    0    0  0.00000000000E+00  0.00000000000E+00  0.50000000000E+03  0.50000000000E+03  0.00000000000E+00 0. -1.
         11   -1    0    0    0    0 -0.00000000000E+00 -0.00000000000E+00 -0.50000000000E+03  0.50000000000E+03  0.00000000000E+00 0. -1.
        -11    1    1    2    0    0  0.78315392565E+01  0.12499284022E+01  0.49596079727E+03  0.49602420078E+03  0.00000000000E+00 0. -1.
         11    1    1    2    0    0 -0.25737142460E+01  0.13661575754E+02 -0.47188200340E+03  0.47208673757E+03  0.00000000000E+00 0. -1.
        -15    1    1    2    0    0  0.87174158781E+00 -0.90869966961E+01 -0.41817378599E+01  0.10196965376E+02  0.17770000000E+01 0.  1.
         15    1    1    2    0    0 -0.61295665983E+01 -0.58245074604E+01 -0.19897056012E+02  0.21692096274E+02  0.17770000000E+01 0. -1.
</event>
<event>
 6    1  0.6564965E-004  0.5034796E+03  0.7546771E-02  0.9392057E-01
        -11   -1    0    0    0    0  0.00000000000E+00  0.00000000000E+00  0.50000000000E+03  0.50000000000E+03  0.00000000000E+00 0. -1.
         11   -1    0    0    0    0 -0.00000000000E+00 -0.00000000000E+00 -0.50000000000E+03  0.50000000000E+03  0.00000000000E+00 0. -1.
        -11    1    1    2    0    0 -0.71101775075E+01  0.75778243898E+01  0.49641164317E+03  0.49652038984E+03  0.00000000000E+00 0. -1.
         11    1    1    2    0    0  0.43232000634E+01  0.86414701770E+01 -0.47734413324E+03  0.47744191961E+03  0.00000000000E+00 0. -1.
        -15    1    1    2    0    0  0.30633738245E+01 -0.14997033973E+02 -0.17704913951E+02  0.23471621039E+02  0.17770000000E+01 0.  1.
         15    1    1    2    0    0 -0.27639638038E+00 -0.12222605936E+01 -0.13625959832E+01  0.25660695102E+01  0.17770000000E+01 0.  1.
</event>
<event>
 6    1  0.6564965E-004  0.5106812E+03  0.7546771E-02  0.9376222E-01
        -11   -1    0    0    0    0  0.00000000000E+00  0.00000000000E+00  0.50000000000E+03  0.50000000000E+03  0.00000000000E+00 0. -1.
         11   -1    0    0    0    0 -0.00000000000E+00 -0.00000000000E+00 -0.50000000000E+03  0.50000000000E+03  0.00000000000E+00 0.  1.
        -11    1    1    2    0    0 -0.36495769345E+02 -0.80175710605E+01  0.45503297578E+03  0.45656459748E+03  0.00000000000E+00 0. -1.
         11    1    1    2    0    0  0.63267518640E+01 -0.29828050736E+01 -0.48926884725E+03  0.48931884269E+03  0.00000000000E+00 0.  1.
        -15    1    1    2    0    0  0.25530929578E+02  0.18410034746E+02  0.20059231696E+02  0.37366940599E+02  0.17770000000E+01 0. -1.
         15    1    1    2    0    0  0.46380879028E+01 -0.74096586120E+01  0.14176639775E+02  0.16749619233E+02  0.17770000000E+01 0.  1.
</event>
<event>
 6    1  0.6564965E-004  0.5004773E+03  0.7546771E-02  0.9398742E-01
        -11   -1    0    0    0    0  0.00000000000E+00  0.00000000000E+00  0.50000000000E+03  0.50000000000E+03  0.00000000000E+00 0.  1.
         11   -1    0    0    0    0 -0.00000000000E+00 -0.00000000000E+00 -0.50000000000E+03  0.50000000000E+03  0.00000000000E+00 0. -1.
        -11    1    1    2    0    0 -0.96457536372E+01 -0.32731972707E+02  0.49835578509E+03  0.49952268330E+03  0.00000000000E+00 0.  1.
         11    1    1    2    0    0 -0.23267623840E+01 -0.10350450926E+01 -0.15520054005E+03  0.15522143143E+03  0.00000000000E+00 0. -1.
        -15    1    1    2    0    0  0.83546456296E+00  0.90310483557E+01 -0.13770803953E+03  0.13801782390E+03  0.17770000000E+01 0. -1.
         15    1    1    2    0    0  0.11137051458E+02  0.24735969444E+02 -0.20544720551E+03  0.20723806137E+03  0.17770000000E+01 0. -1.
</event>
<event>
 6    1  0.6564965E-004  0.5017815E+03  0.7546771E-02  0.9395832E-01
        -11   -1    0    0    0    0  0.00000000000E+00  0.00000000000E+00  0.50000000000E+03  0.50000000000E+03  0.00000000000E+00 0. -1.
         11   -1    0    0    0    0 -0.00000000000E+00 -0.00000000000E+00 -0.50000000000E+03  0.50000000000E+03  0.00000000000E+00 0. -1.
        -11    1    1    2    0    0  0.13423016177E+01  0.16613873917E+02  0.49793962055E+03  0.49821851460E+03  0.00000000000E+00 0. -1.
         11    1    1    2    0    0 -0.65399653804E+01 -0.27238861454E+01 -0.46523377493E+03  0.46528771318E+03  0.00000000000E+00 0. -1.
        -15    1    1    2    0    0  0.53054805070E+01 -0.64428516463E+01 -0.17252379424E+02  0.19247357885E+02  0.17770000000E+01 0. -1.
         15    1    1    2    0    0 -0.10781674430E+00 -0.74471361257E+01 -0.15453466195E+02  0.17246414334E+02  0.17770000000E+01 0.  1.
</event>
<event>
 6    1  0.6564965E-004  0.5017590E+03  0.7546771E-02  0.9395882E-01
        -11   -1    0    0    0    0  0.00000000000E+00  0.00000000000E+00  0.50000000000E+03  0.50000000000E+03  0.00000000000E+00 0. -1.
         11   -1    0    0    0    0 -0.00000000000E+00 -0.00000000000E+00 -0.50000000000E+03  0.50000000000E+03  0.00000000000E+00 0.  1.
        -11    1    1    2    0    0  0.20136834190E+01 -0.86901511593E+01  0.49816115723E+03  0.49824101820E+03  0.00000000000E+00 0. -1.
         11    1    1    2    0    0 -0.74175332482E+01 -0.21282583398E+00 -0.46616673909E+03  0.46622579693E+03  0.00000000000E+00 0.  1.
        -15    1    1    2    0    0  0.70260018449E+01  0.44152930110E+01 -0.27367362324E+02  0.28652918942E+02  0.17770000000E+01 0. -1.
         15    1    1    2    0    0 -0.16221520156E+01  0.44876839823E+01 -0.46270558141E+01  0.68802659246E+01  0.17770000000E+01 0.  1.
</event>
<event>
 6    1  0.6564965E-004  0.4612554E+03  0.7546771E-02  0.9490938E-01
        -11   -1    0    0    0    0  0.00000000000E+00  0.00000000000E+00  0.50000000000E+03  0.50000000000E+03  0.00000000000E+00 0.  1.
         11   -1    0    0    0    0 -0.00000000000E+00 -0.00000000000E+00 -0.50000000000E+03  0.50000000000E+03  0.00000000000E+00 0.  1.
        -11    1    1    2    0    0  0.13863430917E+02 -0.31066417157E+02  0.45385145377E+03  0.45512466324E+03  0.00000000000E+00 0.  1.
         11    1    1    2    0    0  0.26214666170E+01 -0.28800069575E+02 -0.46870150984E+03  0.46959282514E+03  0.00000000000E+00 0.  1.
        -15    1    1    2    0    0  0.53105290538E+01  0.48291719836E+02  0.13721506369E+02  0.50514645298E+02  0.17770000000E+01 0. -1.
         15    1    1    2    0    0 -0.21795426588E+02  0.11574766897E+02  0.11285496992E+01  0.24767866325E+02  0.17770000000E+01 0.  1.
</event>
<event>
 6    1  0.6564965E-004  0.5017631E+03  0.7546771E-02  0.9395873E-01
        -11   -1    0    0    0    0  0.00000000000E+00  0.00000000000E+00  0.50000000000E+03  0.50000000000E+03  0.00000000000E+00 0.  1.
         11   -1    0    0    0    0 -0.00000000000E+00 -0.00000000000E+00 -0.50000000000E+03  0.50000000000E+03  0.00000000000E+00 0. -1.
        -11    1    1    2    0    0  0.12420503809E+02 -0.13936804589E+02  0.40215364880E+03  0.40258671201E+03  0.00000000000E+00 0.  1.
         11    1    1    2    0    0 -0.10124617370E+02 -0.10467777774E+02 -0.49802404879E+03  0.49823692699E+03  0.00000000000E+00 0. -1.
        -15    1    1    2    0    0  0.14580859282E+01  0.10206622763E+02  0.34717124614E+02  0.36259310987E+02  0.17770000000E+01 0.  1.
         15    1    1    2    0    0 -0.37539723666E+01  0.14197959600E+02  0.61153275368E+02  0.62917050015E+02  0.17770000000E+01 0. -1.
</event>
<event>
 6    1  0.6564965E-004  0.4888355E+03  0.7546771E-02  0.9425144E-01
        -11   -1    0    0    0    0  0.00000000000E+00  0.00000000000E+00  0.50000000000E+03  0.50000000000E+03  0.00000000000E+00 0.  1.
         11   -1    0    0    0    0 -0.00000000000E+00 -0.00000000000E+00 -0.50000000000E+03  0.50000000000E+03  0.00000000000E+00 0.  1.
        -11    1    1    2    0    0  0.13194126848E+02  0.77067768972E+01  0.48453766261E+03  0.48477853282E+03  0.00000000000E+00 0.  1.
         11    1    1    2    0    0 -0.48331821698E+01  0.92186936316E+01 -0.49300150853E+03  0.49311137827E+03  0.00000000000E+00 0.  1.
        -15    1    1    2    0    0 -0.21347872588E+01 -0.10802356233E+02  0.67441018862E+01  0.13034141939E+02  0.17770000000E+01 0.  1.
         15    1    1    2    0    0 -0.62261574198E+01 -0.61231142959E+01  0.17197440374E+01  0.90759469726E+01  0.17770000000E+01 0. -1.
</event>
<event>
 6    1  0.6564965E-004  0.4746783E+03  0.7546771E-02  0.9458322E-01
        -11   -1    0    0    0    0  0.00000000000E+00  0.00000000000E+00  0.50000000000E+03  0.50000000000E+03  0.00000000000E+00 0. -1.
         11   -1    0    0    0    0 -0.00000000000E+00 -0.00000000000E+00 -0.50000000000E+03  0.50000000000E+03  0.00000000000E+00 0.  1.
        -11    1    1    2    0    0  0.27630957205E+02  0.11891586611E+02  0.47530589920E+03  0.47625683978E+03  0.00000000000E+00 0. -1.
         11    1    1    2    0    0  0.11903388276E+02  0.13862027481E+01 -0.47386496400E+03  0.47401647262E+03  0.00000000000E+00 0.  1.
        -15    1    1    2    0    0 -0.27031065836E+02  0.59083724330E+00 -0.10293904216E+02  0.28985337705E+02  0.17770000000E+01 0.  1.
         15    1    1    2    0    0 -0.12503279644E+02 -0.13868626603E+02  0.88529690171E+01  0.20741349887E+02  0.17770000000E+01 0. -1.
</event>
<event>
 6    1  0.6564965E-004  0.5009468E+03  0.7546771E-02  0.9397694E-01
        -11   -1    0    0    0    0  0.00000000000E+00  0.00000000000E+00  0.50000000000E+03  0.50000000000E+03  0.00000000000E+00 0.  1.
         11   -1    0    0    0    0 -0.00000000000E+00 -0.00000000000E+00 -0.50000000000E+03  0.50000000000E+03  0.00000000000E+00 0.  1.
        -11    1    1    2    0    0 -0.36506306567E+01  0.14217594858E+02  0.47225032930E+03  0.47247840229E+03  0.00000000000E+00 0.  1.
         11    1    1    2    0    0  0.90758697457E+00 -0.15228756009E+02 -0.49881995216E+03  0.49905318694E+03  0.00000000000E+00 0.  1.
        -15    1    1    2    0    0  0.15114612050E+01 -0.39365338789E+01  0.15343298660E+02  0.16011101046E+02  0.17770000000E+01 0. -1.
         15    1    1    2    0    0  0.12315824772E+01  0.49476950302E+01  0.11226324201E+02  0.12457309724E+02  0.17770000000E+01 0.  1.
</event>
<event>
 6    1  0.6564965E-004  0.5017492E+03  0.7546771E-02  0.9395904E-01
        -11   -1    0    0    0    0  0.00000000000E+00  0.00000000000E+00  0.50000000000E+03  0.50000000000E+03  0.00000000000E+00 0.  1.
         11   -1    0    0    0    0 -0.00000000000E+00 -0.00000000000E+00 -0.50000000000E+03  0.50000000000E+03  0.00000000000E+00 0. -1.
        -11    1    1    2    0    0  0.64396389888E+01 -0.16749344429E+02  0.49792755822E+03  0.49825080303E+03  0.00000000000E+00 0.  1.
         11    1    1    2    0    0 -0.63944241925E+01 -0.20205096813E+01 -0.42006412590E+03  0.42011765137E+03  0.00000000000E+00 0. -1.
        -15    1    1    2    0    0 -0.30192034933E+00  0.11093326055E+02 -0.68387807790E+02  0.69305144270E+02  0.17770000000E+01 0. -1.
         15    1    1    2    0    0  0.25670555311E+00  0.76765280552E+01 -0.94756245227E+01  0.12326401333E+02  0.17770000000E+01 0.  1.
</event>
<event>
 6    1  0.6564965E-004  0.4894521E+03  0.7546771E-02  0.9423726E-01
        -11   -1    0    0    0    0  0.00000000000E+00  0.00000000000E+00  0.50000000000E+03  0.50000000000E+03  0.00000000000E+00 0.  1.
         11   -1    0    0    0    0 -0.00000000000E+00 -0.00000000000E+00 -0.50000000000E+03  0.50000000000E+03  0.00000000000E+00 0.  1.
        -11    1    1    2    0    0 -0.13378822678E+02  0.47307434695E+01  0.48639780588E+03  0.48660476610E+03  0.00000000000E+00 0.  1.
         11    1    1    2    0    0  0.63281199640E+01  0.53668005994E+01 -0.49232501124E+03  0.49239492721E+03  0.00000000000E+00 0.  1.
        -15    1    1    2    0    0  0.29550743402E+01 -0.30467741845E+01 -0.52951377378E+01  0.70150915853E+01  0.17770000000E+01 0. -1.
         15    1    1    2    0    0  0.40956283739E+01 -0.70507698844E+01  0.11222343097E+02  0.13985215098E+02  0.17770000000E+01 0.  1.
</event>
<event>
 6    1  0.6564965E-004  0.5014639E+03  0.7546771E-02  0.9396540E-01
        -11   -1    0    0    0    0  0.00000000000E+00  0.00000000000E+00  0.50000000000E+03  0.50000000000E+03  0.00000000000E+00 0.  1.
         11   -1    0    0    0    0 -0.00000000000E+00 -0.00000000000E+00 -0.50000000000E+03  0.50000000000E+03  0.00000000000E+00 0.  1.
        -11    1    1    2    0    0 -0.10851283449E+01 -0.16089501368E+02  0.49827521623E+03  0.49853609765E+03  0.00000000000E+00 0.  1.
         11    1    1    2    0    0 -0.37143712408E+01 -0.45974155619E+01 -0.40986417238E+03  0.40990678524E+03  0.00000000000E+00 0.  1.
        -15    1    1    2    0    0  0.32373342983E+01  0.87643977017E+00 -0.12118757915E+02  0.12699232356E+02  0.17770000000E+01 0. -1.
         15    1    1    2    0    0  0.15621652873E+01  0.19810477160E+02 -0.76292285928E+02  0.78857884748E+02  0.17770000000E+01 0.  1.
</event>
<event>
 6    1  0.6564965E-004  0.5002121E+03  0.7546771E-02  0.9399335E-01
        -11   -1    0    0    0    0  0.00000000000E+00  0.00000000000E+00  0.50000000000E+03  0.50000000000E+03  0.00000000000E+00 0.  1.
         11   -1    0    0    0    0 -0.00000000000E+00 -0.00000000000E+00 -0.50000000000E+03  0.50000000000E+03  0.00000000000E+00 0.  1.
        -11    1    1    2    0    0 -0.10102312132E+02  0.38261482469E+01  0.23288651621E+03  0.23313692447E+03  0.00000000000E+00 0.  1.
         11    1    1    2    0    0  0.52867074175E+01 -0.11412642605E+02 -0.49962960219E+03  0.49978789208E+03  0.00000000000E+00 0.  1.
        -15    1    1    2    0    0  0.38792693241E+00  0.52874671568E+01  0.21264126512E+03  0.21271476949E+03  0.17770000000E+01 0.  1.
         15    1    1    2    0    0  0.44276777821E+01  0.22990272018E+01  0.54101820860E+02  0.54360413961E+02  0.17770000000E+01 0. -1.
</event>
<event>
 6    1  0.6564965E-004  0.5000825E+03  0.7546771E-02  0.9399625E-01
        -11   -1    0    0    0    0  0.00000000000E+00  0.00000000000E+00  0.50000000000E+03  0.50000000000E+03  0.00000000000E+00 0. -1.
         11   -1    0    0    0    0 -0.00000000000E+00 -0.00000000000E+00 -0.50000000000E+03  0.50000000000E+03  0.00000000000E+00 0.  1.
        -11    1    1    2    0    0 -0.55140574959E+01 -0.12576199219E+02  0.49972884657E+03  0.49991747890E+03  0.00000000000E+00 0. -1.
         11    1    1    2    0    0 -0.18508682137E+01 -0.97612335855E-01 -0.66918822047E+02  0.66944484354E+02  0.00000000000E+00 0.  1.
        -15    1    1    2    0    0  0.64289330621E+01  0.53752282928E+01 -0.16625420845E+03  0.16647475429E+03  0.17770000000E+01 0.  1.
         15    1    1    2    0    0  0.93599264746E+00  0.72985832624E+01 -0.26655581607E+03  0.26666328245E+03  0.17770000000E+01 0. -1.
</event>
<event>
 6    1  0.6564965E-004  0.5096520E+03  0.7546771E-02  0.9378468E-01
        -11   -1    0    0    0    0  0.00000000000E+00  0.00000000000E+00  0.50000000000E+03  0.50000000000E+03  0.00000000000E+00 0.  1.
         11   -1    0    0    0    0 -0.00000000000E+00 -0.00000000000E+00 -0.50000000000E+03  0.50000000000E+03  0.00000000000E+00 0.  1.
        -11    1    1    2    0    0  0.50606657084E+02 -0.85020958652E+01  0.21306166445E+03  0.21915426584E+03  0.00000000000E+00 0.  1.
         11    1    1    2    0    0  0.29177546142E+02 -0.14192639292E+02 -0.48927335084E+03  0.49034801116E+03  0.00000000000E+00 0.  1.
        -15    1    1    2    0    0 -0.19625949179E+02  0.11076422050E+02  0.35358456236E+02  0.41967167679E+02  0.17770000000E+01 0. -1.
         15    1    1    2    0    0 -0.60158254047E+02  0.11618313107E+02  0.24085323015E+03  0.24853055533E+03  0.17770000000E+01 0.  1.
</event>
<event>
 6    1  0.6564965E-004  0.5001997E+03  0.7546771E-02  0.9399363E-01
        -11   -1    0    0    0    0  0.00000000000E+00  0.00000000000E+00  0.50000000000E+03  0.50000000000E+03  0.00000000000E+00 0. -1.
         11   -1    0    0    0    0 -0.00000000000E+00 -0.00000000000E+00 -0.50000000000E+03  0.50000000000E+03  0.00000000000E+00 0.  1.
        -11    1    1    2    0    0  0.72169634352E+01  0.59668927585E+01  0.49971253123E+03  0.49980026235E+03  0.00000000000E+00 0. -1.
         11    1    1    2    0    0 -0.51606024253E+01 -0.34901586505E+01 -0.45232039150E+03  0.45236329382E+03  0.00000000000E+00 0.  1.
        -15    1    1    2    0    0 -0.20821146561E+01 -0.67288169946E+00 -0.38140271852E+02  0.38244294178E+02  0.17770000000E+01 0.  1.
         15    1    1    2    0    0  0.25753646184E-01 -0.18038524085E+01 -0.92518678810E+01  0.95921496573E+01  0.17770000000E+01 0. -1.
</event>
<event>
 6    1  0.6564965E-004  0.5004603E+03  0.7546771E-02  0.9398780E-01
        -11   -1    0    0    0    0  0.00000000000E+00  0.00000000000E+00  0.50000000000E+03  0.50000000000E+03  0.00000000000E+00 0.  1.
         11   -1    0    0    0    0 -0.00000000000E+00 -0.00000000000E+00 -0.50000000000E+03  0.50000000000E+03  0.00000000000E+00 0.  1.
        -11    1    1    2    0    0  0.48103972378E+01  0.45357846655E+01  0.30059333965E+03  0.30066604249E+03  0.00000000000E+00 0.  1.
         11    1    1    2    0    0  0.87825104206E+00  0.92700984432E+01 -0.49945286996E+03  0.49953966345E+03  0.00000000000E+00 0.  1.
        -15    1    1    2    0    0  0.10953585168E+01  0.10604533013E+01  0.44614128413E+02  0.44675525229E+02  0.17770000000E+01 0. -1.
         15    1    1    2    0    0 -0.67840067966E+01 -0.14866336410E+02  0.15424540190E+03  0.15511876883E+03  0.17770000000E+01 0.  1.
</event>
<event>
 6    1  0.6564965E-004  0.5018983E+03  0.7546771E-02  0.9395572E-01
        -11   -1    0    0    0    0  0.00000000000E+00  0.00000000000E+00  0.50000000000E+03  0.50000000000E+03  0.00000000000E+00 0.  1.
         11   -1    0    0    0    0 -0.00000000000E+00 -0.00000000000E+00 -0.50000000000E+03  0.50000000000E+03  0.00000000000E+00 0.  1.
        -11    1    1    2    0    0  0.15953911106E+02  0.13260650060E+02  0.38919525950E+03  0.38974776733E+03  0.00000000000E+00 0.  1.
         11    1    1    2    0    0 -0.74076227830E+01  0.46281866664E+01 -0.49802507178E+03  0.49810166142E+03  0.00000000000E+00 0.  1.
        -15    1    1    2    0    0 -0.12286468252E+02 -0.10095214916E+02  0.89259700831E+02  0.90682537391E+02  0.17770000000E+01 0.  1.
         15    1    1    2    0    0  0.37401799292E+01 -0.77936218099E+01  0.19570111448E+02  0.21468033862E+02  0.17770000000E+01 0. -1.
</event>
<event>
 6    1  0.6564965E-004  0.5039047E+03  0.7546771E-02  0.9391115E-01
        -11   -1    0    0    0    0  0.00000000000E+00  0.00000000000E+00  0.50000000000E+03  0.50000000000E+03  0.00000000000E+00 0.  1.
         11   -1    0    0    0    0 -0.00000000000E+00 -0.00000000000E+00 -0.50000000000E+03  0.50000000000E+03  0.00000000000E+00 0.  1.
        -11    1    1    2    0    0 -0.42907820130E+01 -0.12043754050E+02  0.45725635361E+03  0.45743506177E+03  0.00000000000E+00 0.  1.
         11    1    1    2    0    0  0.99461573344E+01  0.42820581360E+01 -0.49597712992E+03  0.49609532902E+03  0.00000000000E+00 0.  1.
        -15    1    1    2    0    0  0.58127941896E+01  0.75005470353E+01  0.31148097336E+02  0.32609944477E+02  0.17770000000E+01 0. -1.
         15    1    1    2    0    0 -0.11468169511E+02  0.26114887856E+00  0.75726789801E+01  0.13859664736E+02  0.17770000000E+01 0.  1.
</event>
<event>
 6    1  0.6564965E-004  0.5014665E+03  0.7546771E-02  0.9396534E-01
        -11   -1    0    0    0    0  0.00000000000E+00  0.00000000000E+00  0.50000000000E+03  0.50000000000E+03  0.00000000000E+00 0.  1.
         11   -1    0    0    0    0 -0.00000000000E+00 -0.00000000000E+00 -0.50000000000E+03  0.50000000000E+03  0.00000000000E+00 0. -1.
        -11    1    1    2    0    0 -0.87571421466E+01 -0.54493830866E+01  0.33750088605E+03  0.33765845376E+03  0.00000000000E+00 0.  1.
         11    1    1    2    0    0 -0.34651811158E+01 -0.75614908159E+01 -0.49846411164E+03  0.49853350361E+03  0.00000000000E+00 0. -1.
        -15    1    1    2    0    0  0.13312511630E+02  0.10640579366E+02  0.15933966345E+03  0.16025832575E+03  0.17770000000E+01 0.  1.
         15    1    1    2    0    0 -0.10901883679E+01  0.23702945363E+01  0.16235621481E+01  0.35497168782E+01  0.17770000000E+01 0. -1.
</event>
<event>
 6    1  0.6564965E-004  0.5000844E+03  0.7546771E-02  0.9399621E-01
        -11   -1    0    0    0    0  0.00000000000E+00  0.00000000000E+00  0.50000000000E+03  0.50000000000E+03  0.00000000000E+00 0. -1.
         11   -1    0    0    0    0 -0.00000000000E+00 -0.00000000000E+00 -0.50000000000E+03  0.50000000000E+03  0.00000000000E+00 0. -1.
        -11    1    1    2    0    0  0.71625534682E+01 -0.11768044849E+02  0.49972577494E+03  0.49991563208E+03  0.00000000000E+00 0. -1.
         11    1    1    2    0    0 -0.27944728807E+01  0.21619022506E+01 -0.22260592479E+03  0.22263396114E+03  0.00000000000E+00 0. -1.
        -15    1    1    2    0    0 -0.38031581242E+01  0.58641271874E+00 -0.73131278041E+02  0.73254006365E+02  0.17770000000E+01 0.  1.
         15    1    1    2    0    0 -0.56492246337E+00  0.90197298796E+01 -0.20398857211E+03  0.20419640042E+03  0.17770000000E+01 0. -1.
</event>
<event>
 6    1  0.6564965E-004  0.5023893E+03  0.7546771E-02  0.9394479E-01
        -11   -1    0    0    0    0  0.00000000000E+00  0.00000000000E+00  0.50000000000E+03  0.50000000000E+03  0.00000000000E+00 0.  1.
         11   -1    0    0    0    0 -0.00000000000E+00 -0.00000000000E+00 -0.50000000000E+03  0.50000000000E+03  0.00000000000E+00 0.  1.
        -11    1    1    2    0    0 -0.42903348090E+02 -0.85293860248E+01  0.49568438407E+03  0.49761074778E+03  0.00000000000E+00 0.  1.
         11    1    1    2    0    0  0.25334442202E+01 -0.78428934917E+01 -0.20046246669E+03  0.20063182666E+03  0.00000000000E+00 0.  1.
        -15    1    1    2    0    0  0.47064141277E+02  0.68281599477E+01 -0.18968959848E+03  0.19556829667E+03  0.17770000000E+01 0.  1.
         15    1    1    2    0    0 -0.66942374069E+01  0.95441195687E+01 -0.10553231890E+03  0.10618912889E+03  0.17770000000E+01 0. -1.
</event>
<event>
 6    1  0.6564965E-004  0.5002215E+03  0.7546771E-02  0.9399314E-01
        -11   -1    0    0    0    0  0.00000000000E+00  0.00000000000E+00  0.50000000000E+03  0.50000000000E+03  0.00000000000E+00 0. -1.
         11   -1    0    0    0    0 -0.00000000000E+00 -0.00000000000E+00 -0.50000000000E+03  0.50000000000E+03  0.00000000000E+00 0. -1.
        -11    1    1    2    0    0  0.10390678633E+02  0.50271305012E+01  0.49964519844E+03  0.49977851351E+03  0.00000000000E+00 0. -1.
         11    1    1    2    0    0 -0.17633886088E+01 -0.77768582327E+01 -0.38671842428E+03  0.38680063177E+03  0.00000000000E+00 0. -1.
        -15    1    1    2    0    0 -0.48805017845E+01 -0.61606975110E+00 -0.54323630251E+02  0.54574841935E+02  0.17770000000E+01 0.  1.
         15    1    1    2    0    0 -0.37467882402E+01  0.33657974826E+01 -0.58603143911E+02  0.58846012780E+02  0.17770000000E+01 0. -1.
</event>
<event>
 6    1  0.6564965E-004  0.4665344E+03  0.7546771E-02  0.9477972E-01
        -11   -1    0    0    0    0  0.00000000000E+00  0.00000000000E+00  0.50000000000E+03  0.50000000000E+03  0.00000000000E+00 0.  1.
         11   -1    0    0    0    0 -0.00000000000E+00 -0.00000000000E+00 -0.50000000000E+03  0.50000000000E+03  0.00000000000E+00 0.  1.
        -11    1    1    2    0    0 -0.38123309110E+02  0.63429596499E+00  0.46261362986E+03  0.46418224822E+03  0.00000000000E+00 0.  1.
         11    1    1    2    0    0 -0.20930824856E+02  0.97614241185E+01 -0.47027585081E+03  0.47084260713E+03  0.00000000000E+00 0.  1.
        -15    1    1    2    0    0  0.46458946583E+02 -0.10562801872E+02  0.15378816238E+02  0.50096628817E+02  0.17770000000E+01 0.  1.
         15    1    1    2    0    0  0.12595187384E+02  0.16708178896E+00 -0.77165952924E+01  0.14878515835E+02  0.17770000000E+01 0. -1.
</event>
<event>
 6    1  0.6564965E-004  0.4946872E+03  0.7546771E-02  0.9411777E-01
        -11   -1    0    0    0    0  0.00000000000E+00  0.00000000000E+00  0.50000000000E+03  0.50000000000E+03  0.00000000000E+00 0. -1.
         11   -1    0    0    0    0 -0.00000000000E+00 -0.00000000000E+00 -0.50000000000E+03  0.50000000000E+03  0.00000000000E+00 0.  1.
        -11    1    1    2    0    0 -0.98220688812E+01  0.25321010987E+02  0.49619633825E+03  0.49693906339E+03  0.00000000000E+00 0. -1.
         11    1    1    2    0    0  0.11863892797E+02 -0.17016254566E+02 -0.49204399486E+03  0.49248106334E+03  0.00000000000E+00 0.  1.
        -15    1    1    2    0    0 -0.15917062183E+01 -0.60655507198E+01 -0.40712795428E+01  0.76848864881E+01  0.17770000000E+01 0. -1.
         15    1    1    2    0    0 -0.45011769784E+00 -0.22392057005E+01 -0.81063845095E-01  0.28949867803E+01  0.17770000000E+01 0. -1.
</event>
<event>
 6    1  0.6564965E-004  0.5027729E+03  0.7546771E-02  0.9393626E-01
        -11   -1    0    0    0    0  0.00000000000E+00  0.00000000000E+00  0.50000000000E+03  0.50000000000E+03  0.00000000000E+00 0.  1.
         11   -1    0    0    0    0 -0.00000000000E+00 -0.00000000000E+00 -0.50000000000E+03  0.50000000000E+03  0.00000000000E+00 0. -1.
        -11    1    1    2    0    0  0.72037896941E+01 -0.57719458446E+01  0.45943983736E+03  0.45953256044E+03  0.00000000000E+00 0.  1.
         11    1    1    2    0    0  0.72365849119E+01  0.88899494282E+01 -0.49709498045E+03  0.49722713014E+03  0.00000000000E+00 0. -1.
        -15    1    1    2    0    0 -0.67745329912E+01 -0.24853676908E+01  0.35547796949E+01  0.82380542294E+01  0.17770000000E+01 0. -1.
         15    1    1    2    0    0 -0.76658416148E+01 -0.63263589284E+00  0.34100363393E+02  0.35002255190E+02  0.17770000000E+01 0.  1.
</event>
<event>
 6    1  0.6564965E-004  0.5011412E+03  0.7546771E-02  0.9397260E-01
        -11   -1    0    0    0    0  0.00000000000E+00  0.00000000000E+00  0.50000000000E+03  0.50000000000E+03  0.00000000000E+00 0.  1.
         11   -1    0    0    0    0 -0.00000000000E+00 -0.00000000000E+00 -0.50000000000E+03  0.50000000000E+03  0.00000000000E+00 0. -1.
        -11    1    1    2    0    0  0.22916524065E+02 -0.14933645185E+01  0.16978440156E+03  0.17133049999E+03  0.00000000000E+00 0.  1.
         11    1    1    2    0    0 -0.49200260778E+01  0.12527132174E+02 -0.49867718184E+03  0.49885876496E+03  0.00000000000E+00 0. -1.
        -15    1    1    2    0    0 -0.12431639542E+02 -0.35849773393E+01  0.25188205079E+03  0.25222038570E+03  0.17770000000E+01 0.  1.
         15    1    1    2    0    0 -0.55648584451E+01 -0.74487903163E+01  0.77010729481E+02  0.77590349341E+02  0.17770000000E+01 0. -1.
</event>
<event>
 6    1  0.6564965E-004  0.5000254E+03  0.7546771E-02  0.9399753E-01
        -11   -1    0    0    0    0  0.00000000000E+00  0.00000000000E+00  0.50000000000E+03  0.50000000000E+03  0.00000000000E+00 0.  1.
         11   -1    0    0    0    0 -0.00000000000E+00 -0.00000000000E+00 -0.50000000000E+03  0.50000000000E+03  0.00000000000E+00 0.  1.
        -11    1    1    2    0    0 -0.16455834602E+01 -0.28917727794E+01  0.80526454439E+02  0.80595162133E+02  0.00000000000E+00 0.  1.
         11    1    1    2    0    0  0.13369118035E+01  0.95173039112E+01 -0.49988218400E+03  0.49997456364E+03  0.00000000000E+00 0.  1.
        -15    1    1    2    0    0 -0.96241422360E+00 -0.38379809129E+01  0.24829711659E+03  0.24833499990E+03  0.17770000000E+01 0. -1.
         15    1    1    2    0    0  0.12710858803E+01 -0.27875502189E+01  0.17105861297E+03  0.17109527433E+03  0.17770000000E+01 0.  1.
</event>
<event>
 6    1  0.6564965E-004  0.5000915E+03  0.7546771E-02  0.9399605E-01
        -11   -1    0    0    0    0  0.00000000000E+00  0.00000000000E+00  0.50000000000E+03  0.50000000000E+03  0.00000000000E+00 0. -1.
         11   -1    0    0    0    0 -0.00000000000E+00 -0.00000000000E+00 -0.50000000000E+03  0.50000000000E+03  0.00000000000E+00 0. -1.
        -11    1    1    2    0    0 -0.16762222683E+01 -0.28866789650E+01  0.17606077817E+03  0.17609241961E+03  0.00000000000E+00 0. -1.
         11    1    1    2    0    0 -0.82475121985E+01 -0.11366776524E-02 -0.49984044879E+03  0.49990848733E+03  0.00000000000E+00 0. -1.
        -15    1    1    2    0    0  0.18287511689E+01  0.24961041137E+01  0.11249348861E+03  0.11255006697E+03  0.17770000000E+01 0. -1.
         15    1    1    2    0    0  0.80949832980E+01  0.39171152888E+00  0.21128618202E+03  0.21144902609E+03  0.17770000000E+01 0.  1.
</event>
<event>
 6    1  0.6564965E-004  0.5015481E+03  0.7546771E-02  0.9396352E-01
        -11   -1    0    0    0    0  0.00000000000E+00  0.00000000000E+00  0.50000000000E+03  0.50000000000E+03  0.00000000000E+00 0. -1.
         11   -1    0    0    0    0 -0.00000000000E+00 -0.00000000000E+00 -0.50000000000E+03  0.50000000000E+03  0.00000000000E+00 0. -1.
        -11    1    1    2    0    0  0.24712530145E+01 -0.57736353165E+01  0.46291611642E+03  0.46295871608E+03  0.00000000000E+00 0. -1.
         11    1    1    2    0    0  0.60157457411E+01 -0.35556752302E+01 -0.49840293337E+03  0.49845191947E+03  0.00000000000E+00 0. -1.
        -15    1    1    2    0    0 -0.70797641952E+01  0.84263579035E+01  0.33882001239E+02  0.35668954366E+02  0.17770000000E+01 0. -1.
         15    1    1    2    0    0 -0.14072345604E+01  0.90295264316E+00  0.16048157180E+01  0.29204100864E+01  0.17770000000E+01 0.  1.
</event>
<event>
 6    1  0.6564965E-004  0.5036937E+03  0.7546771E-02  0.9391583E-01
        -11   -1    0    0    0    0  0.00000000000E+00  0.00000000000E+00  0.50000000000E+03  0.50000000000E+03  0.00000000000E+00 0. -1.
         11   -1    0    0    0    0 -0.00000000000E+00 -0.00000000000E+00 -0.50000000000E+03  0.50000000000E+03  0.00000000000E+00 0.  1.
        -11    1    1    2    0    0 -0.89521458521E+01  0.32003390727E+01  0.49621524459E+03  0.49630630869E+03  0.00000000000E+00 0. -1.
         11    1    1    2    0    0  0.10834287544E+02  0.60391210411E+01 -0.48925423905E+03  0.48941144572E+03  0.00000000000E+00 0.  1.
        -15    1    1    2    0    0  0.10546563939E+01  0.42803112875E+00 -0.19148735456E+01  0.28495579398E+01  0.17770000000E+01 0. -1.
         15    1    1    2    0    0 -0.29367980859E+01 -0.96674912425E+01 -0.50461319859E+01  0.11432687652E+02  0.17770000000E+01 0.  1.
</event>
<event>
 6    1  0.6564965E-004  0.5044984E+03  0.7546771E-02  0.9389800E-01
        -11   -1    0    0    0    0  0.00000000000E+00  0.00000000000E+00  0.50000000000E+03  0.50000000000E+03  0.00000000000E+00 0. -1.
         11   -1    0    0    0    0 -0.00000000000E+00 -0.00000000000E+00 -0.50000000000E+03  0.50000000000E+03  0.00000000000E+00 0.  1.
        -11    1    1    2    0    0 -0.12360484030E+02  0.33815289268E+01  0.49533587579E+03  0.49550161064E+03  0.00000000000E+00 0. -1.
         11    1    1    2    0    0  0.19460183729E+01  0.14781015636E+02 -0.46659568802E+03  0.46683380499E+03  0.00000000000E+00 0.  1.
        -15    1    1    2    0    0  0.66406373263E+01 -0.13477616728E+01 -0.88654111651E+01  0.11299016318E+02  0.17770000000E+01 0.  1.
         15    1    1    2    0    0  0.37738283306E+01 -0.16814782890E+02 -0.19874776612E+02  0.26365568044E+02  0.17770000000E+01 0. -1.
</event>
<event>
 6    1  0.6564965E-004  0.4725459E+03  0.7546771E-02  0.9463427E-01
        -11   -1    0    0    0    0  0.00000000000E+00  0.00000000000E+00  0.50000000000E+03  0.50000000000E+03  0.00000000000E+00 0.  1.
         11   -1    0    0    0    0 -0.00000000000E+00 -0.00000000000E+00 -0.50000000000E+03  0.50000000000E+03  0.00000000000E+00 0.  1.
        -11    1    1    2    0    0  0.11263981868E+02  0.28600388124E+02  0.46166493036E+03  0.46268711611E+03  0.00000000000E+00 0.  1.
         11    1    1    2    0    0  0.11737143125E+02 -0.15258171170E+01 -0.48317179240E+03  0.48331673840E+03  0.00000000000E+00 0.  1.
        -15    1    1    2    0    0 -0.11185138810E+02  0.70683570787E+01  0.61252038325E+01  0.14688255614E+02  0.17770000000E+01 0.  1.
         15    1    1    2    0    0 -0.11815986184E+02 -0.34142928086E+02  0.15381658207E+02  0.39307889869E+02  0.17770000000E+01 0. -1.
</event>
<event>
 6    1  0.6564965E-004  0.5052314E+03  0.7546771E-02  0.9388179E-01
        -11   -1    0    0    0    0  0.00000000000E+00  0.00000000000E+00  0.50000000000E+03  0.50000000000E+03  0.00000000000E+00 0. -1.
         11   -1    0    0    0    0 -0.00000000000E+00 -0.00000000000E+00 -0.50000000000E+03  0.50000000000E+03  0.00000000000E+00 0. -1.
        -11    1    1    2    0    0  0.58711111149E+01  0.77585998759E+02  0.31350318479E+03  0.32301440220E+03  0.00000000000E+00 0. -1.
         11    1    1    2    0    0 -0.20678119370E+02 -0.46604633982E+02 -0.49213449160E+03  0.49476856646E+03  0.00000000000E+00 0. -1.
        -15    1    1    2    0    0  0.73254090566E+00 -0.12528324582E+02  0.60094749022E+02  0.61416871640E+02  0.17770000000E+01 0. -1.
         15    1    1    2    0    0  0.14074467349E+02 -0.18453040196E+02  0.11853655779E+03  0.12080015970E+03  0.17770000000E+01 0.  1.
</event>
<event>
 6    1  0.6564965E-004  0.5042477E+03  0.7546771E-02  0.9390355E-01
        -11   -1    0    0    0    0  0.00000000000E+00  0.00000000000E+00  0.50000000000E+03  0.50000000000E+03  0.00000000000E+00 0. -1.
         11   -1    0    0    0    0 -0.00000000000E+00 -0.00000000000E+00 -0.50000000000E+03  0.50000000000E+03  0.00000000000E+00 0. -1.
        -11    1    1    2    0    0  0.33331339776E+02 -0.26247363992E+02  0.49393367501E+03  0.49575233498E+03  0.00000000000E+00 0. -1.
         11    1    1    2    0    0 -0.54962670070E+00  0.12145915977E+02 -0.26363656950E+03  0.26391677882E+03  0.00000000000E+00 0. -1.
        -15    1    1    2    0    0 -0.20353119756E+02  0.23055352573E+02 -0.45833211345E+02  0.55223543505E+02  0.17770000000E+01 0.  1.
         15    1    1    2    0    0 -0.12428593319E+02 -0.89539045580E+01 -0.18446389417E+03  0.18510734269E+03  0.17770000000E+01 0. -1.
</event>
<event>
 6    1  0.6564965E-004  0.5000540E+03  0.7546771E-02  0.9399689E-01
        -11   -1    0    0    0    0  0.00000000000E+00  0.00000000000E+00  0.50000000000E+03  0.50000000000E+03  0.00000000000E+00 0.  1.
         11   -1    0    0    0    0 -0.00000000000E+00 -0.00000000000E+00 -0.50000000000E+03  0.50000000000E+03  0.00000000000E+00 0.  1.
        -11    1    1    2    0    0 -0.17019743488E+01 -0.12175795939E+01  0.93672783272E+02  0.93696155432E+02  0.00000000000E+00 0.  1.
         11    1    1    2    0    0 -0.31152669508E+00 -0.77645436622E+01 -0.49988563499E+03  0.49994603035E+03  0.00000000000E+00 0.  1.
        -15    1    1    2    0    0 -0.90692156719E-01  0.50762306784E+01  0.14218704916E+03  0.14228875929E+03  0.17770000000E+01 0. -1.
         15    1    1    2    0    0  0.21041932006E+01  0.39058925778E+01  0.26402580256E+03  0.26406905493E+03  0.17770000000E+01 0.  1.
</event>
<event>
 6    1  0.6564965E-004  0.5004992E+03  0.7546771E-02  0.9398693E-01
        -11   -1    0    0    0    0  0.00000000000E+00  0.00000000000E+00  0.50000000000E+03  0.50000000000E+03  0.00000000000E+00 0. -1.
         11   -1    0    0    0    0 -0.00000000000E+00 -0.00000000000E+00 -0.50000000000E+03  0.50000000000E+03  0.00000000000E+00 0. -1.
        -11    1    1    2    0    0  0.42020994663E+01  0.10947656924E+02  0.49936316585E+03  0.49950083107E+03  0.00000000000E+00 0. -1.
         11    1    1    2    0    0 -0.85351595638E+01  0.58390300785E+01 -0.30847578415E+03  0.30864907683E+03  0.00000000000E+00 0. -1.
        -15    1    1    2    0    0  0.29628402337E+01 -0.45603287908E+01 -0.93128188610E+02  0.93303763395E+02  0.17770000000E+01 0.  1.
         15    1    1    2    0    0  0.13702198639E+01 -0.12226358212E+02 -0.97759193095E+02  0.98546328705E+02  0.17770000000E+01 0. -1.
</event>
<event>
 6    1  0.6564965E-004  0.4891620E+03  0.7546771E-02  0.9424393E-01
        -11   -1    0    0    0    0  0.00000000000E+00  0.00000000000E+00  0.50000000000E+03  0.50000000000E+03  0.00000000000E+00 0. -1.
         11   -1    0    0    0    0 -0.00000000000E+00 -0.00000000000E+00 -0.50000000000E+03  0.50000000000E+03  0.00000000000E+00 0. -1.
        -11    1    1    2    0    0 -0.14521142440E+01 -0.10506237301E+02  0.48694591973E+03  0.48706141132E+03  0.00000000000E+00 0. -1.
         11    1    1    2    0    0  0.64818802945E+01 -0.31591177630E+01 -0.49132779406E+03  0.49138070375E+03  0.00000000000E+00 0. -1.
        -15    1    1    2    0    0 -0.38197068610E+01  0.12862079914E+01 -0.44020956872E+01  0.62274125398E+01  0.17770000000E+01 0.  1.
         15    1    1    2    0    0 -0.12100591894E+01  0.12379147073E+02  0.87839700210E+01  0.15330472394E+02  0.17770000000E+01 0. -1.
</event>
<event>
 6    1  0.6564965E-004  0.5062267E+03  0.7546771E-02  0.9385984E-01
        -11   -1    0    0    0    0  0.00000000000E+00  0.00000000000E+00  0.50000000000E+03  0.50000000000E+03  0.00000000000E+00 0. -1.
         11   -1    0    0    0    0 -0.00000000000E+00 -0.00000000000E+00 -0.50000000000E+03  0.50000000000E+03  0.00000000000E+00 0.  1.
        -11    1    1    2    0    0  0.18891502249E+02  0.11109568826E+01  0.49341048681E+03  0.49377325928E+03  0.00000000000E+00 0. -1.
         11    1    1    2    0    0  0.14467544917E+01 -0.13338613007E+02 -0.47475774327E+03  0.47494728811E+03  0.00000000000E+00 0.  1.
        -15    1    1    2    0    0 -0.15496908530E+02  0.69039659123E+01 -0.95804005752E+01  0.19564271606E+02  0.17770000000E+01 0. -1.
         15    1    1    2    0    0 -0.48413482104E+01  0.53236902122E+01 -0.90723429687E+01  0.11715181002E+02  0.17770000000E+01 0.  1.
</event>
<event>
 6    1  0.6564965E-004  0.5072752E+03  0.7546771E-02  0.9383677E-01
        -11   -1    0    0    0    0  0.00000000000E+00  0.00000000000E+00  0.50000000000E+03  0.50000000000E+03  0.00000000000E+00 0.  1.
         11   -1    0    0    0    0 -0.00000000000E+00 -0.00000000000E+00 -0.50000000000E+03  0.50000000000E+03  0.00000000000E+00 0. -1.
        -11    1    1    2    0    0 -0.13517163094E+02 -0.25656626831E+02  0.49187071345E+03  0.49272484709E+03  0.00000000000E+00 0.  1.
         11    1    1    2    0    0 -0.11940117198E+02 -0.32321401215E+02 -0.33980525773E+03  0.34154773101E+03  0.00000000000E+00 0. -1.
        -15    1    1    2    0    0  0.27129154144E+02  0.45153534596E+02 -0.11753853336E+03  0.12881497291E+03  0.17770000000E+01 0.  1.
         15    1    1    2    0    0 -0.16718738510E+01  0.12824493450E+02 -0.34526922352E+02  0.36912448991E+02  0.17770000000E+01 0. -1.
</event>
<event>
 6    1  0.6564965E-004  0.5008378E+03  0.7546771E-02  0.9397937E-01
        -11   -1    0    0    0    0  0.00000000000E+00  0.00000000000E+00  0.50000000000E+03  0.50000000000E+03  0.00000000000E+00 0. -1.
         11   -1    0    0    0    0 -0.00000000000E+00 -0.00000000000E+00 -0.50000000000E+03  0.50000000000E+03  0.00000000000E+00 0. -1.
        -11    1    1    2    0    0 -0.13928599067E+02 -0.12991585299E+02  0.31162257276E+03  0.31220412396E+03  0.00000000000E+00 0. -1.
         11    1    1    2    0    0  0.70257644231E+01  0.36851548066E+00 -0.49911263815E+03  0.49916222086E+03  0.00000000000E+00 0. -1.
        -15    1    1    2    0    0 -0.57748255363E+00 -0.28411802460E+01  0.25546426452E+02  0.25771756338E+02  0.17770000000E+01 0.  1.
         15    1    1    2    0    0  0.74803171971E+01  0.15464250065E+02  0.16194363894E+03  0.16286189885E+03  0.17770000000E+01 0. -1.
</event>
<event>
 6    1  0.6564965E-004  0.5001450E+03  0.7546771E-02  0.9399485E-01
        -11   -1    0    0    0    0  0.00000000000E+00  0.00000000000E+00  0.50000000000E+03  0.50000000000E+03  0.00000000000E+00 0.  1.
         11   -1    0    0    0    0 -0.00000000000E+00 -0.00000000000E+00 -0.50000000000E+03  0.50000000000E+03  0.00000000000E+00 0.  1.
        -11    1    1    2    0    0  0.48572672806E+01 -0.19457545992E+01  0.36001513505E+03  0.36005315784E+03  0.00000000000E+00 0.  1.
         11    1    1    2    0    0 -0.84027199066E+01 -0.62125822214E+00 -0.49978396359E+03  0.49985498090E+03  0.00000000000E+00 0.  1.
        -15    1    1    2    0    0  0.18968228813E+01  0.47105812472E+01  0.11302684044E+03  0.11315481387E+03  0.17770000000E+01 0.  1.
         15    1    1    2    0    0  0.16486297447E+01 -0.21435684259E+01  0.26741988108E+02  0.26937047400E+02  0.17770000000E+01 0. -1.
</event>
<event>
 6    1  0.6564965E-004  0.5097449E+03  0.7546771E-02  0.9378265E-01
        -11   -1    0    0    0    0  0.00000000000E+00  0.00000000000E+00  0.50000000000E+03  0.50000000000E+03  0.00000000000E+00 0.  1.
         11   -1    0    0    0    0 -0.00000000000E+00 -0.00000000000E+00 -0.50000000000E+03  0.50000000000E+03  0.00000000000E+00 0. -1.
        -11    1    1    2    0    0 -0.23414179836E+02  0.12121106017E+02  0.48954563624E+03  0.49025511215E+03  0.00000000000E+00 0.  1.
         11    1    1    2    0    0  0.35016454412E+01 -0.80824277907E+01 -0.45822025820E+03  0.45830491181E+03  0.00000000000E+00 0. -1.
        -15    1    1    2    0    0 -0.86091165859E+01 -0.17404413907E+01 -0.17390509885E+02  0.19563578090E+02  0.17770000000E+01 0. -1.
         15    1    1    2    0    0  0.28521650981E+02 -0.22982368360E+01 -0.13934868148E+02  0.31876397954E+02  0.17770000000E+01 0.  1.
</event>
<event>
 6    1  0.6564965E-004  0.5035814E+03  0.7546771E-02  0.9391831E-01
        -11   -1    0    0    0    0  0.00000000000E+00  0.00000000000E+00  0.50000000000E+03  0.50000000000E+03  0.00000000000E+00 0. -1.
         11   -1    0    0    0    0 -0.00000000000E+00 -0.00000000000E+00 -0.50000000000E+03  0.50000000000E+03  0.00000000000E+00 0. -1.
        -11    1    1    2    0    0  0.22760492713E+01  0.21886628250E+02  0.49593064253E+03  0.49641858053E+03  0.00000000000E+00 0. -1.
         11    1    1    2    0    0  0.82121858125E+01 -0.24171223478E+01 -0.44272844654E+03  0.44281120114E+03  0.00000000000E+00 0. -1.
        -15    1    1    2    0    0 -0.80370805528E+01 -0.20475302498E+02 -0.53183259941E+02  0.57579940458E+02  0.17770000000E+01 0. -1.
         15    1    1    2    0    0 -0.24511545310E+01  0.10057965958E+01 -0.18936042709E-01  0.31902778720E+01  0.17770000000E+01 0.  1.
</event>
<event>
 6    1  0.6564965E-004  0.4239184E+03  0.7546771E-02  0.9588255E-01
        -11   -1    0    0    0    0  0.00000000000E+00  0.00000000000E+00  0.50000000000E+03  0.50000000000E+03  0.00000000000E+00 0. -1.
         11   -1    0    0    0    0 -0.00000000000E+00 -0.00000000000E+00 -0.50000000000E+03  0.50000000000E+03  0.00000000000E+00 0. -1.
        -11    1    1    2    0    0  0.11224718530E+03 -0.78392512214E+02  0.40255458227E+03  0.42519996270E+03  0.00000000000E+00 0. -1.
         11    1    1    2    0    0 -0.72764233814E+02 -0.46585866456E+02 -0.42427494917E+03  0.43298280470E+03  0.00000000000E+00 0. -1.
        -15    1    1    2    0    0 -0.48639525469E+02  0.11487163166E+03  0.25951242680E+02  0.12742809707E+03  0.17770000000E+01 0. -1.
         15    1    1    2    0    0  0.91565739788E+01  0.10106747008E+02 -0.42308757785E+01  0.14389135518E+02  0.17770000000E+01 0.  1.
</event>
<event>
 6    1  0.6564965E-004  0.5013624E+03  0.7546771E-02  0.9396766E-01
        -11   -1    0    0    0    0  0.00000000000E+00  0.00000000000E+00  0.50000000000E+03  0.50000000000E+03  0.00000000000E+00 0.  1.
         11   -1    0    0    0    0 -0.00000000000E+00 -0.00000000000E+00 -0.50000000000E+03  0.50000000000E+03  0.00000000000E+00 0. -1.
        -11    1    1    2    0    0 -0.11941681096E+02  0.65069972141E+01  0.49845213480E+03  0.49863761937E+03  0.00000000000E+00 0.  1.
         11    1    1    2    0    0 -0.12896766353E+02 -0.55180318606E+01 -0.35497813478E+03  0.35525519198E+03  0.00000000000E+00 0. -1.
        -15    1    1    2    0    0  0.17076668471E+02 -0.16741363424E+01 -0.12162797612E+03  0.12284517753E+03  0.17770000000E+01 0. -1.
         15    1    1    2    0    0  0.77617789774E+01  0.68517098892E+00 -0.21846023897E+02  0.23262011119E+02  0.17770000000E+01 0.  1.
</event>
<event>
 6    1  0.6564965E-004  0.5000404E+03  0.7546771E-02  0.9399719E-01
        -11   -1    0    0    0    0  0.00000000000E+00  0.00000000000E+00  0.50000000000E+03  0.50000000000E+03  0.00000000000E+00 0. -1.
         11   -1    0    0    0    0 -0.00000000000E+00 -0.00000000000E+00 -0.50000000000E+03  0.50000000000E+03  0.00000000000E+00 0.  1.
        -11    1    1    2    0    0  0.38821356592E+01 -0.59389507881E+01  0.35772661545E+03  0.35779697248E+03  0.00000000000E+00 0. -1.
         11    1    1    2    0    0 -0.83922326829E+01  0.94536620391E+01 -0.49979971252E+03  0.49995955229E+03  0.00000000000E+00 0.  1.
        -15    1    1    2    0    0  0.16112554539E+01 -0.59705845247E+00  0.53762120169E+02  0.53818917836E+02  0.17770000000E+01 0. -1.
         15    1    1    2    0    0  0.28988415698E+01 -0.29176527986E+01  0.88310976902E+02  0.88424557396E+02  0.17770000000E+01 0.  1.
</event>
<event>
 6    1  0.6564965E-004  0.4881321E+03  0.7546771E-02  0.9426764E-01
        -11   -1    0    0    0    0  0.00000000000E+00  0.00000000000E+00  0.50000000000E+03  0.50000000000E+03  0.00000000000E+00 0. -1.
         11   -1    0    0    0    0 -0.00000000000E+00 -0.00000000000E+00 -0.50000000000E+03  0.50000000000E+03  0.00000000000E+00 0.  1.
        -11    1    1    2    0    0 -0.77045043329E+01  0.74398795707E+00  0.48291471077E+03  0.48297673938E+03  0.00000000000E+00 0. -1.
         11    1    1    2    0    0 -0.10072710557E+02 -0.61783195142E+01 -0.49337891331E+03  0.49352039799E+03  0.00000000000E+00 0.  1.
        -15    1    1    2    0    0  0.17938276737E+02  0.42136299752E+01  0.10608385089E+02  0.21336166785E+02  0.17770000000E+01 0. -1.
         15    1    1    2    0    0 -0.16106184738E+00  0.12207015820E+01 -0.14418255203E+00  0.21666958437E+01  0.17770000000E+01 0.  1.
</event>
<event>
 6    1  0.6564965E-004  0.5004054E+03  0.7546771E-02  0.9398903E-01
        -11   -1    0    0    0    0  0.00000000000E+00  0.00000000000E+00  0.50000000000E+03  0.50000000000E+03  0.00000000000E+00 0. -1.
         11   -1    0    0    0    0 -0.00000000000E+00 -0.00000000000E+00 -0.50000000000E+03  0.50000000000E+03  0.00000000000E+00 0. -1.
        -11    1    1    2    0    0  0.50637193756E+01 -0.17326944155E+02  0.27089336587E+03  0.27149416186E+03  0.00000000000E+00 0. -1.
         11    1    1    2    0    0  0.49519027171E+01  0.11040579556E+02 -0.49944801718E+03  0.49959457323E+03  0.00000000000E+00 0. -1.
        -15    1    1    2    0    0 -0.68134054874E+01  0.48609601078E+01  0.17721031042E+03  0.17741675026E+03  0.17770000000E+01 0.  1.
         15    1    1    2    0    0 -0.32022166053E+01  0.14254044905E+01  0.51344340887E+02  0.51494514652E+02  0.17770000000E+01 0.  1.
</event>
<event>
 6    1  0.6564965E-004  0.4158523E+03  0.7546771E-02  0.9610688E-01
        -11   -1    0    0    0    0  0.00000000000E+00  0.00000000000E+00  0.50000000000E+03  0.50000000000E+03  0.00000000000E+00 0. -1.
         11   -1    0    0    0    0 -0.00000000000E+00 -0.00000000000E+00 -0.50000000000E+03  0.50000000000E+03  0.00000000000E+00 0. -1.
        -11    1    1    2    0    0  0.18123351243E+02  0.93697050376E+02  0.43045434877E+03  0.44090649744E+03  0.00000000000E+00 0. -1.
         11    1    1    2    0    0 -0.14674248445E+02  0.59699725101E+01 -0.39710340436E+03  0.39741928475E+03  0.00000000000E+00 0. -1.
        -15    1    1    2    0    0  0.19857343021E+02 -0.77230139600E+01  0.37569373896E+02  0.43227012393E+02  0.17770000000E+01 0. -1.
         15    1    1    2    0    0 -0.23306445819E+02 -0.91944008926E+02 -0.70920318301E+02  0.11844720542E+03  0.17770000000E+01 0.  1.
</event>
<event>
 6    1  0.6564965E-004  0.4914154E+03  0.7546771E-02  0.9419226E-01
        -11   -1    0    0    0    0  0.00000000000E+00  0.00000000000E+00  0.50000000000E+03  0.50000000000E+03  0.00000000000E+00 0. -1.
         11   -1    0    0    0    0 -0.00000000000E+00 -0.00000000000E+00 -0.50000000000E+03  0.50000000000E+03  0.00000000000E+00 0.  1.
        -11    1    1    2    0    0 -0.27858776465E+01 -0.13573854072E+02  0.48773421369E+03  0.48793101340E+03  0.00000000000E+00 0. -1.
         11    1    1    2    0    0 -0.68086211119E+01  0.51663952684E+01 -0.49493507171E+03  0.49500886271E+03  0.00000000000E+00 0.  1.
        -15    1    1    2    0    0  0.42628855478E+01  0.37262924037E+00 -0.40455675502E+00  0.46510687925E+01  0.17770000000E+01 0. -1.
         15    1    1    2    0    0  0.53316132107E+01  0.80348295636E+01  0.76054147679E+01  0.12409055094E+02  0.17770000000E+01 0.  1.
</event>
<event>
 6    1  0.6564965E-004  0.5018672E+03  0.7546771E-02  0.9395641E-01
        -11   -1    0    0    0    0  0.00000000000E+00  0.00000000000E+00  0.50000000000E+03  0.50000000000E+03  0.00000000000E+00 0.  1.
         11   -1    0    0    0    0 -0.00000000000E+00 -0.00000000000E+00 -0.50000000000E+03  0.50000000000E+03  0.00000000000E+00 0. -1.
        -11    1    1    2    0    0 -0.90585161097E+00 -0.72345984851E+01  0.49807946893E+03  0.49813283103E+03  0.00000000000E+00 0.  1.
         11    1    1    2    0    0  0.66910407758E+01 -0.28201747967E+01 -0.47500432826E+03  0.47505982284E+03  0.00000000000E+00 0. -1.
        -15    1    1    2    0    0 -0.12256799209E+01  0.15642671741E+01 -0.10672144803E+02  0.11000073943E+02  0.17770000000E+01 0. -1.
         15    1    1    2    0    0 -0.45595092440E+01  0.84905061078E+01 -0.12402995867E+02  0.15807272187E+02  0.17770000000E+01 0.  1.
</event>
<event>
 6    1  0.6564965E-004  0.5005567E+03  0.7546771E-02  0.9398565E-01
        -11   -1    0    0    0    0  0.00000000000E+00  0.00000000000E+00  0.50000000000E+03  0.50000000000E+03  0.00000000000E+00 0. -1.
         11   -1    0    0    0    0 -0.00000000000E+00 -0.00000000000E+00 -0.50000000000E+03  0.50000000000E+03  0.00000000000E+00 0.  1.
        -11    1    1    2    0    0 -0.78791383231E+01 -0.35202900845E+01  0.29134467943E+03  0.29147246095E+03  0.00000000000E+00 0. -1.
         11    1    1    2    0    0 -0.60807094863E+01  0.55833862804E+01 -0.49937502183E+03  0.49944325169E+03  0.00000000000E+00 0.  1.
        -15    1    1    2    0    0  0.81788675172E+01  0.93242919572E+00  0.18195106647E+03  0.18214585259E+03  0.17770000000E+01 0. -1.
         15    1    1    2    0    0  0.57809802922E+01 -0.29955253916E+01  0.26079275931E+02  0.26938434765E+02  0.17770000000E+01 0.  1.
</event>
<event>
 6    1  0.6564965E-004  0.4719595E+03  0.7546771E-02  0.9464835E-01
        -11   -1    0    0    0    0  0.00000000000E+00  0.00000000000E+00  0.50000000000E+03  0.50000000000E+03  0.00000000000E+00 0.  1.
         11   -1    0    0    0    0 -0.00000000000E+00 -0.00000000000E+00 -0.50000000000E+03  0.50000000000E+03  0.00000000000E+00 0.  1.
        -11    1    1    2    0    0 -0.73881224704E+01 -0.45559444169E+02  0.46484067043E+03  0.46712642421E+03  0.00000000000E+00 0.  1.
         11    1    1    2    0    0 -0.89941877388E+01  0.16979140535E+02 -0.47705947855E+03  0.47744626158E+03  0.00000000000E+00 0.  1.
        -15    1    1    2    0    0 -0.14081340832E+02  0.13293441303E+02  0.80373786473E+01  0.21041789986E+02  0.17770000000E+01 0.  1.
         15    1    1    2    0    0  0.30463651041E+02  0.15286862331E+02  0.41814294713E+01  0.34385524223E+02  0.17770000000E+01 0. -1.
</event>
<event>
 6    1  0.6564965E-004  0.5056533E+03  0.7546771E-02  0.9387248E-01
        -11   -1    0    0    0    0  0.00000000000E+00  0.00000000000E+00  0.50000000000E+03  0.50000000000E+03  0.00000000000E+00 0.  1.
         11   -1    0    0    0    0 -0.00000000000E+00 -0.00000000000E+00 -0.50000000000E+03  0.50000000000E+03  0.00000000000E+00 0.  1.
        -11    1    1    2    0    0  0.80651718037E+00  0.12118014042E+02  0.48714704124E+03  0.48729840603E+03  0.00000000000E+00 0.  1.
         11    1    1    2    0    0  0.38439629712E+01 -0.61462788714E+01 -0.49429359042E+03  0.49434674706E+03  0.00000000000E+00 0.  1.
        -15    1    1    2    0    0 -0.72090334330E+00 -0.61312762895E+01  0.10888816832E+02  0.12642638632E+02  0.17770000000E+01 0. -1.
         15    1    1    2    0    0 -0.39295768082E+01  0.15954111935E+00 -0.37422676456E+01  0.57122082763E+01  0.17770000000E+01 0.  1.
</event>
<event>
 6    1  0.6564965E-004  0.5049508E+03  0.7546771E-02  0.9388800E-01
        -11   -1    0    0    0    0  0.00000000000E+00  0.00000000000E+00  0.50000000000E+03  0.50000000000E+03  0.00000000000E+00 0. -1.
         11   -1    0    0    0    0 -0.00000000000E+00 -0.00000000000E+00 -0.50000000000E+03  0.50000000000E+03  0.00000000000E+00 0. -1.
        -11    1    1    2    0    0 -0.73127936361E+01  0.35397131093E+02  0.34740569628E+03  0.34928090650E+03  0.00000000000E+00 0. -1.
         11    1    1    2    0    0  0.82500600211E+01  0.80781893299E+01 -0.49491455806E+03  0.49504923029E+03  0.00000000000E+00 0. -1.
        -15    1    1    2    0    0  0.26851298162E+01 -0.13320201296E+02  0.17929659289E+02  0.22566969134E+02  0.17770000000E+01 0.  1.
         15    1    1    2    0    0 -0.36223962012E+01 -0.30155119126E+02  0.12957920249E+03  0.13310289408E+03  0.17770000000E+01 0. -1.
</event>
<event>
 6    1  0.6564965E-004  0.5007283E+03  0.7546771E-02  0.9398182E-01
        -11   -1    0    0    0    0  0.00000000000E+00  0.00000000000E+00  0.50000000000E+03  0.50000000000E+03  0.00000000000E+00 0. -1.
         11   -1    0    0    0    0 -0.00000000000E+00 -0.00000000000E+00 -0.50000000000E+03  0.50000000000E+03  0.00000000000E+00 0.  1.
        -11    1    1    2    0    0  0.13543726694E+02  0.10968669568E+01  0.96275724834E+02  0.97229886569E+02  0.00000000000E+00 0. -1.
         11    1    1    2    0    0  0.14937161599E+01  0.14559254471E+02 -0.49905713042E+03  0.49927169207E+03  0.00000000000E+00 0.  1.
        -15    1    1    2    0    0 -0.15215348352E+02 -0.11050116966E+02  0.29521621116E+03  0.29581984547E+03  0.17770000000E+01 0. -1.
         15    1    1    2    0    0  0.17790549803E+00 -0.46060044615E+01  0.10756519442E+03  0.10767857590E+03  0.17770000000E+01 0.  1.
</event>
<event>
 6    1  0.6564965E-004  0.5007362E+03  0.7546771E-02  0.9398164E-01
        -11   -1    0    0    0    0  0.00000000000E+00  0.00000000000E+00  0.50000000000E+03  0.50000000000E+03  0.00000000000E+00 0.  1.
         11   -1    0    0    0    0 -0.00000000000E+00 -0.00000000000E+00 -0.50000000000E+03  0.50000000000E+03  0.00000000000E+00 0.  1.
        -11    1    1    2    0    0  0.38917090172E+01  0.29383749994E+02  0.49838314017E+03  0.49926376252E+03  0.00000000000E+00 0.  1.
         11    1    1    2    0    0  0.26466405561E+01  0.25865566202E+01 -0.20961842553E+03  0.20965108944E+03  0.00000000000E+00 0.  1.
        -15    1    1    2    0    0 -0.46648329793E+01 -0.32695808740E+02 -0.24282016288E+03  0.24506237126E+03  0.17770000000E+01 0.  1.
         15    1    1    2    0    0 -0.18735165940E+01  0.72550212562E+00 -0.45944551753E+02  0.46022776780E+02  0.17770000000E+01 0. -1.
</event>
<event>
 6    1  0.6564965E-004  0.4547324E+03  0.7546771E-02  0.9507217E-01
        -11   -1    0    0    0    0  0.00000000000E+00  0.00000000000E+00  0.50000000000E+03  0.50000000000E+03  0.00000000000E+00 0.  1.
         11   -1    0    0    0    0 -0.00000000000E+00 -0.00000000000E+00 -0.50000000000E+03  0.50000000000E+03  0.00000000000E+00 0.  1.
        -11    1    1    2    0    0 -0.54405509429E+02  0.26000546346E+02  0.43670126464E+03  0.44084462388E+03  0.00000000000E+00 0.  1.
         11    1    1    2    0    0 -0.74170600325E+01 -0.59344605570E+01 -0.47150831407E+03  0.47160398730E+03  0.00000000000E+00 0.  1.
        -15    1    1    2    0    0  0.59473286391E+02 -0.12940933610E+02  0.44315561278E+02  0.75309801867E+02  0.17770000000E+01 0. -1.
         15    1    1    2    0    0  0.23492830714E+01 -0.71251521791E+01 -0.95085118447E+01  0.12241586949E+02  0.17770000000E+01 0.  1.
</event>
<event>
 6    1  0.6564965E-004  0.5029223E+03  0.7546771E-02  0.9393295E-01
        -11   -1    0    0    0    0  0.00000000000E+00  0.00000000000E+00  0.50000000000E+03  0.50000000000E+03  0.00000000000E+00 0.  1.
         11   -1    0    0    0    0 -0.00000000000E+00 -0.00000000000E+00 -0.50000000000E+03  0.50000000000E+03  0.00000000000E+00 0. -1.
        -11    1    1    2    0    0 -0.33239348005E+01 -0.29245626663E+02  0.49620549462E+03  0.49707770833E+03  0.00000000000E+00 0.  1.
         11    1    1    2    0    0 -0.50796121197E+00  0.12506136413E+02 -0.39321180007E+03  0.39341095713E+03  0.00000000000E+00 0. -1.
        -15    1    1    2    0    0 -0.48580309607E+01 -0.84902011830E+01 -0.36801143935E+02  0.38120413231E+02  0.17770000000E+01 0.  1.
         15    1    1    2    0    0  0.86899269732E+01  0.25229691433E+02 -0.66192550616E+02  0.71390921318E+02  0.17770000000E+01 0. -1.
</event>
<event>
 6    1  0.6564965E-004  0.5010299E+03  0.7546771E-02  0.9397508E-01
        -11   -1    0    0    0    0  0.00000000000E+00  0.00000000000E+00  0.50000000000E+03  0.50000000000E+03  0.00000000000E+00 0.  1.
         11   -1    0    0    0    0 -0.00000000000E+00 -0.00000000000E+00 -0.50000000000E+03  0.50000000000E+03  0.00000000000E+00 0.  1.
        -11    1    1    2    0    0 -0.13366030924E+00 -0.98142470265E+01  0.49887356408E+03  0.49897010957E+03  0.00000000000E+00 0.  1.
         11    1    1    2    0    0  0.75202625923E+01 -0.75748473960E+01 -0.39219285849E+03  0.39233808242E+03  0.00000000000E+00 0.  1.
        -15    1    1    2    0    0 -0.61131975047E+01  0.65983776842E+01 -0.35514348724E+02  0.36678828582E+02  0.17770000000E+01 0.  1.
         15    1    1    2    0    0 -0.12734047783E+01  0.10790716738E+02 -0.71166356862E+02  0.72012979424E+02  0.17770000000E+01 0. -1.
</event>
<event>
 6    1  0.6564965E-004  0.5005199E+03  0.7546771E-02  0.9398647E-01
        -11   -1    0    0    0    0  0.00000000000E+00  0.00000000000E+00  0.50000000000E+03  0.50000000000E+03  0.00000000000E+00 0. -1.
         11   -1    0    0    0    0 -0.00000000000E+00 -0.00000000000E+00 -0.50000000000E+03  0.50000000000E+03  0.00000000000E+00 0. -1.
        -11    1    1    2    0    0  0.41443364399E+01  0.68765048151E+01  0.49941556567E+03  0.49948009877E+03  0.00000000000E+00 0. -1.
         11    1    1    2    0    0 -0.59444172795E+01 -0.24169375555E+01 -0.47044886826E+03  0.47049263047E+03  0.00000000000E+00 0. -1.
        -15    1    1    2    0    0  0.60798162337E+00 -0.27657958067E+01 -0.57542726734E+01  0.66549719082E+01  0.17770000000E+01 0. -1.
         15    1    1    2    0    0  0.11920992162E+01 -0.16937714529E+01 -0.23212424733E+02  0.23372298844E+02  0.17770000000E+01 0.  1.
</event>
<event>
 6    1  0.6564965E-004  0.5000540E+03  0.7546771E-02  0.9399689E-01
        -11   -1    0    0    0    0  0.00000000000E+00  0.00000000000E+00  0.50000000000E+03  0.50000000000E+03  0.00000000000E+00 0.  1.
         11   -1    0    0    0    0 -0.00000000000E+00 -0.00000000000E+00 -0.50000000000E+03  0.50000000000E+03  0.00000000000E+00 0.  1.
        -11    1    1    2    0    0  0.44863882181E+01  0.35713302507E+01  0.85746388364E+02  0.85937914778E+02  0.00000000000E+00 0.  1.
         11    1    1    2    0    0 -0.98556809517E+01 -0.10543226615E+02 -0.49973764662E+03  0.49994600661E+03  0.00000000000E+00 0.  1.
        -15    1    1    2    0    0  0.16334107418E+01  0.20775156041E+01  0.80030045523E+02  0.80093383104E+02  0.17770000000E+01 0.  1.
         15    1    1    2    0    0  0.37358819918E+01  0.48943807600E+01  0.33396121273E+03  0.33402269551E+03  0.17770000000E+01 0.  1.
</event>
<event>
 6    1  0.6564965E-004  0.4668405E+03  0.7546771E-02  0.9477225E-01
        -11   -1    0    0    0    0  0.00000000000E+00  0.00000000000E+00  0.50000000000E+03  0.50000000000E+03  0.00000000000E+00 0.  1.
         11   -1    0    0    0    0 -0.00000000000E+00 -0.00000000000E+00 -0.50000000000E+03  0.50000000000E+03  0.00000000000E+00 0.  1.
        -11    1    1    2    0    0 -0.22171929944E+02  0.18178779090E+02  0.47560918435E+03  0.47647262117E+03  0.00000000000E+00 0.  1.
         11    1    1    2    0    0 -0.28116057687E+02  0.10390549297E+02 -0.45818081534E+03  0.45916025063E+03  0.00000000000E+00 0.  1.
        -15    1    1    2    0    0  0.90486586380E+01 -0.16392920361E+02 -0.71408392651E+01  0.20118533135E+02  0.17770000000E+01 0. -1.
         15    1    1    2    0    0  0.41239328992E+02 -0.12176408027E+02 -0.10287529742E+02  0.44248595066E+02  0.17770000000E+01 0.  1.
</event>
<event>
 6    1  0.6564965E-004  0.5086435E+03  0.7546771E-02  0.9380674E-01
        -11   -1    0    0    0    0  0.00000000000E+00  0.00000000000E+00  0.50000000000E+03  0.50000000000E+03  0.00000000000E+00 0. -1.
         11   -1    0    0    0    0 -0.00000000000E+00 -0.00000000000E+00 -0.50000000000E+03  0.50000000000E+03  0.00000000000E+00 0.  1.
        -11    1    1    2    0    0  0.35855662848E+02 -0.17465743027E+02  0.10426779668E+03  0.11163536251E+03  0.00000000000E+00 0. -1.
         11    1    1    2    0    0 -0.82432986642E+01  0.81365214775E+01 -0.49122001288E+03  0.49135654673E+03  0.00000000000E+00 0.  1.
        -15    1    1    2    0    0 -0.29879760246E+02  0.16662251628E+02  0.38759252537E+03  0.38910352627E+03  0.17770000000E+01 0. -1.
         15    1    1    2    0    0  0.22673960623E+01 -0.73330300782E+01 -0.64030916949E+00  0.79045644955E+01  0.17770000000E+01 0.  1.
</event>
<event>
 6    1  0.7617246E-004  0.5001161E+03  0.7546771E-02  0.9399550E-01
        -11   -1    0    0    0    0  0.00000000000E+00  0.00000000000E+00  0.50000000000E+03  0.50000000000E+03  0.00000000000E+00 0. -1.
         11   -1    0    0    0    0 -0.00000000000E+00 -0.00000000000E+00 -0.50000000000E+03  0.50000000000E+03  0.00000000000E+00 0.  1.
        -11    1    1    2    0    0 -0.17992809638E+01 -0.68543572243E+01  0.49983370518E+03  0.49988393899E+03  0.00000000000E+00 0. -1.
         11    1    1    2    0    0  0.24504862992E+01  0.50139834806E+01 -0.33278834936E+03  0.33283513994E+03  0.00000000000E+00 0.  1.
        -15    1    1    2    0    0 -0.25734013896E+01 -0.21000353166E+01 -0.98807171398E+02  0.98878953229E+02  0.17770000000E+01 0. -1.
         15    1    1    2    0    0  0.19221960542E+01  0.39404090603E+01 -0.68238184426E+02  0.68401967837E+02  0.17770000000E+01 0.  1.
</event>
<event>
 6    1  0.6564965E-004  0.5087578E+03  0.7546771E-02  0.9380424E-01
        -11   -1    0    0    0    0  0.00000000000E+00  0.00000000000E+00  0.50000000000E+03  0.50000000000E+03  0.00000000000E+00 0. -1.
         11   -1    0    0    0    0 -0.00000000000E+00 -0.00000000000E+00 -0.50000000000E+03  0.50000000000E+03  0.00000000000E+00 0.  1.
        -11    1    1    2    0    0  0.94478059123E+01  0.20748512708E+02  0.47280900271E+03  0.47335833663E+03  0.00000000000E+00 0. -1.
         11    1    1    2    0    0  0.13174488555E+02 -0.40940687596E+01 -0.49104846666E+03  0.49124222656E+03  0.00000000000E+00 0.  1.
        -15    1    1    2    0    0 -0.19493836547E+02 -0.17089103514E+02  0.18287927339E+02  0.31775039537E+02  0.17770000000E+01 0.  1.
         15    1    1    2    0    0 -0.31284579201E+01  0.43465956497E+00 -0.48463388400E-01  0.36243972733E+01  0.17770000000E+01 0. -1.
</event>
<event>
 6    1  0.6564965E-004  0.5002557E+03  0.7546771E-02  0.9399238E-01
        -11   -1    0    0    0    0  0.00000000000E+00  0.00000000000E+00  0.50000000000E+03  0.50000000000E+03  0.00000000000E+00 0.  1.
         11   -1    0    0    0    0 -0.00000000000E+00 -0.00000000000E+00 -0.50000000000E+03  0.50000000000E+03  0.00000000000E+00 0. -1.
        -11    1    1    2    0    0  0.15010538125E+02  0.51456438977E+01  0.49949232507E+03  0.49974431133E+03  0.00000000000E+00 0.  1.
         11    1    1    2    0    0 -0.88234262763E+01 -0.76584209643E+01 -0.12900198310E+03  0.12952998072E+03  0.00000000000E+00 0. -1.
        -15    1    1    2    0    0 -0.36416424622E+01 -0.24442916662E+01 -0.28324651955E+03  0.28328604747E+03  0.17770000000E+01 0. -1.
         15    1    1    2    0    0 -0.25454693870E+01  0.49570687328E+01 -0.87243822423E+02  0.87439660480E+02  0.17770000000E+01 0.  1.
</event>
<event>
 6    1  0.6564965E-004  0.5008692E+03  0.7546771E-02  0.9397867E-01
        -11   -1    0    0    0    0  0.00000000000E+00  0.00000000000E+00  0.50000000000E+03  0.50000000000E+03  0.00000000000E+00 0.  1.
         11   -1    0    0    0    0 -0.00000000000E+00 -0.00000000000E+00 -0.50000000000E+03  0.50000000000E+03  0.00000000000E+00 0. -1.
        -11    1    1    2    0    0  0.20734439717E+01 -0.31736648164E+02  0.19366391897E+03  0.19625806357E+03  0.00000000000E+00 0.  1.
         11    1    1    2    0    0 -0.15205824551E+01  0.30037951748E+02 -0.49822381723E+03  0.49913080728E+03  0.00000000000E+00 0. -1.
        -15    1    1    2    0    0  0.16806714371E+01  0.85112643873E+00  0.15437525896E+03  0.15439697983E+03  0.17770000000E+01 0. -1.
         15    1    1    2    0    0 -0.22335329537E+01  0.84756997783E+00  0.15018463931E+03  0.15021414932E+03  0.17770000000E+01 0.  1.
</event>
<event>
 6    1  0.6564965E-004  0.5063632E+03  0.7546771E-02  0.9385683E-01
        -11   -1    0    0    0    0  0.00000000000E+00  0.00000000000E+00  0.50000000000E+03  0.50000000000E+03  0.00000000000E+00 0.  1.
         11   -1    0    0    0    0 -0.00000000000E+00 -0.00000000000E+00 -0.50000000000E+03  0.50000000000E+03  0.00000000000E+00 0.  1.
        -11    1    1    2    0    0  0.54102206891E+01 -0.16148586905E+02  0.46455859782E+03  0.46487066820E+03  0.00000000000E+00 0.  1.
         11    1    1    2    0    0  0.28889925430E+01 -0.11302186571E+02 -0.49349895562E+03  0.49363681477E+03  0.00000000000E+00 0.  1.
        -15    1    1    2    0    0 -0.63008420462E+01  0.22084583356E+02  0.26242644839E+02  0.34917954832E+02  0.17770000000E+01 0. -1.
         15    1    1    2    0    0 -0.19983711860E+01  0.53661901192E+01  0.26977129647E+01  0.65745621932E+01  0.17770000000E+01 0.  1.
</event>
<event>
 6    1  0.6564965E-004  0.5001928E+03  0.7546771E-02  0.9399378E-01
        -11   -1    0    0    0    0  0.00000000000E+00  0.00000000000E+00  0.50000000000E+03  0.50000000000E+03  0.00000000000E+00 0.  1.
         11   -1    0    0    0    0 -0.00000000000E+00 -0.00000000000E+00 -0.50000000000E+03  0.50000000000E+03  0.00000000000E+00 0. -1.
        -11    1    1    2    0    0 -0.16706048525E+02 -0.28168844696E+01  0.49952001013E+03  0.49980723025E+03  0.00000000000E+00 0.  1.
         11    1    1    2    0    0  0.17533436460E+01 -0.29120786633E+01 -0.20996316327E+03  0.20999067681E+03  0.00000000000E+00 0. -1.
        -15    1    1    2    0    0  0.94771288517E+00 -0.89690968004E+00 -0.11570516702E+02  0.11778675326E+02  0.17770000000E+01 0. -1.
         15    1    1    2    0    0  0.14004991993E+02  0.66258728130E+01 -0.27798633015E+03  0.27842341761E+03  0.17770000000E+01 0. -1.
</event>
<event>
 6    1  0.6564965E-004  0.5024174E+03  0.7546771E-02  0.9394417E-01
        -11   -1    0    0    0    0  0.00000000000E+00  0.00000000000E+00  0.50000000000E+03  0.50000000000E+03  0.00000000000E+00 0. -1.
         11   -1    0    0    0    0 -0.00000000000E+00 -0.00000000000E+00 -0.50000000000E+03  0.50000000000E+03  0.00000000000E+00 0.  1.
        -11    1    1    2    0    0 -0.11450219448E+02 -0.47563414028E+01  0.49742809321E+03  0.49758259438E+03  0.00000000000E+00 0. -1.
         11    1    1    2    0    0 -0.95786631386E+01  0.46116984473E+01 -0.45035662592E+03  0.45048208517E+03  0.00000000000E+00 0.  1.
        -15    1    1    2    0    0  0.36156627667E+01  0.13983724813E+01 -0.11631557048E+02  0.12388676733E+02  0.17770000000E+01 0. -1.
         15    1    1    2    0    0  0.17413219820E+02 -0.12537295258E+01 -0.35439910247E+02  0.39546643720E+02  0.17770000000E+01 0.  1.
</event>
<event>
 6    1  0.6564965E-004  0.5156567E+03  0.7546771E-02  0.9365442E-01
        -11   -1    0    0    0    0  0.00000000000E+00  0.00000000000E+00  0.50000000000E+03  0.50000000000E+03  0.00000000000E+00 0. -1.
         11   -1    0    0    0    0 -0.00000000000E+00 -0.00000000000E+00 -0.50000000000E+03  0.50000000000E+03  0.00000000000E+00 0.  1.
        -11    1    1    2    0    0  0.30918059420E+02 -0.53863677119E+02  0.48034487176E+03  0.48434328522E+03  0.00000000000E+00 0. -1.
         11    1    1    2    0    0  0.95239102637E+01 -0.28587937966E+01 -0.42759947503E+03  0.42771507877E+03  0.00000000000E+00 0.  1.
        -15    1    1    2    0    0 -0.35197050336E+01  0.25380889459E+01 -0.46670230411E+01  0.66158183233E+01  0.17770000000E+01 0.  1.
         15    1    1    2    0    0 -0.36922264650E+02  0.54184381969E+02 -0.48078373691E+02  0.81325817685E+02  0.17770000000E+01 0. -1.
</event>
<event>
 6    1  0.6564965E-004  0.5182243E+03  0.7546771E-02  0.9359930E-01
        -11   -1    0    0    0    0  0.00000000000E+00  0.00000000000E+00  0.50000000000E+03  0.50000000000E+03  0.00000000000E+00 0. -1.
         11   -1    0    0    0    0 -0.00000000000E+00 -0.00000000000E+00 -0.50000000000E+03  0.50000000000E+03  0.00000000000E+00 0.  1.
        -11    1    1    2    0    0 -0.18921448417E+02 -0.31661617517E+02  0.38221035211E+03  0.38398597955E+03  0.00000000000E+00 0. -1.
         11    1    1    2    0    0 -0.21305076814E+02 -0.89519952953E+01 -0.48122116344E+03  0.48177572859E+03  0.00000000000E+00 0.  1.
        -15    1    1    2    0    0  0.40571682617E+02  0.35287024587E+02  0.10968702731E+03  0.12217052519E+03  0.17770000000E+01 0.  1.
         15    1    1    2    0    0 -0.34515738527E+00  0.53265882248E+01 -0.10676215978E+02  0.12067766668E+02  0.17770000000E+01 0. -1.
</event>
<event>
 6    1  0.6564965E-004  0.5060715E+03  0.7546771E-02  0.9386326E-01
        -11   -1    0    0    0    0  0.00000000000E+00  0.00000000000E+00  0.50000000000E+03  0.50000000000E+03  0.00000000000E+00 0.  1.
         11   -1    0    0    0    0 -0.00000000000E+00 -0.00000000000E+00 -0.50000000000E+03  0.50000000000E+03  0.00000000000E+00 0. -1.
        -11    1    1    2    0    0 -0.42948953992E+00 -0.20377722274E+02  0.46122071635E+03  0.46167086243E+03  0.00000000000E+00 0.  1.
         11    1    1    2    0    0 -0.91710229789E+01  0.57536659969E+00 -0.49384297759E+03  0.49392846165E+03  0.00000000000E+00 0. -1.
        -15    1    1    2    0    0  0.15968358174E+02  0.13889526997E+02  0.22433830240E+02  0.30892424496E+02  0.17770000000E+01 0.  1.
         15    1    1    2    0    0 -0.63678456556E+01  0.59128286767E+01  0.10188431001E+02  0.13508251423E+02  0.17770000000E+01 0. -1.
</event>
<event>
 6    1  0.6564965E-004  0.5017812E+03  0.7546771E-02  0.9395833E-01
        -11   -1    0    0    0    0  0.00000000000E+00  0.00000000000E+00  0.50000000000E+03  0.50000000000E+03  0.00000000000E+00 0. -1.
         11   -1    0    0    0    0 -0.00000000000E+00 -0.00000000000E+00 -0.50000000000E+03  0.50000000000E+03  0.00000000000E+00 0.  1.
        -11    1    1    2    0    0  0.58001629790E+01  0.11431031817E+02  0.45696979354E+03  0.45714954073E+03  0.00000000000E+00 0. -1.
         11    1    1    2    0    0 -0.47172998799E+01  0.48744031571E+01 -0.49817257827E+03  0.49821875764E+03  0.00000000000E+00 0.  1.
        -15    1    1    2    0    0 -0.19107930172E+01 -0.95099457491E+01  0.20378719911E+02  0.22639349644E+02  0.17770000000E+01 0. -1.
         15    1    1    2    0    0  0.82792991817E+00 -0.67954892247E+01  0.20824064810E+02  0.21992351988E+02  0.17770000000E+01 0.  1.
</event>
<event>
 6    1  0.6564965E-004  0.5002048E+03  0.7546771E-02  0.9399351E-01
        -11   -1    0    0    0    0  0.00000000000E+00  0.00000000000E+00  0.50000000000E+03  0.50000000000E+03  0.00000000000E+00 0.  1.
         11   -1    0    0    0    0 -0.00000000000E+00 -0.00000000000E+00 -0.50000000000E+03  0.50000000000E+03  0.00000000000E+00 0.  1.
        -11    1    1    2    0    0  0.16879779398E+02 -0.10152128474E+02  0.49940685436E+03  0.49979515689E+03  0.00000000000E+00 0.  1.
         11    1    1    2    0    0 -0.43186253781E+01  0.20917816235E+01 -0.28148042326E+03  0.28152132203E+03  0.00000000000E+00 0.  1.
        -15    1    1    2    0    0 -0.86393470571E+01  0.63828260091E+01 -0.87427507137E+02  0.88102812206E+02  0.17770000000E+01 0. -1.
         15    1    1    2    0    0 -0.39218069631E+01  0.16775208418E+01 -0.13049892396E+03  0.13058070888E+03  0.17770000000E+01 0.  1.
</event>
<event>
 6    1  0.6564965E-004  0.5017910E+03  0.7546771E-02  0.9395811E-01
        -11   -1    0    0    0    0  0.00000000000E+00  0.00000000000E+00  0.50000000000E+03  0.50000000000E+03  0.00000000000E+00 0. -1.
         11   -1    0    0    0    0 -0.00000000000E+00 -0.00000000000E+00 -0.50000000000E+03  0.50000000000E+03  0.00000000000E+00 0. -1.
        -11    1    1    2    0    0 -0.15196277992E+02  0.23745112773E+02  0.49741078272E+03  0.49820903646E+03  0.00000000000E+00 0. -1.
         11    1    1    2    0    0 -0.37004529331E+01  0.52327584267E+01 -0.32476960595E+03  0.32483283711E+03  0.00000000000E+00 0. -1.
        -15    1    1    2    0    0  0.15497639385E+01 -0.26679729137E+01 -0.56261958055E+02  0.56374511092E+02  0.17770000000E+01 0.  1.
         15    1    1    2    0    0  0.17346966986E+02 -0.26309898286E+02 -0.11637921871E+03  0.12058361534E+03  0.17770000000E+01 0.  1.
</event>
<event>
 6    1  0.6564965E-004  0.5040099E+03  0.7546771E-02  0.9390882E-01
        -11   -1    0    0    0    0  0.00000000000E+00  0.00000000000E+00  0.50000000000E+03  0.50000000000E+03  0.00000000000E+00 0.  1.
         11   -1    0    0    0    0 -0.00000000000E+00 -0.00000000000E+00 -0.50000000000E+03  0.50000000000E+03  0.00000000000E+00 0.  1.
        -11    1    1    2    0    0  0.76087333170E+00 -0.15063949236E+02  0.49576071672E+03  0.49599011053E+03  0.00000000000E+00 0.  1.
         11    1    1    2    0    0  0.12988282523E+01 -0.63736320867E+01 -0.43469486586E+03  0.43474352962E+03  0.00000000000E+00 0.  1.
        -15    1    1    2    0    0 -0.29054365195E+01  0.12514053854E+02 -0.76140859626E+01  0.15039120296E+02  0.17770000000E+01 0. -1.
         15    1    1    2    0    0  0.84573493548E+00  0.89235274680E+01 -0.53451764905E+02  0.54227239562E+02  0.17770000000E+01 0.  1.
</event>
<event>
 6    1  0.6564965E-004  0.5003639E+03  0.7546771E-02  0.9398996E-01
        -11   -1    0    0    0    0  0.00000000000E+00  0.00000000000E+00  0.50000000000E+03  0.50000000000E+03  0.00000000000E+00 0.  1.
         11   -1    0    0    0    0 -0.00000000000E+00 -0.00000000000E+00 -0.50000000000E+03  0.50000000000E+03  0.00000000000E+00 0.  1.
        -11    1    1    2    0    0  0.10978844853E+02  0.42825591130E+01  0.43634311846E+03  0.43650222494E+03  0.00000000000E+00 0.  1.
         11    1    1    2    0    0 -0.44331939805E+01 -0.86810372793E+01 -0.49954098112E+03  0.49963607299E+03  0.00000000000E+00 0.  1.
        -15    1    1    2    0    0 -0.15092227302E+01  0.26763986825E+01  0.26728720488E+02  0.26963365722E+02  0.17770000000E+01 0.  1.
         15    1    1    2    0    0 -0.50364281427E+01  0.17220794838E+01  0.36469142167E+02  0.36898336353E+02  0.17770000000E+01 0. -1.
</event>
<event>
 6    1  0.6564965E-004  0.5038673E+03  0.7546771E-02  0.9391198E-01
        -11   -1    0    0    0    0  0.00000000000E+00  0.00000000000E+00  0.50000000000E+03  0.50000000000E+03  0.00000000000E+00 0. -1.
         11   -1    0    0    0    0 -0.00000000000E+00 -0.00000000000E+00 -0.50000000000E+03  0.50000000000E+03  0.00000000000E+00 0. -1.
        -11    1    1    2    0    0  0.36393101966E+01  0.15494669184E+02  0.48674842059E+03  0.48700857723E+03  0.00000000000E+00 0. -1.
         11    1    1    2    0    0 -0.22036223598E+01 -0.78051813985E+01 -0.49606638561E+03  0.49613267957E+03  0.00000000000E+00 0. -1.
        -15    1    1    2    0    0  0.14937533119E+00 -0.54721346797E+01 -0.11739556805E+01  0.58738804791E+01  0.17770000000E+01 0.  1.
         15    1    1    2    0    0 -0.15850631680E+01 -0.22173531055E+01  0.10491920696E+02  0.10984862718E+02  0.17770000000E+01 0.  1.
</event>
<event>
 6    1  0.6564965E-004  0.5004885E+03  0.7546771E-02  0.9398717E-01
        -11   -1    0    0    0    0  0.00000000000E+00  0.00000000000E+00  0.50000000000E+03  0.50000000000E+03  0.00000000000E+00 0.  1.
         11   -1    0    0    0    0 -0.00000000000E+00 -0.00000000000E+00 -0.50000000000E+03  0.50000000000E+03  0.00000000000E+00 0. -1.
        -11    1    1    2    0    0 -0.37534547561E+01  0.17382670442E+02  0.29373047472E+03  0.29426830858E+03  0.00000000000E+00 0.  1.
         11    1    1    2    0    0  0.31024150958E+01 -0.60762721388E+01 -0.49946487787E+03  0.49951147163E+03  0.00000000000E+00 0. -1.
        -15    1    1    2    0    0 -0.32061501046E+01 -0.44886691097E+01  0.65457641177E+02  0.65713682489E+02  0.17770000000E+01 0. -1.
         15    1    1    2    0    0  0.38571897649E+01 -0.68177291935E+01  0.14027676197E+03  0.14050653730E+03  0.17770000000E+01 0.  1.
</event>
<event>
 6    1  0.6564965E-004  0.5006654E+03  0.7546771E-02  0.9398322E-01
        -11   -1    0    0    0    0  0.00000000000E+00  0.00000000000E+00  0.50000000000E+03  0.50000000000E+03  0.00000000000E+00 0. -1.
         11   -1    0    0    0    0 -0.00000000000E+00 -0.00000000000E+00 -0.50000000000E+03  0.50000000000E+03  0.00000000000E+00 0. -1.
        -11    1    1    2    0    0  0.87691148224E+01  0.48877172114E+01  0.49923371665E+03  0.49933464830E+03  0.00000000000E+00 0. -1.
         11    1    1    2    0    0 -0.95896304837E+00  0.88347699931E+01 -0.29536190306E+03  0.29549556097E+03  0.00000000000E+00 0. -1.
        -15    1    1    2    0    0 -0.45401176223E+01  0.27534859698E+01 -0.33730314489E+02  0.34191902514E+02  0.17770000000E+01 0.  1.
         15    1    1    2    0    0 -0.32700341518E+01 -0.16475973174E+02 -0.17014149910E+03  0.17097788822E+03  0.17770000000E+01 0. -1.
</event>
<event>
 6    1  0.6564965E-004  0.4954860E+03  0.7546771E-02  0.9409967E-01
        -11   -1    0    0    0    0  0.00000000000E+00  0.00000000000E+00  0.50000000000E+03  0.50000000000E+03  0.00000000000E+00 0. -1.
         11   -1    0    0    0    0 -0.00000000000E+00 -0.00000000000E+00 -0.50000000000E+03  0.50000000000E+03  0.00000000000E+00 0.  1.
        -11    1    1    2    0    0  0.18448302658E+01  0.97341267614E+01  0.49085122270E+01  0.11056677385E+02  0.00000000000E+00 0. -1.
         11    1    1    2    0    0 -0.13629402767E+02  0.98050237361E+01 -0.49546835828E+03  0.49575275406E+03  0.00000000000E+00 0.  1.
        -15    1    1    2    0    0  0.16622374822E+02  0.13122807520E+01  0.39009931839E+03  0.39045955151E+03  0.17770000000E+01 0. -1.
         15    1    1    2    0    0 -0.48378023207E+01 -0.20851431249E+02  0.10046052766E+03  0.10273101704E+03  0.17770000000E+01 0.  1.
</event>
<event>
 6    1  0.6564965E-004  0.3684194E+03  0.7546771E-02  0.9754608E-01
        -11   -1    0    0    0    0  0.00000000000E+00  0.00000000000E+00  0.50000000000E+03  0.50000000000E+03  0.00000000000E+00 0.  1.
         11   -1    0    0    0    0 -0.00000000000E+00 -0.00000000000E+00 -0.50000000000E+03  0.50000000000E+03  0.00000000000E+00 0.  1.
        -11    1    1    2    0    0  0.87753991902E+02  0.45384477860E+02  0.44738351528E+03  0.45816211506E+03  0.00000000000E+00 0.  1.
         11    1    1    2    0    0  0.50254821735E+02  0.46696130745E+02 -0.30311312711E+03  0.31077909126E+03  0.00000000000E+00 0.  1.
        -15    1    1    2    0    0 -0.26677305516E+02 -0.37192467911E+02 -0.76098442856E+01  0.46433024433E+02  0.17770000000E+01 0. -1.
         15    1    1    2    0    0 -0.11133150812E+03 -0.54888140694E+02 -0.13666054389E+03  0.18462576926E+03  0.17770000000E+01 0.  1.
</event>
<event>
 6    1  0.6564965E-004  0.5056602E+03  0.7546771E-02  0.9387233E-01
        -11   -1    0    0    0    0  0.00000000000E+00  0.00000000000E+00  0.50000000000E+03  0.50000000000E+03  0.00000000000E+00 0. -1.
         11   -1    0    0    0    0 -0.00000000000E+00 -0.00000000000E+00 -0.50000000000E+03  0.50000000000E+03  0.00000000000E+00 0.  1.
        -11    1    1    2    0    0 -0.71500970687E+01  0.75340920055E+01  0.48411414445E+03  0.48422555828E+03  0.00000000000E+00 0. -1.
         11    1    1    2    0    0  0.45274974497E+01  0.51076654972E+01 -0.49429264860E+03  0.49433977075E+03  0.00000000000E+00 0.  1.
        -15    1    1    2    0    0 -0.37417854940E+01 -0.43393171302E+01  0.89195011999E+01  0.10749226135E+02  0.17770000000E+01 0. -1.
         15    1    1    2    0    0  0.63643851131E+01 -0.83024403725E+01  0.12590029509E+01  0.10685444840E+02  0.17770000000E+01 0.  1.
</event>
<event>
 6    1  0.6564965E-004  0.5062208E+03  0.7546771E-02  0.9385997E-01
        -11   -1    0    0    0    0  0.00000000000E+00  0.00000000000E+00  0.50000000000E+03  0.50000000000E+03  0.00000000000E+00 0. -1.
         11   -1    0    0    0    0 -0.00000000000E+00 -0.00000000000E+00 -0.50000000000E+03  0.50000000000E+03  0.00000000000E+00 0. -1.
        -11    1    1    2    0    0  0.19435465954E+02 -0.71529380564E+01  0.47322240534E+03  0.47367536011E+03  0.00000000000E+00 0. -1.
         11    1    1    2    0    0 -0.77865928547E+01 -0.40310600344E+01 -0.49370139198E+03  0.49377924715E+03  0.00000000000E+00 0. -1.
        -15    1    1    2    0    0  0.14471370515E+01  0.97469584670E+01  0.15285595500E+02  0.18273055678E+02  0.17770000000E+01 0. -1.
         15    1    1    2    0    0 -0.13096010151E+02  0.14370396238E+01  0.51933911340E+01  0.14272337062E+02  0.17770000000E+01 0.  1.
</event>
<event>
 6    1  0.6564965E-004  0.5001636E+03  0.7546771E-02  0.9399444E-01
        -11   -1    0    0    0    0  0.00000000000E+00  0.00000000000E+00  0.50000000000E+03  0.50000000000E+03  0.00000000000E+00 0.  1.
         11   -1    0    0    0    0 -0.00000000000E+00 -0.00000000000E+00 -0.50000000000E+03  0.50000000000E+03  0.00000000000E+00 0.  1.
        -11    1    1    2    0    0 -0.10342364829E+02  0.10156294544E+02  0.25882632196E+03  0.25923190345E+03  0.00000000000E+00 0.  1.
         11    1    1    2    0    0  0.63172791746E+01 -0.11164268201E+02 -0.49967180423E+03  0.49983643409E+03  0.00000000000E+00 0.  1.
        -15    1    1    2    0    0  0.13769527706E+01  0.11619206764E+01  0.54380931283E+02  0.54439778423E+02  0.17770000000E+01 0.  1.
         15    1    1    2    0    0  0.26481328840E+01 -0.15394701905E+00  0.18646455099E+03  0.18649188404E+03  0.17770000000E+01 0.  1.
</event>
<event>
 6    1  0.6564965E-004  0.5000350E+03  0.7546771E-02  0.9399731E-01
        -11   -1    0    0    0    0  0.00000000000E+00  0.00000000000E+00  0.50000000000E+03  0.50000000000E+03  0.00000000000E+00 0.  1.
         11   -1    0    0    0    0 -0.00000000000E+00 -0.00000000000E+00 -0.50000000000E+03  0.50000000000E+03  0.00000000000E+00 0.  1.
        -11    1    1    2    0    0  0.51812073156E+00  0.42058659121E+01  0.15681306111E+03  0.15687030914E+03  0.00000000000E+00 0.  1.
         11    1    1    2    0    0 -0.55577470630E+01 -0.46995770945E+01 -0.49991199576E+03  0.49996497686E+03  0.00000000000E+00 0.  1.
        -15    1    1    2    0    0  0.83333711363E+00  0.53581382432E+00  0.13766897810E+03  0.13768401072E+03  0.17770000000E+01 0. -1.
         15    1    1    2    0    0  0.42062892178E+01 -0.42102641951E-01  0.20542995656E+03  0.20548070328E+03  0.17770000000E+01 0.  1.
</event>
<event>
 6    1  0.6564965E-004  0.5003704E+03  0.7546771E-02  0.9398981E-01
        -11   -1    0    0    0    0  0.00000000000E+00  0.00000000000E+00  0.50000000000E+03  0.50000000000E+03  0.00000000000E+00 0.  1.
         11   -1    0    0    0    0 -0.00000000000E+00 -0.00000000000E+00 -0.50000000000E+03  0.50000000000E+03  0.00000000000E+00 0. -1.
        -11    1    1    2    0    0 -0.54092334674E+01  0.66838390602E+00  0.25919009164E+03  0.25924739179E+03  0.00000000000E+00 0.  1.
         11    1    1    2    0    0 -0.23254566525E+01  0.11014614665E+02 -0.49950276650E+03  0.49962960604E+03  0.00000000000E+00 0. -1.
        -15    1    1    2    0    0  0.73207860118E+01 -0.82750927044E+01  0.22659263939E+03  0.22686880134E+03  0.17770000000E+01 0.  1.
         15    1    1    2    0    0  0.41390410813E+00 -0.34079058666E+01  0.13720035474E+02  0.14254200834E+02  0.17770000000E+01 0. -1.
</event>
<event>
 6    1  0.6564965E-004  0.4993963E+03  0.7546771E-02  0.9401161E-01
        -11   -1    0    0    0    0  0.00000000000E+00  0.00000000000E+00  0.50000000000E+03  0.50000000000E+03  0.00000000000E+00 0. -1.
         11   -1    0    0    0    0 -0.00000000000E+00 -0.00000000000E+00 -0.50000000000E+03  0.50000000000E+03  0.00000000000E+00 0. -1.
        -11    1    1    2    0    0 -0.10369955328E+01 -0.54195594450E+00  0.46860576081E+00  0.12604234764E+01  0.00000000000E+00 0. -1.
         11    1    1    2    0    0  0.11903081210E+02  0.12047128521E+00 -0.49944697759E+03  0.49958881221E+03  0.00000000000E+00 0. -1.
        -15    1    1    2    0    0 -0.88657548567E+01  0.27323672942E+01  0.39276142289E+03  0.39287499345E+03  0.17770000000E+01 0. -1.
         15    1    1    2    0    0 -0.20003308206E+01 -0.23108826349E+01  0.10621694894E+03  0.10627577087E+03  0.17770000000E+01 0. -1.
</event>
<event>
 6    1  0.6564965E-004  0.4904925E+03  0.7546771E-02  0.9421338E-01
        -11   -1    0    0    0    0  0.00000000000E+00  0.00000000000E+00  0.50000000000E+03  0.50000000000E+03  0.00000000000E+00 0.  1.
         11   -1    0    0    0    0 -0.00000000000E+00 -0.00000000000E+00 -0.50000000000E+03  0.50000000000E+03  0.00000000000E+00 0. -1.
        -11    1    1    2    0    0 -0.50367552942E+01  0.10029924054E+02  0.48958159023E+03  0.48971022224E+03  0.00000000000E+00 0.  1.
         11    1    1    2    0    0  0.60545994416E+01  0.47654708711E+01 -0.49132806943E+03  0.49138848144E+03  0.00000000000E+00 0. -1.
        -15    1    1    2    0    0 -0.19200280909E+01  0.91081641775E-01 -0.21469806931E+01  0.33855662498E+01  0.17770000000E+01 0. -1.
         15    1    1    2    0    0  0.90218394348E+00 -0.14886476567E+02  0.38934598941E+01  0.15515730063E+02  0.17770000000E+01 0.  1.
</event>
<event>
 6    1  0.6564965E-004  0.5033577E+03  0.7546771E-02  0.9392328E-01
        -11   -1    0    0    0    0  0.00000000000E+00  0.00000000000E+00  0.50000000000E+03  0.50000000000E+03  0.00000000000E+00 0.  1.
         11   -1    0    0    0    0 -0.00000000000E+00 -0.00000000000E+00 -0.50000000000E+03  0.50000000000E+03  0.00000000000E+00 0. -1.
        -11    1    1    2    0    0  0.14236232984E+02 -0.26881064796E+02  0.34316439706E+03  0.34450989156E+03  0.00000000000E+00 0.  1.
         11    1    1    2    0    0  0.53614810078E+01 -0.52176531651E+01 -0.49658590127E+03  0.49664225225E+03  0.00000000000E+00 0. -1.
        -15    1    1    2    0    0 -0.15373630096E+02  0.28567445663E+02  0.14522654217E+03  0.14881651028E+03  0.17770000000E+01 0.  1.
         15    1    1    2    0    0 -0.42240838951E+01  0.35312722977E+01  0.81949620410E+01  0.10031345904E+02  0.17770000000E+01 0. -1.
</event>
<event>
 6    1  0.6564965E-004  0.5028852E+03  0.7546771E-02  0.9393377E-01
        -11   -1    0    0    0    0  0.00000000000E+00  0.00000000000E+00  0.50000000000E+03  0.50000000000E+03  0.00000000000E+00 0. -1.
         11   -1    0    0    0    0 -0.00000000000E+00 -0.00000000000E+00 -0.50000000000E+03  0.50000000000E+03  0.00000000000E+00 0. -1.
        -11    1    1    2    0    0 -0.14750930350E+02  0.18860676622E+02  0.49653782913E+03  0.49711480649E+03  0.00000000000E+00 0. -1.
         11    1    1    2    0    0 -0.60770286405E+01 -0.10725570652E+02 -0.43720045799E+03  0.43737422033E+03  0.00000000000E+00 0. -1.
        -15    1    1    2    0    0  0.15204943444E+02 -0.59869794701E+01 -0.21024688126E+02  0.26687627623E+02  0.17770000000E+01 0. -1.
         15    1    1    2    0    0  0.56230155464E+01 -0.21481264999E+01 -0.38312683015E+02  0.38823345555E+02  0.17770000000E+01 0.  1.
</event>
<event>
 6    1  0.6564965E-004  0.5021329E+03  0.7546771E-02  0.9395050E-01
        -11   -1    0    0    0    0  0.00000000000E+00  0.00000000000E+00  0.50000000000E+03  0.50000000000E+03  0.00000000000E+00 0. -1.
         11   -1    0    0    0    0 -0.00000000000E+00 -0.00000000000E+00 -0.50000000000E+03  0.50000000000E+03  0.00000000000E+00 0. -1.
        -11    1    1    2    0    0 -0.15890397961E+02  0.14194187488E+01  0.49761143236E+03  0.49786710788E+03  0.00000000000E+00 0. -1.
         11    1    1    2    0    0  0.11512671614E+02 -0.91241369422E+01 -0.46582130528E+03  0.46605287247E+03  0.00000000000E+00 0. -1.
        -15    1    1    2    0    0  0.56712316244E+01  0.24825238189E+01 -0.29106728526E+02  0.29810822987E+02  0.17770000000E+01 0. -1.
         15    1    1    2    0    0 -0.12935052776E+01  0.52221943745E+01 -0.26833985515E+01  0.62691966610E+01  0.17770000000E+01 0.  1.
</event>
<event>
 6    1  0.6564965E-004  0.4916014E+03  0.7546771E-02  0.9418801E-01
        -11   -1    0    0    0    0  0.00000000000E+00  0.00000000000E+00  0.50000000000E+03  0.50000000000E+03  0.00000000000E+00 0.  1.
         11   -1    0    0    0    0 -0.00000000000E+00 -0.00000000000E+00 -0.50000000000E+03  0.50000000000E+03  0.00000000000E+00 0. -1.
        -11    1    1    2    0    0  0.13461889730E+01 -0.78072092503E+01  0.48864902751E+03  0.48871324601E+03  0.00000000000E+00 0.  1.
         11    1    1    2    0    0  0.89395976314E+01  0.37417207382E+01 -0.49447397759E+03  0.49456893493E+03  0.00000000000E+00 0. -1.
        -15    1    1    2    0    0 -0.44268805170E+01  0.72315505645E+01  0.42409351483E+01  0.96455095568E+01  0.17770000000E+01 0. -1.
         15    1    1    2    0    0 -0.58589060875E+01 -0.31660620524E+01  0.15840149373E+01  0.70723095084E+01  0.17770000000E+01 0.  1.
</event>
<event>
 6    1  0.6564965E-004  0.5019911E+03  0.7546771E-02  0.9395365E-01
        -11   -1    0    0    0    0  0.00000000000E+00  0.00000000000E+00  0.50000000000E+03  0.50000000000E+03  0.00000000000E+00 0.  1.
         11   -1    0    0    0    0 -0.00000000000E+00 -0.00000000000E+00 -0.50000000000E+03  0.50000000000E+03  0.00000000000E+00 0. -1.
        -11    1    1    2    0    0  0.17687889325E+02  0.98829934299E+01  0.40682385169E+03  0.40732810030E+03  0.00000000000E+00 0.  1.
         11    1    1    2    0    0  0.61140712501E+01 -0.35853667935E+01 -0.49795846194E+03  0.49800890207E+03  0.00000000000E+00 0. -1.
        -15    1    1    2    0    0 -0.25551541959E+01  0.63022392860E+00  0.10451495494E+02  0.10923254196E+02  0.17770000000E+01 0. -1.
         15    1    1    2    0    0 -0.21246806379E+02 -0.69278505650E+01  0.80683114758E+02  0.83739743437E+02  0.17770000000E+01 0.  1.
</event>
<event>
 6    1  0.6564965E-004  0.5043866E+03  0.7546771E-02  0.9390048E-01
        -11   -1    0    0    0    0  0.00000000000E+00  0.00000000000E+00  0.50000000000E+03  0.50000000000E+03  0.00000000000E+00 0.  1.
         11   -1    0    0    0    0 -0.00000000000E+00 -0.00000000000E+00 -0.50000000000E+03  0.50000000000E+03  0.00000000000E+00 0. -1.
        -11    1    1    2    0    0  0.17277277992E+01  0.40152948133E+02  0.49398120780E+03  0.49561343600E+03  0.00000000000E+00 0.  1.
         11    1    1    2    0    0 -0.23087926986E+02 -0.23953365336E+02 -0.44179799108E+03  0.44304884720E+03  0.00000000000E+00 0. -1.
        -15    1    1    2    0    0  0.18451042590E+02 -0.10479072656E+02 -0.22749360910E+02  0.31159959679E+02  0.17770000000E+01 0.  1.
         15    1    1    2    0    0  0.29091565973E+01 -0.57205101416E+01 -0.29433855805E+02  0.30177757122E+02  0.17770000000E+01 0. -1.
</event>
<event>
 6    1  0.6564965E-004  0.4674076E+03  0.7546771E-02  0.9475844E-01
        -11   -1    0    0    0    0  0.00000000000E+00  0.00000000000E+00  0.50000000000E+03  0.50000000000E+03  0.00000000000E+00 0. -1.
         11   -1    0    0    0    0 -0.00000000000E+00 -0.00000000000E+00 -0.50000000000E+03  0.50000000000E+03  0.00000000000E+00 0. -1.
        -11    1    1    2    0    0 -0.16680390264E+02  0.73517809169E+01  0.46697613863E+03  0.46733178594E+03  0.00000000000E+00 0. -1.
         11    1    1    2    0    0 -0.91771891528E+01 -0.71166370077E+00 -0.46777437222E+03  0.46786492770E+03  0.00000000000E+00 0. -1.
        -15    1    1    2    0    0  0.13894259991E+02 -0.47566521587E+01  0.29830020485E+02  0.33296607208E+02  0.17770000000E+01 0. -1.
         15    1    1    2    0    0  0.11963319426E+02 -0.18834650575E+01 -0.29031786887E+02  0.31506679152E+02  0.17770000000E+01 0.  1.
</event>
<event>
 6    1  0.6564965E-004  0.5027830E+03  0.7546771E-02  0.9393604E-01
        -11   -1    0    0    0    0  0.00000000000E+00  0.00000000000E+00  0.50000000000E+03  0.50000000000E+03  0.00000000000E+00 0. -1.
         11   -1    0    0    0    0 -0.00000000000E+00 -0.00000000000E+00 -0.50000000000E+03  0.50000000000E+03  0.00000000000E+00 0.  1.
        -11    1    1    2    0    0 -0.87143778664E+01  0.91982009277E+01  0.38865199041E+03  0.38885847931E+03  0.00000000000E+00 0. -1.
         11    1    1    2    0    0  0.90470213037E+01 -0.10700776584E+02 -0.49701948912E+03  0.49721698260E+03  0.00000000000E+00 0.  1.
        -15    1    1    2    0    0 -0.11046013538E+02 -0.63908656428E+01  0.91323847091E+02  0.92228305607E+02  0.17770000000E+01 0. -1.
         15    1    1    2    0    0  0.10713370101E+02  0.78934412992E+01  0.17043651624E+02  0.21696232487E+02  0.17770000000E+01 0.  1.
</event>
<event>
 6    1  0.6564965E-004  0.5043301E+03  0.7546771E-02  0.9390173E-01
        -11   -1    0    0    0    0  0.00000000000E+00  0.00000000000E+00  0.50000000000E+03  0.50000000000E+03  0.00000000000E+00 0. -1.
         11   -1    0    0    0    0 -0.00000000000E+00 -0.00000000000E+00 -0.50000000000E+03  0.50000000000E+03  0.00000000000E+00 0.  1.
        -11    1    1    2    0    0  0.86158204456E+01 -0.30949085593E+02  0.40310307481E+03  0.40438121517E+03  0.00000000000E+00 0. -1.
         11    1    1    2    0    0 -0.13321306525E+02 -0.55369713470E+00 -0.49549051708E+03  0.49566986625E+03  0.00000000000E+00 0.  1.
        -15    1    1    2    0    0 -0.20606500475E+00  0.48126568300E+00 -0.46688988498E+00  0.19104435633E+01  0.17770000000E+01 0.  1.
         15    1    1    2    0    0  0.49115510842E+01  0.31021517044E+02  0.92854332156E+02  0.98038475013E+02  0.17770000000E+01 0. -1.
</event>
<event>
 6    1  0.6564965E-004  0.4850098E+03  0.7546771E-02  0.9433991E-01
        -11   -1    0    0    0    0  0.00000000000E+00  0.00000000000E+00  0.50000000000E+03  0.50000000000E+03  0.00000000000E+00 0.  1.
         11   -1    0    0    0    0 -0.00000000000E+00 -0.00000000000E+00 -0.50000000000E+03  0.50000000000E+03  0.00000000000E+00 0. -1.
        -11    1    1    2    0    0  0.16538574381E+02 -0.68515717310E+01  0.48670806819E+03  0.48703717735E+03  0.00000000000E+00 0.  1.
         11    1    1    2    0    0  0.60633097521E+01 -0.10715319288E+02 -0.48325397688E+03  0.48341078594E+03  0.00000000000E+00 0. -1.
        -15    1    1    2    0    0 -0.18357521421E+02  0.11615590419E+02 -0.19772729313E+01  0.21885791526E+02  0.17770000000E+01 0. -1.
         15    1    1    2    0    0 -0.42443627124E+01  0.59513006008E+01 -0.14768183754E+01  0.76662451819E+01  0.17770000000E+01 0.  1.
</event>
<event>
 6    1  0.6564965E-004  0.5015311E+03  0.7546771E-02  0.9396390E-01
        -11   -1    0    0    0    0  0.00000000000E+00  0.00000000000E+00  0.50000000000E+03  0.50000000000E+03  0.00000000000E+00 0.  1.
         11   -1    0    0    0    0 -0.00000000000E+00 -0.00000000000E+00 -0.50000000000E+03  0.50000000000E+03  0.00000000000E+00 0.  1.
        -11    1    1    2    0    0 -0.21723527028E+01  0.11180321019E+02  0.49833879070E+03  0.49846892482E+03  0.00000000000E+00 0.  1.
         11    1    1    2    0    0  0.96689153801E+00  0.14709043492E+02 -0.34799393396E+03  0.34830599896E+03  0.00000000000E+00 0.  1.
        -15    1    1    2    0    0  0.36921449598E+01 -0.78540541706E+00 -0.26261311966E+02  0.26590656842E+02  0.17770000000E+01 0. -1.
         15    1    1    2    0    0 -0.24866837950E+01 -0.25103959094E+02 -0.12408354477E+03  0.12663441938E+03  0.17770000000E+01 0.  1.
</event>
<event>
 6    1  0.6564965E-004  0.5015070E+03  0.7546771E-02  0.9396444E-01
        -11   -1    0    0    0    0  0.00000000000E+00  0.00000000000E+00  0.50000000000E+03  0.50000000000E+03  0.00000000000E+00 0.  1.
         11   -1    0    0    0    0 -0.00000000000E+00 -0.00000000000E+00 -0.50000000000E+03  0.50000000000E+03  0.00000000000E+00 0. -1.
        -11    1    1    2    0    0  0.22148220685E+02  0.10996190338E+02  0.49787928667E+03  0.49849297285E+03  0.00000000000E+00 0.  1.
         11    1    1    2    0    0  0.18217025758E+01  0.75118460332E+01 -0.31888340448E+03  0.31897707141E+03  0.00000000000E+00 0. -1.
        -15    1    1    2    0    0 -0.12117683678E+02 -0.75889025089E+01 -0.13264746479E+03  0.13342764835E+03  0.17770000000E+01 0.  1.
         15    1    1    2    0    0 -0.11852239583E+02 -0.10919133862E+02 -0.46348417398E+02  0.49102307397E+02  0.17770000000E+01 0. -1.
</event>
<event>
 6    1  0.6564965E-004  0.5006755E+03  0.7546771E-02  0.9398299E-01
        -11   -1    0    0    0    0  0.00000000000E+00  0.00000000000E+00  0.50000000000E+03  0.50000000000E+03  0.00000000000E+00 0.  1.
         11   -1    0    0    0    0 -0.00000000000E+00 -0.00000000000E+00 -0.50000000000E+03  0.50000000000E+03  0.00000000000E+00 0.  1.
        -11    1    1    2    0    0 -0.38297648169E+02 -0.34824344655E+02  0.49663417630E+03  0.49932449359E+03  0.00000000000E+00 0.  1.
         11    1    1    2    0    0  0.10279368020E+02  0.15801075679E+02 -0.25374292733E+03  0.25444215958E+03  0.00000000000E+00 0.  1.
        -15    1    1    2    0    0  0.74235981721E+01 -0.21822219522E+01 -0.22461843705E+02  0.23823602878E+02  0.17770000000E+01 0.  1.
         15    1    1    2    0    0  0.20594681977E+02  0.21205490929E+02 -0.22042940526E+03  0.22240974395E+03  0.17770000000E+01 0. -1.
</event>
<event>
 6    1  0.6564965E-004  0.5004257E+03  0.7546771E-02  0.9398858E-01
        -11   -1    0    0    0    0  0.00000000000E+00  0.00000000000E+00  0.50000000000E+03  0.50000000000E+03  0.00000000000E+00 0.  1.
         11   -1    0    0    0    0 -0.00000000000E+00 -0.00000000000E+00 -0.50000000000E+03  0.50000000000E+03  0.00000000000E+00 0.  1.
        -11    1    1    2    0    0 -0.59996187451E+01  0.67191217531E+01  0.49949313178E+03  0.49957434954E+03  0.00000000000E+00 0.  1.
         11    1    1    2    0    0  0.80369122474E+01 -0.11703736619E+01 -0.30828090210E+03  0.30838786671E+03  0.00000000000E+00 0.  1.
        -15    1    1    2    0    0  0.55991551825E+01 -0.76704818099E+01 -0.10198754915E+03  0.10244415425E+03  0.17770000000E+01 0. -1.
         15    1    1    2    0    0 -0.76364486847E+01  0.21217337187E+01 -0.89224680526E+02  0.89593629497E+02  0.17770000000E+01 0.  1.
</event>
<event>
 6    1  0.6564965E-004  0.5016599E+03  0.7546771E-02  0.9396103E-01
        -11   -1    0    0    0    0  0.00000000000E+00  0.00000000000E+00  0.50000000000E+03  0.50000000000E+03  0.00000000000E+00 0.  1.
         11   -1    0    0    0    0 -0.00000000000E+00 -0.00000000000E+00 -0.50000000000E+03  0.50000000000E+03  0.00000000000E+00 0.  1.
        -11    1    1    2    0    0  0.73412376313E+01  0.83214908954E+01  0.49821651863E+03  0.49834008509E+03  0.00000000000E+00 0.  1.
         11    1    1    2    0    0 -0.62149895962E+01  0.39781473710E+01 -0.44372614616E+03  0.44378749930E+03  0.00000000000E+00 0.  1.
        -15    1    1    2    0    0  0.49129035652E+01 -0.54388470665E+01 -0.39590471057E+02  0.40302367255E+02  0.17770000000E+01 0.  1.
         15    1    1    2    0    0 -0.60391516004E+01 -0.68607911998E+01 -0.14899901407E+02  0.17570048346E+02  0.17770000000E+01 0. -1.
</event>
<event>
 6    1  0.6564965E-004  0.5001363E+03  0.7546771E-02  0.9399505E-01
        -11   -1    0    0    0    0  0.00000000000E+00  0.00000000000E+00  0.50000000000E+03  0.50000000000E+03  0.00000000000E+00 0.  1.
         11   -1    0    0    0    0 -0.00000000000E+00 -0.00000000000E+00 -0.50000000000E+03  0.50000000000E+03  0.00000000000E+00 0. -1.
        -11    1    1    2    0    0 -0.13259901664E+01  0.95391243196E+01  0.15843533408E+03  0.15872778026E+03  0.00000000000E+00 0.  1.
         11    1    1    2    0    0  0.14950189874E+01 -0.11577873217E+02 -0.49972731886E+03  0.49986365685E+03  0.00000000000E+00 0. -1.
        -15    1    1    2    0    0 -0.33357665279E+01 -0.72395760231E+00  0.21447966656E+03  0.21451418729E+03  0.17770000000E+01 0.  1.
         15    1    1    2    0    0  0.31667377069E+01  0.27627064995E+01  0.12681231822E+03  0.12689437559E+03  0.17770000000E+01 0. -1.
</event>
<event>
 6    1  0.6564965E-004  0.5025336E+03  0.7546771E-02  0.9394158E-01
        -11   -1    0    0    0    0  0.00000000000E+00  0.00000000000E+00  0.50000000000E+03  0.50000000000E+03  0.00000000000E+00 0.  1.
         11   -1    0    0    0    0 -0.00000000000E+00 -0.00000000000E+00 -0.50000000000E+03  0.50000000000E+03  0.00000000000E+00 0. -1.
        -11    1    1    2    0    0  0.82270360455E+01  0.14806043548E+02  0.38101549195E+03  0.38139180399E+03  0.00000000000E+00 0.  1.
         11    1    1    2    0    0 -0.43583514541E+01  0.61615644524E+01 -0.49740919391E+03  0.49746644740E+03  0.00000000000E+00 0. -1.
        -15    1    1    2    0    0  0.38017355825E+01  0.33138587489E+01  0.45104074307E+02  0.45419930662E+02  0.17770000000E+01 0.  1.
         15    1    1    2    0    0 -0.76704201738E+01 -0.24281466750E+02  0.71289627653E+02  0.75721817946E+02  0.17770000000E+01 0. -1.
</event>
<event>
 6    1  0.6564965E-004  0.5002783E+03  0.7546771E-02  0.9399187E-01
        -11   -1    0    0    0    0  0.00000000000E+00  0.00000000000E+00  0.50000000000E+03  0.50000000000E+03  0.00000000000E+00 0.  1.
         11   -1    0    0    0    0 -0.00000000000E+00 -0.00000000000E+00 -0.50000000000E+03  0.50000000000E+03  0.00000000000E+00 0. -1.
        -11    1    1    2    0    0  0.17306538600E+02 -0.56041259908E+01  0.49939047822E+03  0.49972169479E+03  0.00000000000E+00 0.  1.
         11    1    1    2    0    0  0.36464407238E+01 -0.15945209283E+01 -0.18669225415E+03  0.18673466948E+03  0.00000000000E+00 0. -1.
        -15    1    1    2    0    0 -0.67524426510E+01  0.13628911591E-01 -0.90103073190E+02  0.90373210603E+02  0.17770000000E+01 0.  1.
         15    1    1    2    0    0 -0.14200536673E+02  0.71850180075E+01 -0.22259515088E+03  0.22317042512E+03  0.17770000000E+01 0. -1.
</event>
<event>
 6    1  0.6564965E-004  0.4875829E+03  0.7546771E-02  0.9428031E-01
        -11   -1    0    0    0    0  0.00000000000E+00  0.00000000000E+00  0.50000000000E+03  0.50000000000E+03  0.00000000000E+00 0. -1.
         11   -1    0    0    0    0 -0.00000000000E+00 -0.00000000000E+00 -0.50000000000E+03  0.50000000000E+03  0.00000000000E+00 0.  1.
        -11    1    1    2    0    0  0.15749100349E+02 -0.52531179485E+01  0.48779517605E+03  0.48807762004E+03  0.00000000000E+00 0. -1.
         11    1    1    2    0    0 -0.22769309105E+01  0.69191576923E+01 -0.48712851793E+03  0.48718297604E+03  0.00000000000E+00 0.  1.
        -15    1    1    2    0    0  0.19665576385E+01 -0.40267625042E+01 -0.63956425278E+01  0.80090035307E+01  0.17770000000E+01 0. -1.
         15    1    1    2    0    0 -0.15438727077E+02  0.23607227603E+01  0.57289844131E+01  0.16730400387E+02  0.17770000000E+01 0.  1.
</event>
<event>
 6    1  0.6564965E-004  0.5026472E+03  0.7546771E-02  0.9393906E-01
        -11   -1    0    0    0    0  0.00000000000E+00  0.00000000000E+00  0.50000000000E+03  0.50000000000E+03  0.00000000000E+00 0. -1.
         11   -1    0    0    0    0 -0.00000000000E+00 -0.00000000000E+00 -0.50000000000E+03  0.50000000000E+03  0.00000000000E+00 0.  1.
        -11    1    1    2    0    0  0.99938052801E+01 -0.66517545350E+01  0.49720788454E+03  0.49735279474E+03  0.00000000000E+00 0. -1.
         11    1    1    2    0    0 -0.50774214118E+01  0.66446791838E+01 -0.48717355119E+03  0.48724531906E+03  0.00000000000E+00 0.  1.
        -15    1    1    2    0    0 -0.37419567492E+01 -0.13901420650E+01  0.65044305115E+00  0.44176396907E+01  0.17770000000E+01 0. -1.
         15    1    1    2    0    0 -0.11744271191E+01  0.13972174162E+01 -0.10684776408E+02  0.10984246513E+02  0.17770000000E+01 0.  1.
</event>
<event>
 6    1  0.6564965E-004  0.5032949E+03  0.7546771E-02  0.9392467E-01
        -11   -1    0    0    0    0  0.00000000000E+00  0.00000000000E+00  0.50000000000E+03  0.50000000000E+03  0.00000000000E+00 0. -1.
         11   -1    0    0    0    0 -0.00000000000E+00 -0.00000000000E+00 -0.50000000000E+03  0.50000000000E+03  0.00000000000E+00 0. -1.
        -11    1    1    2    0    0  0.66583416597E+01  0.13270855051E+02  0.47241889163E+03  0.47265215358E+03  0.00000000000E+00 0. -1.
         11    1    1    2    0    0  0.50632091064E+01 -0.45140291985E+01 -0.49665874529E+03  0.49670506522E+03  0.00000000000E+00 0. -1.
        -15    1    1    2    0    0 -0.51638148422E+01 -0.31004856648E+01  0.18128477766E+01  0.65362176480E+01  0.17770000000E+01 0.  1.
         15    1    1    2    0    0 -0.65577359239E+01 -0.56563401877E+01  0.22427005878E+02  0.24106563555E+02  0.17770000000E+01 0. -1.
</event>
<event>
 6    1  0.6564965E-004  0.5070609E+03  0.7546771E-02  0.9384148E-01
        -11   -1    0    0    0    0  0.00000000000E+00  0.00000000000E+00  0.50000000000E+03  0.50000000000E+03  0.00000000000E+00 0.  1.
         11   -1    0    0    0    0 -0.00000000000E+00 -0.00000000000E+00 -0.50000000000E+03  0.50000000000E+03  0.00000000000E+00 0.  1.
        -11    1    1    2    0    0 -0.69759489934E+01 -0.12134562001E+02  0.49274038892E+03  0.49293914668E+03  0.00000000000E+00 0.  1.
         11    1    1    2    0    0 -0.10060141061E+02  0.16168226395E+02 -0.45729241665E+03  0.45768872862E+03  0.00000000000E+00 0.  1.
        -15    1    1    2    0    0  0.21811893321E+02 -0.17624413622E+01 -0.37478048469E+02  0.43435316689E+02  0.17770000000E+01 0. -1.
         15    1    1    2    0    0 -0.47758032672E+01 -0.22712230321E+01  0.20300761978E+01  0.59368080041E+01  0.17770000000E+01 0.  1.
</event>
<event>
 6    1  0.6564965E-004  0.5008599E+03  0.7546771E-02  0.9397888E-01
        -11   -1    0    0    0    0  0.00000000000E+00  0.00000000000E+00  0.50000000000E+03  0.50000000000E+03  0.00000000000E+00 0. -1.
         11   -1    0    0    0    0 -0.00000000000E+00 -0.00000000000E+00 -0.50000000000E+03  0.50000000000E+03  0.00000000000E+00 0.  1.
        -11    1    1    2    0    0  0.77446456551E+01 -0.10086192503E+00  0.49908001154E+03  0.49914010822E+03  0.00000000000E+00 0. -1.
         11    1    1    2    0    0 -0.20740471881E+01 -0.12850687645E+02 -0.41937327929E+03  0.41957524859E+03  0.00000000000E+00 0.  1.
        -15    1    1    2    0    0 -0.39547879957E+01  0.21522386962E+01 -0.22419653740E+02  0.22936239499E+02  0.17770000000E+01 0.  1.
         15    1    1    2    0    0 -0.17158104713E+01  0.10799310874E+02 -0.57287078511E+02  0.58348403699E+02  0.17770000000E+01 0. -1.
</event>
<event>
 6    1  0.6564965E-004  0.5082252E+03  0.7546771E-02  0.9381591E-01
        -11   -1    0    0    0    0  0.00000000000E+00  0.00000000000E+00  0.50000000000E+03  0.50000000000E+03  0.00000000000E+00 0. -1.
         11   -1    0    0    0    0 -0.00000000000E+00 -0.00000000000E+00 -0.50000000000E+03  0.50000000000E+03  0.00000000000E+00 0.  1.
        -11    1    1    2    0    0  0.44920307593E+01  0.36568554035E+02  0.49039273793E+03  0.49177482133E+03  0.00000000000E+00 0. -1.
         11    1    1    2    0    0  0.44640655240E+01 -0.53239445954E+01 -0.44640711486E+03  0.44646117912E+03  0.00000000000E+00 0.  1.
        -15    1    1    2    0    0 -0.96944471921E+01 -0.32033469099E+02 -0.22936509913E+02  0.40612395458E+02  0.17770000000E+01 0.  1.
         15    1    1    2    0    0  0.73835090876E+00  0.78885965872E+00 -0.21049113159E+02  0.21151604086E+02  0.17770000000E+01 0. -1.
</event>
<event>
 6    1  0.6564965E-004  0.5006339E+03  0.7546771E-02  0.9398392E-01
        -11   -1    0    0    0    0  0.00000000000E+00  0.00000000000E+00  0.50000000000E+03  0.50000000000E+03  0.00000000000E+00 0.  1.
         11   -1    0    0    0    0 -0.00000000000E+00 -0.00000000000E+00 -0.50000000000E+03  0.50000000000E+03  0.00000000000E+00 0. -1.
        -11    1    1    2    0    0 -0.95256316351E+01  0.56324529020E+01  0.36466490037E+03  0.36483277230E+03  0.00000000000E+00 0.  1.
         11    1    1    2    0    0  0.90115889189E+01  0.11046170195E+02 -0.49916258463E+03  0.49936611069E+03  0.00000000000E+00 0. -1.
        -15    1    1    2    0    0 -0.11994060618E+01 -0.75617457826E+01  0.35806533274E+02  0.36659025195E+02  0.17770000000E+01 0. -1.
         15    1    1    2    0    0  0.17134487780E+01 -0.91168773147E+01  0.98691150979E+02  0.99142091814E+02  0.17770000000E+01 0.  1.
</event>
<event>
 6    1  0.6564965E-004  0.5001106E+03  0.7546771E-02  0.9399562E-01
        -11   -1    0    0    0    0  0.00000000000E+00  0.00000000000E+00  0.50000000000E+03  0.50000000000E+03  0.00000000000E+00 0.  1.
         11   -1    0    0    0    0 -0.00000000000E+00 -0.00000000000E+00 -0.50000000000E+03  0.50000000000E+03  0.00000000000E+00 0.  1.
        -11    1    1    2    0    0  0.17554281784E+02  0.84281188490E+01  0.49950997328E+03  0.49988938717E+03  0.00000000000E+00 0.  1.
         11    1    1    2    0    0 -0.83286020429E+01 -0.45483482191E+01 -0.14532720890E+03  0.14563670805E+03  0.00000000000E+00 0.  1.
        -15    1    1    2    0    0 -0.27030632351E+01  0.95381431350E+00 -0.30750505421E+02  0.30934893329E+02  0.17770000000E+01 0. -1.
         15    1    1    2    0    0 -0.65226165058E+01 -0.48335849434E+01 -0.32343225896E+03  0.32353901146E+03  0.17770000000E+01 0.  1.
</event>
<event>
 6    1  0.6564965E-004  0.5003510E+03  0.7546771E-02  0.9399025E-01
        -11   -1    0    0    0    0  0.00000000000E+00  0.00000000000E+00  0.50000000000E+03  0.50000000000E+03  0.00000000000E+00 0.  1.
         11   -1    0    0    0    0 -0.00000000000E+00 -0.00000000000E+00 -0.50000000000E+03  0.50000000000E+03  0.00000000000E+00 0.  1.
        -11    1    1    2    0    0  0.11713963612E+01 -0.15467539202E+02  0.49940817336E+03  0.49964901737E+03  0.00000000000E+00 0.  1.
         11    1    1    2    0    0  0.31152842849E+01 -0.24150347906E+01 -0.27425969331E+03  0.27428801790E+03  0.00000000000E+00 0.  1.
        -15    1    1    2    0    0 -0.32763675341E+01  0.12998299490E+02 -0.19374032302E+03  0.19421163937E+03  0.17770000000E+01 0.  1.
         15    1    1    2    0    0 -0.10103131120E+01  0.48842745032E+01 -0.31408157034E+02  0.31851325362E+02  0.17770000000E+01 0. -1.
</event>
<event>
 6    1  0.6564965E-004  0.5003794E+03  0.7546771E-02  0.9398961E-01
        -11   -1    0    0    0    0  0.00000000000E+00  0.00000000000E+00  0.50000000000E+03  0.50000000000E+03  0.00000000000E+00 0. -1.
         11   -1    0    0    0    0 -0.00000000000E+00 -0.00000000000E+00 -0.50000000000E+03  0.50000000000E+03  0.00000000000E+00 0. -1.
        -11    1    1    2    0    0 -0.22650663461E+01 -0.61722371079E+01  0.75147464873E+02  0.75434531305E+02  0.00000000000E+00 0. -1.
         11    1    1    2    0    0 -0.73852558557E+01 -0.25000147086E+01 -0.49955972007E+03  0.49962056202E+03  0.00000000000E+00 0. -1.
        -15    1    1    2    0    0  0.19494668088E+01  0.40839179347E+01  0.27432689864E+02  0.27860168856E+02  0.17770000000E+01 0. -1.
         15    1    1    2    0    0  0.77008553930E+01  0.45883338818E+01  0.39697956534E+03  0.39708473781E+03  0.17770000000E+01 0. -1.
</event>
<event>
 6    1  0.6564965E-004  0.4795047E+03  0.7546771E-02  0.9446875E-01
        -11   -1    0    0    0    0  0.00000000000E+00  0.00000000000E+00  0.50000000000E+03  0.50000000000E+03  0.00000000000E+00 0. -1.
         11   -1    0    0    0    0 -0.00000000000E+00 -0.00000000000E+00 -0.50000000000E+03  0.50000000000E+03  0.00000000000E+00 0.  1.
        -11    1    1    2    0    0  0.44216505352E+01  0.24437306621E+02  0.48015545486E+03  0.48079724810E+03  0.00000000000E+00 0. -1.
         11    1    1    2    0    0  0.93898255195E+01 -0.15969589001E+01 -0.47849015823E+03  0.47858494609E+03  0.00000000000E+00 0.  1.
        -15    1    1    2    0    0  0.89893077981E+01 -0.11714123048E+02  0.16760591726E+01  0.14966470420E+02  0.17770000000E+01 0. -1.
         15    1    1    2    0    0 -0.22800783853E+02 -0.11126224673E+02 -0.33413557954E+01  0.25651335391E+02  0.17770000000E+01 0.  1.
</event>
<event>
 6    1  0.6564965E-004  0.5066139E+03  0.7546771E-02  0.9385131E-01
        -11   -1    0    0    0    0  0.00000000000E+00  0.00000000000E+00  0.50000000000E+03  0.50000000000E+03  0.00000000000E+00 0.  1.
         11   -1    0    0    0    0 -0.00000000000E+00 -0.00000000000E+00 -0.50000000000E+03  0.50000000000E+03  0.00000000000E+00 0.  1.
        -11    1    1    2    0    0 -0.15311806461E+02  0.37149714795E+01  0.48131385724E+03  0.48157167857E+03  0.00000000000E+00 0.  1.
         11    1    1    2    0    0  0.64345946480E+00  0.70280938096E+01 -0.49333565528E+03  0.49338613368E+03  0.00000000000E+00 0.  1.
        -15    1    1    2    0    0  0.80881152763E+01  0.93701054375E+00  0.58176796028E+01  0.10163597908E+02  0.17770000000E+01 0.  1.
         15    1    1    2    0    0  0.65802317199E+01 -0.11680075833E+02  0.62041184361E+01  0.14878589836E+02  0.17770000000E+01 0. -1.
</event>
<event>
 6    1  0.6564965E-004  0.5010778E+03  0.7546771E-02  0.9397401E-01
        -11   -1    0    0    0    0  0.00000000000E+00  0.00000000000E+00  0.50000000000E+03  0.50000000000E+03  0.00000000000E+00 0. -1.
         11   -1    0    0    0    0 -0.00000000000E+00 -0.00000000000E+00 -0.50000000000E+03  0.50000000000E+03  0.00000000000E+00 0.  1.
        -11    1    1    2    0    0 -0.58408982302E+01 -0.13125839966E+02  0.21741693603E+03  0.21789109169E+03  0.00000000000E+00 0. -1.
         11    1    1    2    0    0 -0.18772314626E+02 -0.89880671655E+01 -0.49848786597E+03  0.49892217596E+03  0.00000000000E+00 0.  1.
        -15    1    1    2    0    0  0.17775253165E+02  0.10136922931E+02  0.17836921525E+03  0.17954790868E+03  0.17770000000E+01 0. -1.
         15    1    1    2    0    0  0.68379596909E+01  0.11976984201E+02  0.10270171469E+03  0.10363882367E+03  0.17770000000E+01 0. -1.
</event>
<event>
 6    1  0.6564965E-004  0.5010845E+03  0.7546771E-02  0.9397386E-01
        -11   -1    0    0    0    0  0.00000000000E+00  0.00000000000E+00  0.50000000000E+03  0.50000000000E+03  0.00000000000E+00 0.  1.
         11   -1    0    0    0    0 -0.00000000000E+00 -0.00000000000E+00 -0.50000000000E+03  0.50000000000E+03  0.00000000000E+00 0. -1.
        -11    1    1    2    0    0  0.17205085101E+02 -0.24349091237E+01  0.77754652662E+02  0.79672641141E+02  0.00000000000E+00 0.  1.
         11    1    1    2    0    0 -0.54332856438E+01  0.80392164713E+01 -0.49882112705E+03  0.49891549022E+03  0.00000000000E+00 0. -1.
        -15    1    1    2    0    0 -0.51470893573E+01 -0.28677202646E+01  0.70633962277E+02  0.70901556431E+02  0.17770000000E+01 0. -1.
         15    1    1    2    0    0 -0.66247100998E+01 -0.27365870830E+01  0.35043251211E+03  0.35051031221E+03  0.17770000000E+01 0.  1.
</event>
<event>
 6    1  0.6564965E-004  0.5059322E+03  0.7546771E-02  0.9386633E-01
        -11   -1    0    0    0    0  0.00000000000E+00  0.00000000000E+00  0.50000000000E+03  0.50000000000E+03  0.00000000000E+00 0.  1.
         11   -1    0    0    0    0 -0.00000000000E+00 -0.00000000000E+00 -0.50000000000E+03  0.50000000000E+03  0.00000000000E+00 0. -1.
        -11    1    1    2    0    0 -0.23686757929E+02  0.11365843453E+02  0.30987162231E+03  0.31098338736E+03  0.00000000000E+00 0.  1.
         11    1    1    2    0    0  0.76779598316E+01  0.20998298763E+02 -0.49356170375E+03  0.49406784456E+03  0.00000000000E+00 0. -1.
        -15    1    1    2    0    0  0.35275169640E+02 -0.28897425864E+02  0.12818796913E+03  0.13606877663E+03  0.17770000000E+01 0. -1.
         15    1    1    2    0    0 -0.19266371543E+02 -0.34667163517E+01  0.55502112306E+02  0.58879991459E+02  0.17770000000E+01 0.  1.
</event>
<event>
 6    1  0.6564965E-004  0.5083787E+03  0.7546771E-02  0.9381254E-01
        -11   -1    0    0    0    0  0.00000000000E+00  0.00000000000E+00  0.50000000000E+03  0.50000000000E+03  0.00000000000E+00 0. -1.
         11   -1    0    0    0    0 -0.00000000000E+00 -0.00000000000E+00 -0.50000000000E+03  0.50000000000E+03  0.00000000000E+00 0.  1.
        -11    1    1    2    0    0  0.22405205066E+01  0.22648644353E+02  0.49109417271E+03  0.49162126428E+03  0.00000000000E+00 0. -1.
         11    1    1    2    0    0  0.64180640722E+01  0.31028650952E+01 -0.47382302920E+03  0.47387665307E+03  0.00000000000E+00 0.  1.
        -15    1    1    2    0    0 -0.42228946926E+01 -0.58499285996E+01 -0.10659008503E+02  0.12993332732E+02  0.17770000000E+01 0.  1.
         15    1    1    2    0    0 -0.44356898861E+01 -0.19901580849E+02 -0.66121349992E+01  0.21508749924E+02  0.17770000000E+01 0. -1.
</event>
<event>
 6    1  0.6564965E-004  0.4893721E+03  0.7546771E-02  0.9423910E-01
        -11   -1    0    0    0    0  0.00000000000E+00  0.00000000000E+00  0.50000000000E+03  0.50000000000E+03  0.00000000000E+00 0. -1.
         11   -1    0    0    0    0 -0.00000000000E+00 -0.00000000000E+00 -0.50000000000E+03  0.50000000000E+03  0.00000000000E+00 0.  1.
        -11    1    1    2    0    0 -0.79857590579E+01  0.12894442034E+02  0.48637572670E+03  0.48661215204E+03  0.00000000000E+00 0. -1.
         11    1    1    2    0    0  0.60459366854E+01  0.32647534968E+01 -0.49223696223E+03  0.49228491643E+03  0.00000000000E+00 0.  1.
        -15    1    1    2    0    0 -0.24763934676E+01  0.15379959285E+00 -0.20629686066E+00  0.30588341433E+01  0.17770000000E+01 0. -1.
         15    1    1    2    0    0  0.44162158401E+01 -0.16312995124E+02  0.60675323846E+01  0.18044097387E+02  0.17770000000E+01 0.  1.
</event>
<event>
 6    1  0.6564965E-004  0.4669961E+03  0.7546771E-02  0.9476846E-01
        -11   -1    0    0    0    0  0.00000000000E+00  0.00000000000E+00  0.50000000000E+03  0.50000000000E+03  0.00000000000E+00 0. -1.
         11   -1    0    0    0    0 -0.00000000000E+00 -0.00000000000E+00 -0.50000000000E+03  0.50000000000E+03  0.00000000000E+00 0.  1.
        -11    1    1    2    0    0  0.31612611936E+02  0.27140076614E+02  0.45170435536E+03  0.45362183109E+03  0.00000000000E+00 0. -1.
         11    1    1    2    0    0  0.41866190688E+01  0.91881217045E+01 -0.48215151854E+03  0.48225723032E+03  0.00000000000E+00 0.  1.
        -15    1    1    2    0    0 -0.80626039760E+01  0.25215190053E+01  0.54311833416E+01  0.10198976540E+02  0.17770000000E+01 0. -1.
         15    1    1    2    0    0 -0.27736627029E+02 -0.38849717324E+02  0.25015979841E+02  0.53921962051E+02  0.17770000000E+01 0.  1.
</event>
<event>
 6    1  0.6564965E-004  0.5074855E+03  0.7546771E-02  0.9383214E-01
        -11   -1    0    0    0    0  0.00000000000E+00  0.00000000000E+00  0.50000000000E+03  0.50000000000E+03  0.00000000000E+00 0. -1.
         11   -1    0    0    0    0 -0.00000000000E+00 -0.00000000000E+00 -0.50000000000E+03  0.50000000000E+03  0.00000000000E+00 0. -1.
        -11    1    1    2    0    0  0.41529169566E+02 -0.84791073765E+01  0.49068721854E+03  0.49251448062E+03  0.00000000000E+00 0. -1.
         11    1    1    2    0    0 -0.19072256522E+02 -0.91184161057E+01 -0.46329082900E+03  0.46377288484E+03  0.00000000000E+00 0. -1.
        -15    1    1    2    0    0 -0.60615778105E+01 -0.17703518171E+00  0.97279492242E+00  0.63936003918E+01  0.17770000000E+01 0. -1.
         15    1    1    2    0    0 -0.16395335233E+02  0.17774558664E+02 -0.28369184464E+02  0.37319034141E+02  0.17770000000E+01 0.  1.
</event>
<event>
 6    1  0.6564965E-004  0.5054225E+03  0.7546771E-02  0.9387758E-01
        -11   -1    0    0    0    0  0.00000000000E+00  0.00000000000E+00  0.50000000000E+03  0.50000000000E+03  0.00000000000E+00 0. -1.
         11   -1    0    0    0    0 -0.00000000000E+00 -0.00000000000E+00 -0.50000000000E+03  0.50000000000E+03  0.00000000000E+00 0.  1.
        -11    1    1    2    0    0 -0.20425436532E+02 -0.13160703062E+02  0.49398026771E+03  0.49457750399E+03  0.00000000000E+00 0. -1.
         11    1    1    2    0    0 -0.31915774182E+01 -0.60776518153E+01 -0.45053290329E+03  0.45058519834E+03  0.00000000000E+00 0.  1.
        -15    1    1    2    0    0  0.23949292757E+02  0.16083070171E+02 -0.41861196890E+02  0.50869944995E+02  0.17770000000E+01 0.  1.
         15    1    1    2    0    0 -0.33227880684E+00  0.31552847067E+01 -0.15861675349E+01  0.39673526733E+01  0.17770000000E+01 0. -1.
</event>
<event>
 6    1  0.6564965E-004  0.5111369E+03  0.7546771E-02  0.9375229E-01
        -11   -1    0    0    0    0  0.00000000000E+00  0.00000000000E+00  0.50000000000E+03  0.50000000000E+03  0.00000000000E+00 0. -1.
         11   -1    0    0    0    0 -0.00000000000E+00 -0.00000000000E+00 -0.50000000000E+03  0.50000000000E+03  0.00000000000E+00 0. -1.
        -11    1    1    2    0    0 -0.11694478000E+02  0.13659877717E+02  0.43750590511E+02  0.47301873588E+02  0.00000000000E+00 0. -1.
         11    1    1    2    0    0  0.39420498257E+01  0.56138251133E+01 -0.48881495406E+03  0.48886308319E+03  0.00000000000E+00 0. -1.
        -15    1    1    2    0    0 -0.14947401057E+02  0.98098709809E+01  0.41715070635E+03  0.41753745689E+03  0.17770000000E+01 0. -1.
         15    1    1    2    0    0  0.22699829231E+02 -0.29083573811E+02  0.27913657201E+02  0.46297586331E+02  0.17770000000E+01 0.  1.
</event>
<event>
 6    1  0.6564965E-004  0.5009849E+03  0.7546771E-02  0.9397609E-01
        -11   -1    0    0    0    0  0.00000000000E+00  0.00000000000E+00  0.50000000000E+03  0.50000000000E+03  0.00000000000E+00 0.  1.
         11   -1    0    0    0    0 -0.00000000000E+00 -0.00000000000E+00 -0.50000000000E+03  0.50000000000E+03  0.00000000000E+00 0. -1.
        -11    1    1    2    0    0 -0.10072546100E+02 -0.71176561464E+01  0.35406713271E+03  0.35428188167E+03  0.00000000000E+00 0.  1.
         11    1    1    2    0    0 -0.62210315086E+01 -0.54123013388E+01 -0.49894694456E+03  0.49901507765E+03  0.00000000000E+00 0. -1.
        -15    1    1    2    0    0  0.91112883331E+01  0.11041785896E+02  0.71815508730E+02  0.73249994089E+02  0.17770000000E+01 0.  1.
         15    1    1    2    0    0  0.71822892756E+01  0.14881715892E+01  0.73064303122E+02  0.73453046592E+02  0.17770000000E+01 0. -1.
</event>
<event>
 6    1  0.6564965E-004  0.5008132E+03  0.7546771E-02  0.9397992E-01
        -11   -1    0    0    0    0  0.00000000000E+00  0.00000000000E+00  0.50000000000E+03  0.50000000000E+03  0.00000000000E+00 0.  1.
         11   -1    0    0    0    0 -0.00000000000E+00 -0.00000000000E+00 -0.50000000000E+03  0.50000000000E+03  0.00000000000E+00 0.  1.
        -11    1    1    2    0    0  0.49816337330E+01 -0.13740967198E+00  0.75496831229E+01  0.90461744027E+01  0.00000000000E+00 0.  1.
         11    1    1    2    0    0  0.11520557065E+01 -0.76163620747E+01 -0.49912740585E+03  0.49918684225E+03  0.00000000000E+00 0.  1.
        -15    1    1    2    0    0 -0.10506973315E+01 -0.10254870964E+01  0.36487109775E+02  0.36559848159E+02  0.17770000000E+01 0.  1.
         15    1    1    2    0    0 -0.50829921079E+01  0.87792588431E+01  0.45509061296E+03  0.45520713519E+03  0.17770000000E+01 0.  1.
</event>
<event>
 6    1  0.6564965E-004  0.5019061E+03  0.7546771E-02  0.9395555E-01
        -11   -1    0    0    0    0  0.00000000000E+00  0.00000000000E+00  0.50000000000E+03  0.50000000000E+03  0.00000000000E+00 0. -1.
         11   -1    0    0    0    0 -0.00000000000E+00 -0.00000000000E+00 -0.50000000000E+03  0.50000000000E+03  0.00000000000E+00 0.  1.
        -11    1    1    2    0    0 -0.15569487761E+02 -0.55836978916E+01  0.49781915618E+03  0.49809386554E+03  0.00000000000E+00 0. -1.
         11    1    1    2    0    0 -0.67150621153E+01 -0.10459185983E+02 -0.36399273079E+03  0.36420488012E+03  0.00000000000E+00 0.  1.
        -15    1    1    2    0    0  0.13497564843E+02  0.15392600280E+02 -0.11521256027E+03  0.11703080011E+03  0.17770000000E+01 0.  1.
         15    1    1    2    0    0  0.87869850332E+01  0.65028359377E+00 -0.18613865115E+02  0.20670454234E+02  0.17770000000E+01 0. -1.
</event>
<event>
 6    1  0.6564965E-004  0.5019117E+03  0.7546771E-02  0.9395542E-01
        -11   -1    0    0    0    0  0.00000000000E+00  0.00000000000E+00  0.50000000000E+03  0.50000000000E+03  0.00000000000E+00 0.  1.
         11   -1    0    0    0    0 -0.00000000000E+00 -0.00000000000E+00 -0.50000000000E+03  0.50000000000E+03  0.00000000000E+00 0. -1.
        -11    1    1    2    0    0 -0.37620824117E+01  0.10475929741E+02  0.49796389415E+03  0.49808828359E+03  0.00000000000E+00 0.  1.
         11    1    1    2    0    0  0.53145686082E+00  0.99500890797E+01 -0.43489690379E+03  0.43501103853E+03  0.00000000000E+00 0. -1.
        -15    1    1    2    0    0  0.12267626689E+01 -0.16558274867E+02 -0.55789805054E+02  0.58235225510E+02  0.17770000000E+01 0. -1.
         15    1    1    2    0    0  0.20038628820E+01 -0.38677439539E+01 -0.72771853129E+01  0.86654523725E+01  0.17770000000E+01 0.  1.
</event>
<event>
 6    1  0.6564965E-004  0.5009652E+03  0.7546771E-02  0.9397653E-01
        -11   -1    0    0    0    0  0.00000000000E+00  0.00000000000E+00  0.50000000000E+03  0.50000000000E+03  0.00000000000E+00 0.  1.
         11   -1    0    0    0    0 -0.00000000000E+00 -0.00000000000E+00 -0.50000000000E+03  0.50000000000E+03  0.00000000000E+00 0.  1.
        -11    1    1    2    0    0  0.14716316861E+02  0.91229858035E+01  0.32595246656E+03  0.32641202384E+03  0.00000000000E+00 0.  1.
         11    1    1    2    0    0 -0.77439239918E+01  0.12185163861E+02 -0.49882595326E+03  0.49903484671E+03  0.00000000000E+00 0.  1.
        -15    1    1    2    0    0  0.16938014065E+01 -0.39982824354E+01  0.30542560218E+02  0.30900824250E+02  0.17770000000E+01 0. -1.
         15    1    1    2    0    0 -0.86661942757E+01 -0.17309867229E+02  0.14233092648E+03  0.14365230520E+03  0.17770000000E+01 0.  1.
</event>
<event>
 6    1  0.6564965E-004  0.4868488E+03  0.7546771E-02  0.9429727E-01
        -11   -1    0    0    0    0  0.00000000000E+00  0.00000000000E+00  0.50000000000E+03  0.50000000000E+03  0.00000000000E+00 0. -1.
         11   -1    0    0    0    0 -0.00000000000E+00 -0.00000000000E+00 -0.50000000000E+03  0.50000000000E+03  0.00000000000E+00 0. -1.
        -11    1    1    2    0    0  0.30460198066E+01 -0.12793911368E+02  0.48514535590E+03  0.48532358149E+03  0.00000000000E+00 0. -1.
         11    1    1    2    0    0  0.70801975289E+01 -0.33108515735E+01 -0.48850311150E+03  0.48856563621E+03  0.00000000000E+00 0. -1.
        -15    1    1    2    0    0 -0.14833155296E+02  0.99730617075E+01  0.22939608690E+01  0.18108131912E+02  0.17770000000E+01 0. -1.
         15    1    1    2    0    0  0.47069379607E+01  0.61317012340E+01  0.10637947350E+01  0.80026503877E+01  0.17770000000E+01 0.  1.
</event>
<event>
 6    1  0.6564965E-004  0.5027082E+03  0.7546771E-02  0.9393770E-01
        -11   -1    0    0    0    0  0.00000000000E+00  0.00000000000E+00  0.50000000000E+03  0.50000000000E+03  0.00000000000E+00 0.  1.
         11   -1    0    0    0    0 -0.00000000000E+00 -0.00000000000E+00 -0.50000000000E+03  0.50000000000E+03  0.00000000000E+00 0. -1.
        -11    1    1    2    0    0  0.34548404161E+01 -0.14284960824E+02 -0.15302958345E+02  0.21217364637E+02  0.00000000000E+00 0.  1.
         11    1    1    2    0    0 -0.76813725809E+01  0.17428997241E+02 -0.48111394956E+03  0.48149081599E+03  0.00000000000E+00 0. -1.
        -15    1    1    2    0    0 -0.12371709401E+02 -0.74591528739E+00  0.19149864993E+03  0.19190754607E+03  0.17770000000E+01 0. -1.
         15    1    1    2    0    0  0.16598241566E+02 -0.23981211300E+01  0.30491825797E+03  0.30538427330E+03  0.17770000000E+01 0.  1.
</event>
<event>
 6    1  0.6564965E-004  0.5001893E+03  0.7546771E-02  0.9399386E-01
        -11   -1    0    0    0    0  0.00000000000E+00  0.00000000000E+00  0.50000000000E+03  0.50000000000E+03  0.00000000000E+00 0. -1.
         11   -1    0    0    0    0 -0.00000000000E+00 -0.00000000000E+00 -0.50000000000E+03  0.50000000000E+03  0.00000000000E+00 0.  1.
        -11    1    1    2    0    0 -0.16524714908E+02 -0.21580386534E+02  0.49907105832E+03  0.49981066469E+03  0.00000000000E+00 0. -1.
         11    1    1    2    0    0  0.21530999359E+01  0.94246500211E+01 -0.28091864091E+03  0.28108493855E+03  0.00000000000E+00 0.  1.
        -15    1    1    2    0    0  0.85343854408E+01  0.32135307698E+01 -0.82760518620E+02  0.83280391966E+02  0.17770000000E+01 0.  1.
         15    1    1    2    0    0  0.58372295309E+01  0.89422057430E+01 -0.13539189879E+03  0.13582400480E+03  0.17770000000E+01 0.  1.
</event>
<event>
 6    1  0.6564965E-004  0.4568933E+03  0.7546771E-02  0.9501792E-01
        -11   -1    0    0    0    0  0.00000000000E+00  0.00000000000E+00  0.50000000000E+03  0.50000000000E+03  0.00000000000E+00 0.  1.
         11   -1    0    0    0    0 -0.00000000000E+00 -0.00000000000E+00 -0.50000000000E+03  0.50000000000E+03  0.00000000000E+00 0. -1.
        -11    1    1    2    0    0  0.56637413063E+02 -0.62353320468E+01  0.46703672327E+03  0.47049970968E+03  0.00000000000E+00 0.  1.
         11    1    1    2    0    0 -0.24499861656E+00  0.71584898009E+01 -0.44522793290E+03  0.44528554461E+03  0.00000000000E+00 0. -1.
        -15    1    1    2    0    0 -0.32967012471E+02 -0.26041225343E+02 -0.26199603692E+02  0.49543377874E+02  0.17770000000E+01 0. -1.
         15    1    1    2    0    0 -0.23425401976E+02  0.25118067589E+02  0.43908133271E+01  0.34671367839E+02  0.17770000000E+01 0.  1.
</event>
<event>
 6    1  0.6564965E-004  0.5025380E+03  0.7546771E-02  0.9394149E-01
        -11   -1    0    0    0    0  0.00000000000E+00  0.00000000000E+00  0.50000000000E+03  0.50000000000E+03  0.00000000000E+00 0. -1.
         11   -1    0    0    0    0 -0.00000000000E+00 -0.00000000000E+00 -0.50000000000E+03  0.50000000000E+03  0.00000000000E+00 0. -1.
        -11    1    1    2    0    0  0.11817264047E+01 -0.14166029534E+02  0.46237957495E+03  0.46259803740E+03  0.00000000000E+00 0. -1.
         11    1    1    2    0    0 -0.65402290566E+00  0.75489550935E+01 -0.49740431945E+03  0.49746203018E+03  0.00000000000E+00 0. -1.
        -15    1    1    2    0    0 -0.12883098355E+01  0.11748149086E+02  0.30738993277E+02  0.32980633497E+02  0.17770000000E+01 0. -1.
         15    1    1    2    0    0  0.76060633648E+00 -0.51310746453E+01  0.42857512185E+01  0.69592989245E+01  0.17770000000E+01 0.  1.
</event>
<event>
 6    1  0.6564965E-004  0.5008248E+03  0.7546771E-02  0.9397966E-01
        -11   -1    0    0    0    0  0.00000000000E+00  0.00000000000E+00  0.50000000000E+03  0.50000000000E+03  0.00000000000E+00 0.  1.
         11   -1    0    0    0    0 -0.00000000000E+00 -0.00000000000E+00 -0.50000000000E+03  0.50000000000E+03  0.00000000000E+00 0.  1.
        -11    1    1    2    0    0 -0.46557444024E+01 -0.69980132308E+01  0.39017347976E+03  0.39026400353E+03  0.00000000000E+00 0.  1.
         11    1    1    2    0    0  0.18153279719E+01 -0.91842001798E+01 -0.49908736457E+03  0.49917516207E+03  0.00000000000E+00 0.  1.
        -15    1    1    2    0    0  0.25764677237E+01  0.91719095829E+01  0.85670651798E+02  0.86217054112E+02  0.17770000000E+01 0. -1.
         15    1    1    2    0    0  0.26394870674E+00  0.70103038277E+01  0.23243233018E+02  0.24343780290E+02  0.17770000000E+01 0.  1.
</event>
<event>
 6    1  0.6564965E-004  0.5000489E+03  0.7546771E-02  0.9399700E-01
        -11   -1    0    0    0    0  0.00000000000E+00  0.00000000000E+00  0.50000000000E+03  0.50000000000E+03  0.00000000000E+00 0. -1.
         11   -1    0    0    0    0 -0.00000000000E+00 -0.00000000000E+00 -0.50000000000E+03  0.50000000000E+03  0.00000000000E+00 0.  1.
        -11    1    1    2    0    0  0.53349346644E+01 -0.58681314964E+01  0.23418984913E+03  0.23432409592E+03  0.00000000000E+00 0. -1.
         11    1    1    2    0    0 -0.50663269231E+01  0.71929283524E+01 -0.49987370450E+03  0.49995112395E+03  0.00000000000E+00 0.  1.
        -15    1    1    2    0    0  0.11795045917E+01 -0.66436076242E+00  0.14675598843E+03  0.14677298959E+03  0.17770000000E+01 0.  1.
         15    1    1    2    0    0 -0.14481123329E+01 -0.66043609357E+00  0.11892786695E+03  0.11895179053E+03  0.17770000000E+01 0. -1.
</event>
<event>
 6    1  0.6564965E-004  0.5004952E+03  0.7546771E-02  0.9398702E-01
        -11   -1    0    0    0    0  0.00000000000E+00  0.00000000000E+00  0.50000000000E+03  0.50000000000E+03  0.00000000000E+00 0.  1.
         11   -1    0    0    0    0 -0.00000000000E+00 -0.00000000000E+00 -0.50000000000E+03  0.50000000000E+03  0.00000000000E+00 0.  1.
        -11    1    1    2    0    0  0.62016153272E+01  0.89086750977E+01  0.36590985767E+03  0.36607082438E+03  0.00000000000E+00 0.  1.
         11    1    1    2    0    0 -0.89551782026E+01  0.54769350575E+01 -0.49939450959E+03  0.49950482304E+03  0.00000000000E+00 0.  1.
        -15    1    1    2    0    0  0.29213226174E+00 -0.10883325462E+02  0.10305674070E+03  0.10364546129E+03  0.17770000000E+01 0. -1.
         15    1    1    2    0    0  0.24614306136E+01 -0.35022846934E+01  0.30427911218E+02  0.30778891286E+02  0.17770000000E+01 0.  1.
</event>
<event>
 6    1  0.6564965E-004  0.5358984E+03  0.7546771E-02  0.9322883E-01
        -11   -1    0    0    0    0  0.00000000000E+00  0.00000000000E+00  0.50000000000E+03  0.50000000000E+03  0.00000000000E+00 0.  1.
         11   -1    0    0    0    0 -0.00000000000E+00 -0.00000000000E+00 -0.50000000000E+03  0.50000000000E+03  0.00000000000E+00 0.  1.
        -11    1    1    2    0    0  0.84695889754E+00  0.74386540420E+02  0.45810062249E+03  0.46410155684E+03  0.00000000000E+00 0.  1.
         11    1    1    2    0    0  0.29158898383E+02 -0.53703767974E+01 -0.39985899905E+03  0.40095673261E+03  0.00000000000E+00 0.  1.
        -15    1    1    2    0    0 -0.51220599250E+02 -0.48733973255E+01 -0.11448859646E+02  0.52740249386E+02  0.17770000000E+01 0. -1.
         15    1    1    2    0    0  0.21214741970E+02 -0.64142766297E+02 -0.46792763798E+02  0.82201461166E+02  0.17770000000E+01 0.  1.
</event>
<event>
 6    1  0.6564965E-004  0.4902321E+03  0.7546771E-02  0.9421935E-01
        -11   -1    0    0    0    0  0.00000000000E+00  0.00000000000E+00  0.50000000000E+03  0.50000000000E+03  0.00000000000E+00 0.  1.
         11   -1    0    0    0    0 -0.00000000000E+00 -0.00000000000E+00 -0.50000000000E+03  0.50000000000E+03  0.00000000000E+00 0.  1.
        -11    1    1    2    0    0  0.98354680164E+01  0.10569311692E+02  0.49258749601E+03  0.49279903410E+03  0.00000000000E+00 0.  1.
         11    1    1    2    0    0 -0.10327233614E+02  0.27390286842E+01 -0.48765097777E+03  0.48776800854E+03  0.00000000000E+00 0.  1.
        -15    1    1    2    0    0 -0.31916237721E+01 -0.71078316566E+01 -0.80826534039E+01  0.11366386770E+02  0.17770000000E+01 0.  1.
         15    1    1    2    0    0  0.36833893696E+01 -0.62005087193E+01  0.31461351688E+01  0.80665705927E+01  0.17770000000E+01 0. -1.
</event>
<event>
 6    1  0.6564965E-004  0.5003009E+03  0.7546771E-02  0.9399137E-01
        -11   -1    0    0    0    0  0.00000000000E+00  0.00000000000E+00  0.50000000000E+03  0.50000000000E+03  0.00000000000E+00 0.  1.
         11   -1    0    0    0    0 -0.00000000000E+00 -0.00000000000E+00 -0.50000000000E+03  0.50000000000E+03  0.00000000000E+00 0.  1.
        -11    1    1    2    0    0  0.31799204721E+01  0.24902723377E+01  0.25298552463E+03  0.25301776424E+03  0.00000000000E+00 0.  1.
         11    1    1    2    0    0 -0.23010453541E+01 -0.76300669728E+01 -0.49963552042E+03  0.49969907544E+03  0.00000000000E+00 0.  1.
        -15    1    1    2    0    0  0.25045582828E+01  0.60080974561E+01  0.23257136677E+03  0.23266922533E+03  0.17770000000E+01 0. -1.
         15    1    1    2    0    0 -0.33834334008E+01 -0.86830282102E+00  0.14078629023E+02  0.14613934978E+02  0.17770000000E+01 0.  1.
</event>
<event>
 6    1  0.6564965E-004  0.5035709E+03  0.7546771E-02  0.9391855E-01
        -11   -1    0    0    0    0  0.00000000000E+00  0.00000000000E+00  0.50000000000E+03  0.50000000000E+03  0.00000000000E+00 0.  1.
         11   -1    0    0    0    0 -0.00000000000E+00 -0.00000000000E+00 -0.50000000000E+03  0.50000000000E+03  0.00000000000E+00 0. -1.
        -11    1    1    2    0    0 -0.11554221875E+03  0.99693816402E+01  0.24260147111E+03  0.26889564271E+03  0.00000000000E+00 0.  1.
         11    1    1    2    0    0  0.14892276368E+03  0.15216445171E+02 -0.47332051324E+03  0.49642908658E+03  0.00000000000E+00 0. -1.
        -15    1    1    2    0    0 -0.90461974202E+01 -0.10123122255E+02  0.93031650156E+02  0.94033807493E+02  0.17770000000E+01 0. -1.
         15    1    1    2    0    0 -0.24334347508E+02 -0.15062704556E+02  0.13768739198E+03  0.14064146322E+03  0.17770000000E+01 0.  1.
</event>
<event>
 6    1  0.6564965E-004  0.5071818E+03  0.7546771E-02  0.9383882E-01
        -11   -1    0    0    0    0  0.00000000000E+00  0.00000000000E+00  0.50000000000E+03  0.50000000000E+03  0.00000000000E+00 0. -1.
         11   -1    0    0    0    0 -0.00000000000E+00 -0.00000000000E+00 -0.50000000000E+03  0.50000000000E+03  0.00000000000E+00 0. -1.
        -11    1    1    2    0    0 -0.29244440593E+02 -0.11920686634E+02  0.49180529290E+03  0.49281820806E+03  0.00000000000E+00 0. -1.
         11    1    1    2    0    0 -0.75183011722E+01  0.17982024206E+01 -0.39147122279E+03  0.39154754074E+03  0.00000000000E+00 0. -1.
        -15    1    1    2    0    0  0.35462830298E+02 -0.81944878087E+01 -0.48850563945E+02  0.60945034990E+02  0.17770000000E+01 0.  1.
         15    1    1    2    0    0  0.12999114668E+01  0.18316972022E+02 -0.51483506165E+02  0.54689216212E+02  0.17770000000E+01 0. -1.
</event>
<event>
 6    1  0.6564965E-004  0.4875958E+03  0.7546771E-02  0.9428001E-01
        -11   -1    0    0    0    0  0.00000000000E+00  0.00000000000E+00  0.50000000000E+03  0.50000000000E+03  0.00000000000E+00 0.  1.
         11   -1    0    0    0    0 -0.00000000000E+00 -0.00000000000E+00 -0.50000000000E+03  0.50000000000E+03  0.00000000000E+00 0.  1.
        -11    1    1    2    0    0 -0.19150792230E+01 -0.14095073153E+02  0.48254472228E+03  0.48275433465E+03  0.00000000000E+00 0.  1.
         11    1    1    2    0    0  0.35157007126E+01 -0.58656611443E+01 -0.49264762475E+03  0.49269508654E+03  0.00000000000E+00 0.  1.
        -15    1    1    2    0    0 -0.17423402925E+01  0.18225488811E+02  0.11503707993E+02  0.21695557579E+02  0.17770000000E+01 0.  1.
         15    1    1    2    0    0  0.14171880289E+00  0.17352454862E+01 -0.14008055302E+01  0.28550212346E+01  0.17770000000E+01 0.  1.
</event>
<event>
 6    1  0.6564965E-004  0.5038282E+03  0.7546771E-02  0.9391284E-01
        -11   -1    0    0    0    0  0.00000000000E+00  0.00000000000E+00  0.50000000000E+03  0.50000000000E+03  0.00000000000E+00 0.  1.
         11   -1    0    0    0    0 -0.00000000000E+00 -0.00000000000E+00 -0.50000000000E+03  0.50000000000E+03  0.00000000000E+00 0. -1.
        -11    1    1    2    0    0 -0.26295155557E+02  0.74378181585E+01  0.49541867838E+03  0.49617176787E+03  0.00000000000E+00 0.  1.
         11    1    1    2    0    0  0.11590032545E+02  0.22194834617E+02 -0.38058856161E+03  0.38141131704E+03  0.00000000000E+00 0. -1.
        -15    1    1    2    0    0 -0.22384719137E+01 -0.21094263535E+02 -0.79199876619E+02  0.82010712081E+02  0.17770000000E+01 0. -1.
         15    1    1    2    0    0  0.16943594926E+02 -0.85383892403E+01 -0.35630240148E+02  0.40406203012E+02  0.17770000000E+01 0.  1.
</event>
<event>
 6    1  0.6564965E-004  0.4828834E+03  0.7546771E-02  0.9438946E-01
        -11   -1    0    0    0    0  0.00000000000E+00  0.00000000000E+00  0.50000000000E+03  0.50000000000E+03  0.00000000000E+00 0.  1.
         11   -1    0    0    0    0 -0.00000000000E+00 -0.00000000000E+00 -0.50000000000E+03  0.50000000000E+03  0.00000000000E+00 0.  1.
        -11    1    1    2    0    0  0.68898325625E+01 -0.18040568817E+02  0.48970308536E+03  0.49008371094E+03  0.00000000000E+00 0.  1.
         11    1    1    2    0    0 -0.41267784216E+01 -0.81650371748E+01 -0.47605103713E+03  0.47613893780E+03  0.00000000000E+00 0.  1.
        -15    1    1    2    0    0  0.31983085654E+00  0.67324609760E+01  0.33028738060E+01  0.77133019485E+01  0.17770000000E+01 0.  1.
         15    1    1    2    0    0 -0.30828849974E+01  0.19473145016E+02 -0.16954922035E+02  0.26064049319E+02  0.17770000000E+01 0. -1.
</event>
<event>
 6    1  0.6564965E-004  0.5000769E+03  0.7546771E-02  0.9399638E-01
        -11   -1    0    0    0    0  0.00000000000E+00  0.00000000000E+00  0.50000000000E+03  0.50000000000E+03  0.00000000000E+00 0. -1.
         11   -1    0    0    0    0 -0.00000000000E+00 -0.00000000000E+00 -0.50000000000E+03  0.50000000000E+03  0.00000000000E+00 0. -1.
        -11    1    1    2    0    0  0.49263037105E+00  0.14195331799E+01  0.24717825618E+02  0.24763454170E+02  0.00000000000E+00 0. -1.
         11    1    1    2    0    0  0.12261306129E+02 -0.52811103420E+00 -0.49977244338E+03  0.49992310778E+03  0.00000000000E+00 0. -1.
        -15    1    1    2    0    0 -0.83084537084E+01 -0.82678896463E+00  0.40748147087E+03  0.40757087827E+03  0.17770000000E+01 0. -1.
         15    1    1    2    0    0 -0.44454827919E+01 -0.64633181108E-01  0.67573146894E+02  0.67742559775E+02  0.17770000000E+01 0.  1.
</event>
<event>
 6    1  0.6564965E-004  0.5090590E+03  0.7546771E-02  0.9379765E-01
        -11   -1    0    0    0    0  0.00000000000E+00  0.00000000000E+00  0.50000000000E+03  0.50000000000E+03  0.00000000000E+00 0. -1.
         11   -1    0    0    0    0 -0.00000000000E+00 -0.00000000000E+00 -0.50000000000E+03  0.50000000000E+03  0.00000000000E+00 0.  1.
        -11    1    1    2    0    0  0.30818081759E+02  0.78815987367E+01  0.45556631430E+03  0.45667553086E+03  0.00000000000E+00 0. -1.
         11    1    1    2    0    0  0.58420241964E+01 -0.40819264994E+01 -0.49088924777E+03  0.49094097909E+03  0.00000000000E+00 0.  1.
        -15    1    1    2    0    0 -0.32536956892E+02 -0.10959848154E+01  0.33715659369E+02  0.46901579528E+02  0.17770000000E+01 0.  1.
         15    1    1    2    0    0 -0.41231490640E+01 -0.27036874219E+01  0.16072741026E+01  0.54819105174E+01  0.17770000000E+01 0. -1.
</event>
<event>
 6    1  0.6564965E-004  0.5009044E+03  0.7546771E-02  0.9397788E-01
        -11   -1    0    0    0    0  0.00000000000E+00  0.00000000000E+00  0.50000000000E+03  0.50000000000E+03  0.00000000000E+00 0. -1.
         11   -1    0    0    0    0 -0.00000000000E+00 -0.00000000000E+00 -0.50000000000E+03  0.50000000000E+03  0.00000000000E+00 0.  1.
        -11    1    1    2    0    0  0.10941629271E+02 -0.71402357560E+01  0.49892451500E+03  0.49909555587E+03  0.00000000000E+00 0. -1.
         11    1    1    2    0    0 -0.52933871464E+00  0.63233990212E+01 -0.45034300742E+03  0.45038771065E+03  0.00000000000E+00 0.  1.
        -15    1    1    2    0    0 -0.17566812873E+00 -0.19850243696E+01 -0.15522233867E+02  0.15750195372E+02  0.17770000000E+01 0.  1.
         15    1    1    2    0    0 -0.10236622427E+02  0.28018611043E+01 -0.33059273715E+02  0.34766538107E+02  0.17770000000E+01 0.  1.
</event>
<event>
 6    1  0.6564965E-004  0.5003088E+03  0.7546771E-02  0.9399119E-01
        -11   -1    0    0    0    0  0.00000000000E+00  0.00000000000E+00  0.50000000000E+03  0.50000000000E+03  0.00000000000E+00 0.  1.
         11   -1    0    0    0    0 -0.00000000000E+00 -0.00000000000E+00 -0.50000000000E+03  0.50000000000E+03  0.00000000000E+00 0.  1.
        -11    1    1    2    0    0  0.16371146562E+02 -0.12769456666E+02  0.49925964849E+03  0.49969117470E+03  0.00000000000E+00 0.  1.
         11    1    1    2    0    0 -0.25882416140E+01 -0.22799200951E+01 -0.12524253266E+03  0.12529001963E+03  0.00000000000E+00 0.  1.
        -15    1    1    2    0    0 -0.72312760933E+01  0.63888276650E+01 -0.59053680307E+02  0.59863205391E+02  0.17770000000E+01 0. -1.
         15    1    1    2    0    0 -0.65516288549E+01  0.86605490961E+01 -0.31496343551E+03  0.31515560029E+03  0.17770000000E+01 0.  1.
</event>
<event>
 6    1  0.6564965E-004  0.5011271E+03  0.7546771E-02  0.9397291E-01
        -11   -1    0    0    0    0  0.00000000000E+00  0.00000000000E+00  0.50000000000E+03  0.50000000000E+03  0.00000000000E+00 0. -1.
         11   -1    0    0    0    0 -0.00000000000E+00 -0.00000000000E+00 -0.50000000000E+03  0.50000000000E+03  0.00000000000E+00 0.  1.
        -11    1    1    2    0    0  0.94277617472E+01  0.24493962700E+01  0.49877777067E+03  0.49887287634E+03  0.00000000000E+00 0. -1.
         11    1    1    2    0    0 -0.49107881526E+01  0.57168660300E+01 -0.45181167834E+03  0.45187453025E+03  0.00000000000E+00 0.  1.
        -15    1    1    2    0    0  0.49489333833E+00 -0.90579547164E+01 -0.25639158084E+02  0.27254643995E+02  0.17770000000E+01 0.  1.
         15    1    1    2    0    0 -0.50118669329E+01  0.89169241638E+00 -0.21326934241E+02  0.21997949419E+02  0.17770000000E+01 0. -1.
</event>
<event>
 6    1  0.6564965E-004  0.5005870E+03  0.7546771E-02  0.9398497E-01
        -11   -1    0    0    0    0  0.00000000000E+00  0.00000000000E+00  0.50000000000E+03  0.50000000000E+03  0.00000000000E+00 0. -1.
         11   -1    0    0    0    0 -0.00000000000E+00 -0.00000000000E+00 -0.50000000000E+03  0.50000000000E+03  0.00000000000E+00 0. -1.
        -11    1    1    2    0    0 -0.74140063544E+01 -0.48789724908E+01  0.49933412569E+03  0.49941299637E+03  0.00000000000E+00 0. -1.
         11    1    1    2    0    0  0.19616502816E+00 -0.62325946567E+01 -0.38652331593E+03  0.38657361197E+03  0.00000000000E+00 0. -1.
        -15    1    1    2    0    0  0.43835078677E+01  0.74806773853E+00 -0.53274926530E+02  0.53489721184E+02  0.17770000000E+01 0.  1.
         15    1    1    2    0    0  0.28343334586E+01  0.10363499409E+02 -0.59535883232E+02  0.60523670472E+02  0.17770000000E+01 0. -1.
</event>
<event>
 6    1  0.6564965E-004  0.5031950E+03  0.7546771E-02  0.9392689E-01
        -11   -1    0    0    0    0  0.00000000000E+00  0.00000000000E+00  0.50000000000E+03  0.50000000000E+03  0.00000000000E+00 0. -1.
         11   -1    0    0    0    0 -0.00000000000E+00 -0.00000000000E+00 -0.50000000000E+03  0.50000000000E+03  0.00000000000E+00 0.  1.
        -11    1    1    2    0    0  0.12504469334E+02  0.15205524341E+01  0.44172361896E+03  0.44190319006E+03  0.00000000000E+00 0. -1.
         11    1    1    2    0    0  0.15977197119E+01  0.20121843108E+02 -0.49639475187E+03  0.49680498282E+03  0.00000000000E+00 0.  1.
        -15    1    1    2    0    0 -0.10452748932E+01 -0.56798105135E-01  0.20449036655E+01  0.29043391036E+01  0.17770000000E+01 0. -1.
         15    1    1    2    0    0 -0.13056914153E+02 -0.21585597437E+02  0.52626229239E+02  0.58387488016E+02  0.17770000000E+01 0.  1.
</event>
<event>
 6    1  0.6564965E-004  0.5009830E+03  0.7546771E-02  0.9397613E-01
        -11   -1    0    0    0    0  0.00000000000E+00  0.00000000000E+00  0.50000000000E+03  0.50000000000E+03  0.00000000000E+00 0.  1.
         11   -1    0    0    0    0 -0.00000000000E+00 -0.00000000000E+00 -0.50000000000E+03  0.50000000000E+03  0.00000000000E+00 0. -1.
        -11    1    1    2    0    0  0.32389350540E+02  0.10668154207E+02  0.49785044127E+03  0.49901697508E+03  0.00000000000E+00 0.  1.
         11    1    1    2    0    0  0.37619598588E+00  0.34633782735E+01 -0.25537375028E+03  0.25539751143E+03  0.00000000000E+00 0. -1.
        -15    1    1    2    0    0 -0.14444482734E+02 -0.12403785302E+01 -0.61078619229E+02  0.62800772896E+02  0.17770000000E+01 0. -1.
         15    1    1    2    0    0 -0.18321063793E+02 -0.12891153950E+02 -0.18139807176E+03  0.18278474060E+03  0.17770000000E+01 0.  1.
</event>
<event>
 6    1  0.6564965E-004  0.5130561E+03  0.7546771E-02  0.9371060E-01
        -11   -1    0    0    0    0  0.00000000000E+00  0.00000000000E+00  0.50000000000E+03  0.50000000000E+03  0.00000000000E+00 0. -1.
         11   -1    0    0    0    0 -0.00000000000E+00 -0.00000000000E+00 -0.50000000000E+03  0.50000000000E+03  0.00000000000E+00 0. -1.
        -11    1    1    2    0    0 -0.68130951740E+02 -0.12783964933E+03  0.46489737538E+03  0.48694391069E+03  0.00000000000E+00 0. -1.
         11    1    1    2    0    0 -0.33911308652E+01 -0.97135652865E+00 -0.14375886966E+03  0.14380214153E+03  0.00000000000E+00 0. -1.
        -15    1    1    2    0    0  0.41893477800E+02  0.14195141967E+03 -0.28130369649E+03  0.31786820605E+03  0.17770000000E+01 0. -1.
         15    1    1    2    0    0  0.29628604805E+02 -0.13140413818E+02 -0.39834809226E+02  0.51385741729E+02  0.17770000000E+01 0.  1.
</event>
<event>
 6    1  0.6564965E-004  0.5001486E+03  0.7546771E-02  0.9399477E-01
        -11   -1    0    0    0    0  0.00000000000E+00  0.00000000000E+00  0.50000000000E+03  0.50000000000E+03  0.00000000000E+00 0.  1.
         11   -1    0    0    0    0 -0.00000000000E+00 -0.00000000000E+00 -0.50000000000E+03  0.50000000000E+03  0.00000000000E+00 0. -1.
        -11    1    1    2    0    0  0.12871505616E+02  0.46434791603E+01  0.49966410527E+03  0.49985143357E+03  0.00000000000E+00 0.  1.
         11    1    1    2    0    0 -0.15396158747E+02 -0.66160624974E+01 -0.37418876696E+03  0.37456380940E+03  0.00000000000E+00 0. -1.
        -15    1    1    2    0    0  0.10263902863E+01  0.44794947356E+00 -0.77875513417E+02  0.77903834659E+02  0.17770000000E+01 0. -1.
         15    1    1    2    0    0  0.14982628453E+01  0.15246338636E+01 -0.47599824885E+02  0.47680922370E+02  0.17770000000E+01 0.  1.
</event>
<event>
 6    1  0.6564965E-004  0.5053567E+03  0.7546771E-02  0.9387903E-01
        -11   -1    0    0    0    0  0.00000000000E+00  0.00000000000E+00  0.50000000000E+03  0.50000000000E+03  0.00000000000E+00 0.  1.
         11   -1    0    0    0    0 -0.00000000000E+00 -0.00000000000E+00 -0.50000000000E+03  0.50000000000E+03  0.00000000000E+00 0.  1.
        -11    1    1    2    0    0 -0.77045855529E+01 -0.48909973315E+02  0.49215899796E+03  0.49464333150E+03  0.00000000000E+00 0.  1.
         11    1    1    2    0    0 -0.55953484543E+01  0.16668915703E+00 -0.31774700945E+03  0.31779631483E+03  0.00000000000E+00 0.  1.
        -15    1    1    2    0    0  0.19377230898E+02  0.33451727662E+02 -0.16281515262E+03  0.16735120798E+03  0.17770000000E+01 0.  1.
         15    1    1    2    0    0 -0.60772968907E+01  0.15291556496E+02 -0.11596835898E+02  0.20209145688E+02  0.17770000000E+01 0. -1.
</event>
<event>
 6    1  0.6564965E-004  0.5052182E+03  0.7546771E-02  0.9388209E-01
        -11   -1    0    0    0    0  0.00000000000E+00  0.00000000000E+00  0.50000000000E+03  0.50000000000E+03  0.00000000000E+00 0.  1.
         11   -1    0    0    0    0 -0.00000000000E+00 -0.00000000000E+00 -0.50000000000E+03  0.50000000000E+03  0.00000000000E+00 0.  1.
        -11    1    1    2    0    0  0.45629504939E+02 -0.49063016708E+02  0.49022422370E+03  0.49478179112E+03  0.00000000000E+00 0.  1.
         11    1    1    2    0    0 -0.13323367975E+01 -0.98232105421E+01 -0.15058402121E+03  0.15090996664E+03  0.00000000000E+00 0.  1.
        -15    1    1    2    0    0 -0.47433629499E+02  0.48124235016E+02 -0.15232129680E+03  0.16664581120E+03  0.17770000000E+01 0.  1.
         15    1    1    2    0    0  0.31364613575E+01  0.10761992234E+02 -0.18731890568E+03  0.18766243103E+03  0.17770000000E+01 0. -1.
</event>
<event>
 6    1  0.6564965E-004  0.5020054E+03  0.7546771E-02  0.9395334E-01
        -11   -1    0    0    0    0  0.00000000000E+00  0.00000000000E+00  0.50000000000E+03  0.50000000000E+03  0.00000000000E+00 0.  1.
         11   -1    0    0    0    0 -0.00000000000E+00 -0.00000000000E+00 -0.50000000000E+03  0.50000000000E+03  0.00000000000E+00 0.  1.
        -11    1    1    2    0    0 -0.25316135370E+02 -0.18085079944E+02  0.49702177999E+03  0.49799460500E+03  0.00000000000E+00 0.  1.
         11    1    1    2    0    0 -0.36334292067E+01  0.51517009048E+01 -0.37749490941E+03  0.37754754464E+03  0.00000000000E+00 0.  1.
        -15    1    1    2    0    0  0.13673791365E+02  0.70344338358E+01 -0.33980100051E+02  0.37339801260E+02  0.17770000000E+01 0.  1.
         15    1    1    2    0    0  0.15275773212E+02  0.58989452032E+01 -0.85546770529E+02  0.87118049098E+02  0.17770000000E+01 0. -1.
</event>
<event>
 6    1  0.6564965E-004  0.5016581E+03  0.7546771E-02  0.9396107E-01
        -11   -1    0    0    0    0  0.00000000000E+00  0.00000000000E+00  0.50000000000E+03  0.50000000000E+03  0.00000000000E+00 0.  1.
         11   -1    0    0    0    0 -0.00000000000E+00 -0.00000000000E+00 -0.50000000000E+03  0.50000000000E+03  0.00000000000E+00 0. -1.
        -11    1    1    2    0    0 -0.25897841075E+01  0.57696762828E+01  0.46738222954E+03  0.46742501499E+03  0.00000000000E+00 0.  1.
         11    1    1    2    0    0  0.45628942757E+01  0.77765162927E+01 -0.49826033406E+03  0.49834190543E+03  0.00000000000E+00 0. -1.
        -15    1    1    2    0    0  0.97710197591E+00 -0.25622256397E+01  0.66599925845E+01  0.74184202312E+01  0.17770000000E+01 0.  1.
         15    1    1    2    0    0 -0.29502121441E+01 -0.10983966936E+02  0.24218111937E+02  0.26814659351E+02  0.17770000000E+01 0.  1.
</event>
<event>
 6    1  0.6564965E-004  0.4857460E+03  0.7546771E-02  0.9432281E-01
        -11   -1    0    0    0    0  0.00000000000E+00  0.00000000000E+00  0.50000000000E+03  0.50000000000E+03  0.00000000000E+00 0.  1.
         11   -1    0    0    0    0 -0.00000000000E+00 -0.00000000000E+00 -0.50000000000E+03  0.50000000000E+03  0.00000000000E+00 0.  1.
        -11    1    1    2    0    0  0.14458507039E+02 -0.18125547117E+02  0.48307482120E+03  0.48363091998E+03  0.00000000000E+00 0.  1.
         11    1    1    2    0    0 -0.10650905098E+02 -0.25233899369E+01 -0.48797754266E+03  0.48810028828E+03  0.00000000000E+00 0.  1.
        -15    1    1    2    0    0  0.58226764670E+01  0.13615372815E+02  0.61804743560E+01  0.16144284760E+02  0.17770000000E+01 0.  1.
         15    1    1    2    0    0 -0.96302784082E+01  0.70335642388E+01 -0.12777528926E+01  0.12124506983E+02  0.17770000000E+01 0. -1.
</event>
<event>
 6    1  0.6564965E-004  0.5014941E+03  0.7546771E-02  0.9396473E-01
        -11   -1    0    0    0    0  0.00000000000E+00  0.00000000000E+00  0.50000000000E+03  0.50000000000E+03  0.00000000000E+00 0.  1.
         11   -1    0    0    0    0 -0.00000000000E+00 -0.00000000000E+00 -0.50000000000E+03  0.50000000000E+03  0.00000000000E+00 0.  1.
        -11    1    1    2    0    0  0.12626540105E+02 -0.30760697912E+02  0.49739570515E+03  0.49850590523E+03  0.00000000000E+00 0.  1.
         11    1    1    2    0    0  0.94106347272E+01 -0.86916774940E+00 -0.27162839696E+03  0.27179275474E+03  0.00000000000E+00 0.  1.
        -15    1    1    2    0    0 -0.10346143724E+02  0.57211197694E+01 -0.10207076852E+03  0.10276854293E+03  0.17770000000E+01 0.  1.
         15    1    1    2    0    0 -0.11691031108E+02  0.25908745892E+02 -0.12369653967E+03  0.12693279709E+03  0.17770000000E+01 0. -1.
</event>
<event>
 6    1  0.6564965E-004  0.5014443E+03  0.7546771E-02  0.9396584E-01
        -11   -1    0    0    0    0  0.00000000000E+00  0.00000000000E+00  0.50000000000E+03  0.50000000000E+03  0.00000000000E+00 0.  1.
         11   -1    0    0    0    0 -0.00000000000E+00 -0.00000000000E+00 -0.50000000000E+03  0.50000000000E+03  0.00000000000E+00 0.  1.
        -11    1    1    2    0    0 -0.13159643955E+02 -0.45968101338E+01  0.35666429003E+03  0.35693658075E+03  0.00000000000E+00 0.  1.
         11    1    1    2    0    0  0.58048521559E+01 -0.58237143986E+01 -0.49848786423E+03  0.49855567667E+03  0.00000000000E+00 0.  1.
        -15    1    1    2    0    0 -0.46066197220E+00  0.66152551394E+01  0.12732443458E+03  0.12750938468E+03  0.17770000000E+01 0.  1.
         15    1    1    2    0    0  0.78154537708E+01  0.38052693930E+01  0.14499139612E+02  0.16998357900E+02  0.17770000000E+01 0. -1.
</event>
<event>
 6    1  0.6564965E-004  0.5004742E+03  0.7546771E-02  0.9398749E-01
        -11   -1    0    0    0    0  0.00000000000E+00  0.00000000000E+00  0.50000000000E+03  0.50000000000E+03  0.00000000000E+00 0. -1.
         11   -1    0    0    0    0 -0.00000000000E+00 -0.00000000000E+00 -0.50000000000E+03  0.50000000000E+03  0.00000000000E+00 0. -1.
        -11    1    1    2    0    0  0.18749278075E+01  0.94891132330E+01  0.49943211893E+03  0.49952577516E+03  0.00000000000E+00 0. -1.
         11    1    1    2    0    0  0.57906928271E+01  0.16824281891E+00 -0.39013880018E+03  0.39018180870E+03  0.00000000000E+00 0. -1.
        -15    1    1    2    0    0 -0.53500759527E+01 -0.51256192354E+01 -0.35806927558E+02  0.36608592917E+02  0.17770000000E+01 0. -1.
         15    1    1    2    0    0 -0.23155446818E+01 -0.45317368165E+01 -0.73486391192E+02  0.73683823226E+02  0.17770000000E+01 0.  1.
</event>
<event>
 6    1  0.6564965E-004  0.5022444E+03  0.7546771E-02  0.9394802E-01
        -11   -1    0    0    0    0  0.00000000000E+00  0.00000000000E+00  0.50000000000E+03  0.50000000000E+03  0.00000000000E+00 0.  1.
         11   -1    0    0    0    0 -0.00000000000E+00 -0.00000000000E+00 -0.50000000000E+03  0.50000000000E+03  0.00000000000E+00 0. -1.
        -11    1    1    2    0    0  0.25231263998E+02 -0.20855871931E+02  0.15290190914E+03  0.15636680561E+03  0.00000000000E+00 0.  1.
         11    1    1    2    0    0 -0.95355172126E+01 -0.10056749205E+00 -0.49766424735E+03  0.49775560197E+03  0.00000000000E+00 0. -1.
        -15    1    1    2    0    0 -0.13576651719E+02  0.20721439450E+02  0.31927426016E+03  0.32023883970E+03  0.17770000000E+01 0.  1.
         15    1    1    2    0    0 -0.21190950658E+01  0.23499997291E+00  0.25488078054E+02  0.25638752714E+02  0.17770000000E+01 0.  1.
</event>
<event>
 6    1  0.6564965E-004  0.5086111E+03  0.7546771E-02  0.9380745E-01
        -11   -1    0    0    0    0  0.00000000000E+00  0.00000000000E+00  0.50000000000E+03  0.50000000000E+03  0.00000000000E+00 0.  1.
         11   -1    0    0    0    0 -0.00000000000E+00 -0.00000000000E+00 -0.50000000000E+03  0.50000000000E+03  0.00000000000E+00 0.  1.
        -11    1    1    2    0    0 -0.10615401796E+02  0.64972013539E+01  0.49123126892E+03  0.49138890906E+03  0.00000000000E+00 0.  1.
         11    1    1    2    0    0 -0.13440061846E+01 -0.67693132562E+01 -0.48420606056E+03  0.48425524162E+03  0.00000000000E+00 0.  1.
        -15    1    1    2    0    0  0.45888687085E+01  0.75427369418E+01 -0.99808774493E+01  0.13443445996E+02  0.17770000000E+01 0.  1.
         15    1    1    2    0    0  0.73705392717E+01 -0.72706250395E+01  0.29556690898E+01  0.10912403328E+02  0.17770000000E+01 0.  1.
</event>
<event>
 6    1  0.6564965E-004  0.4614022E+03  0.7546771E-02  0.9490575E-01
        -11   -1    0    0    0    0  0.00000000000E+00  0.00000000000E+00  0.50000000000E+03  0.50000000000E+03  0.00000000000E+00 0.  1.
         11   -1    0    0    0    0 -0.00000000000E+00 -0.00000000000E+00 -0.50000000000E+03  0.50000000000E+03  0.00000000000E+00 0.  1.
        -11    1    1    2    0    0 -0.44940575228E+02  0.53279577561E+00  0.45429081224E+03  0.45650857742E+03  0.00000000000E+00 0.  1.
         11    1    1    2    0    0 -0.54026094862E+01  0.18544378371E+02 -0.46756132207E+03  0.46796011802E+03  0.00000000000E+00 0.  1.
        -15    1    1    2    0    0  0.16991435649E+02 -0.22404119193E+02 -0.14755472811E+02  0.31804640371E+02  0.17770000000E+01 0. -1.
         15    1    1    2    0    0  0.33351749065E+02  0.33269450470E+01  0.28025982639E+02  0.43726664187E+02  0.17770000000E+01 0.  1.
</event>
<event>
 6    1  0.6564965E-004  0.4132012E+03  0.7546771E-02  0.9618180E-01
        -11   -1    0    0    0    0  0.00000000000E+00  0.00000000000E+00  0.50000000000E+03  0.50000000000E+03  0.00000000000E+00 0.  1.
         11   -1    0    0    0    0 -0.00000000000E+00 -0.00000000000E+00 -0.50000000000E+03  0.50000000000E+03  0.00000000000E+00 0.  1.
        -11    1    1    2    0    0  0.13768458821E+02  0.93159217768E+02  0.43947170891E+03  0.44944809850E+03  0.00000000000E+00 0.  1.
         11    1    1    2    0    0 -0.30291608393E+02  0.47262082411E+02 -0.38657474681E+03  0.39062939066E+03  0.00000000000E+00 0.  1.
        -15    1    1    2    0    0  0.10858668623E+02 -0.78847692840E+02 -0.17078306341E+01  0.79630043105E+02  0.17770000000E+01 0.  1.
         15    1    1    2    0    0  0.56644809481E+01 -0.61573607340E+02 -0.51189131470E+02  0.80292467734E+02  0.17770000000E+01 0. -1.
</event>
<event>
 6    1  0.6564965E-004  0.5033468E+03  0.7546771E-02  0.9392352E-01
        -11   -1    0    0    0    0  0.00000000000E+00  0.00000000000E+00  0.50000000000E+03  0.50000000000E+03  0.00000000000E+00 0. -1.
         11   -1    0    0    0    0 -0.00000000000E+00 -0.00000000000E+00 -0.50000000000E+03  0.50000000000E+03  0.00000000000E+00 0.  1.
        -11    1    1    2    0    0 -0.32616173802E+02 -0.17084594925E+00  0.49558103725E+03  0.49665320744E+03  0.00000000000E+00 0. -1.
         11    1    1    2    0    0 -0.26993574197E+01 -0.68891801186E+01 -0.41127433897E+03  0.41134089175E+03  0.00000000000E+00 0.  1.
        -15    1    1    2    0    0  0.65839583071E+01  0.30153564596E+01 -0.22524839110E+02  0.23726925370E+02  0.17770000000E+01 0. -1.
         15    1    1    2    0    0  0.28731572915E+02  0.40446696082E+01 -0.61781859175E+02  0.68278975435E+02  0.17770000000E+01 0.  1.
</event>
<event>
 6    1  0.6564965E-004  0.5008418E+03  0.7546771E-02  0.9397928E-01
        -11   -1    0    0    0    0  0.00000000000E+00  0.00000000000E+00  0.50000000000E+03  0.50000000000E+03  0.00000000000E+00 0. -1.
         11   -1    0    0    0    0 -0.00000000000E+00 -0.00000000000E+00 -0.50000000000E+03  0.50000000000E+03  0.00000000000E+00 0.  1.
        -11    1    1    2    0    0 -0.32887301065E+02  0.35617299951E+02  0.49679844815E+03  0.49915815601E+03  0.00000000000E+00 0. -1.
         11    1    1    2    0    0  0.39125196653E+02 -0.32696935083E+02 -0.35019299447E+03  0.35388558031E+03  0.00000000000E+00 0.  1.
        -15    1    1    2    0    0 -0.58751049828E+01 -0.43965692123E+01 -0.12415214832E+03  0.12438151125E+03  0.17770000000E+01 0.  1.
         15    1    1    2    0    0 -0.36279060545E+00  0.14762043449E+01 -0.22453305363E+02  0.22574752424E+02  0.17770000000E+01 0. -1.
</event>
<event>
 6    1  0.6564965E-004  0.5002923E+03  0.7546771E-02  0.9399156E-01
        -11   -1    0    0    0    0  0.00000000000E+00  0.00000000000E+00  0.50000000000E+03  0.50000000000E+03  0.00000000000E+00 0. -1.
         11   -1    0    0    0    0 -0.00000000000E+00 -0.00000000000E+00 -0.50000000000E+03  0.50000000000E+03  0.00000000000E+00 0. -1.
        -11    1    1    2    0    0 -0.36517299743E+00  0.80843600605E+01  0.21434905362E+03  0.21450176460E+03  0.00000000000E+00 0. -1.
         11    1    1    2    0    0 -0.47515031289E+01  0.67573142574E+01 -0.49963939429E+03  0.49970767695E+03  0.00000000000E+00 0. -1.
        -15    1    1    2    0    0  0.29108881752E+01 -0.25169987122E+01  0.66206555834E+02  0.66342100637E+02  0.17770000000E+01 0.  1.
         15    1    1    2    0    0  0.22057879511E+01 -0.12324675606E+02  0.21908378483E+03  0.21944845781E+03  0.17770000000E+01 0. -1.
</event>
<event>
 6    1  0.6564965E-004  0.5107015E+03  0.7546771E-02  0.9376178E-01
        -11   -1    0    0    0    0  0.00000000000E+00  0.00000000000E+00  0.50000000000E+03  0.50000000000E+03  0.00000000000E+00 0. -1.
         11   -1    0    0    0    0 -0.00000000000E+00 -0.00000000000E+00 -0.50000000000E+03  0.50000000000E+03  0.00000000000E+00 0. -1.
        -11    1    1    2    0    0 -0.15007843789E+02  0.22238367206E+02  0.48856244945E+03  0.48929852582E+03  0.00000000000E+00 0. -1.
         11    1    1    2    0    0 -0.20639698225E+01  0.98843252641E+01 -0.46334674304E+03  0.46345675542E+03  0.00000000000E+00 0. -1.
        -15    1    1    2    0    0  0.88574831424E+01 -0.20357714571E+02 -0.23989294772E+02  0.32734317509E+02  0.17770000000E+01 0.  1.
         15    1    1    2    0    0  0.82143304686E+01 -0.11764977899E+02 -0.12264116352E+01  0.14510401253E+02  0.17770000000E+01 0. -1.
</event>
<event>
 6    1  0.6564965E-004  0.5018751E+03  0.7546771E-02  0.9395624E-01
        -11   -1    0    0    0    0  0.00000000000E+00  0.00000000000E+00  0.50000000000E+03  0.50000000000E+03  0.00000000000E+00 0. -1.
         11   -1    0    0    0    0 -0.00000000000E+00 -0.00000000000E+00 -0.50000000000E+03  0.50000000000E+03  0.00000000000E+00 0. -1.
        -11    1    1    2    0    0 -0.23493735312E+02  0.51711783755E+01  0.25877964719E+03  0.25989536834E+03  0.00000000000E+00 0. -1.
         11    1    1    2    0    0  0.33230340234E+02 -0.37789329043E+02 -0.49557657197E+03  0.49812491163E+03  0.00000000000E+00 0. -1.
        -15    1    1    2    0    0 -0.20083351714E+02  0.66794681188E+01  0.12098129801E+03  0.12283154525E+03  0.17770000000E+01 0.  1.
         15    1    1    2    0    0  0.10346746792E+02  0.25938682548E+02  0.11581562677E+03  0.11914817478E+03  0.17770000000E+01 0. -1.
</event>
<event>
 6    1  0.6564965E-004  0.5014585E+03  0.7546771E-02  0.9396552E-01
        -11   -1    0    0    0    0  0.00000000000E+00  0.00000000000E+00  0.50000000000E+03  0.50000000000E+03  0.00000000000E+00 0.  1.
         11   -1    0    0    0    0 -0.00000000000E+00 -0.00000000000E+00 -0.50000000000E+03  0.50000000000E+03  0.00000000000E+00 0. -1.
        -11    1    1    2    0    0 -0.54763360479E+01  0.79640121892E+01  0.45566855254E+03  0.45577104507E+03  0.00000000000E+00 0.  1.
         11    1    1    2    0    0 -0.68696097597E+01 -0.82785876202E+00 -0.49849347298E+03  0.49854149225E+03  0.00000000000E+00 0. -1.
        -15    1    1    2    0    0  0.91880483783E+01 -0.66247348895E+01  0.25188143200E+02  0.27675036264E+02  0.17770000000E+01 0. -1.
         15    1    1    2    0    0  0.31578974294E+01 -0.51141853777E+00  0.17636777240E+02  0.18012426419E+02  0.17770000000E+01 0.  1.
</event>
<event>
 6    1  0.6564965E-004  0.5012947E+03  0.7546771E-02  0.9396917E-01
        -11   -1    0    0    0    0  0.00000000000E+00  0.00000000000E+00  0.50000000000E+03  0.50000000000E+03  0.00000000000E+00 0.  1.
         11   -1    0    0    0    0 -0.00000000000E+00 -0.00000000000E+00 -0.50000000000E+03  0.50000000000E+03  0.00000000000E+00 0. -1.
        -11    1    1    2    0    0  0.10640034278E+02 -0.78826732325E+00  0.66812573527E+02  0.67659084210E+02  0.00000000000E+00 0.  1.
         11    1    1    2    0    0 -0.90986460210E+01  0.54979675865E+01 -0.49859195918E+03  0.49870527846E+03  0.00000000000E+00 0. -1.
        -15    1    1    2    0    0 -0.38603906288E+01  0.99717615047E+01  0.36656663780E+03  0.36672686883E+03  0.17770000000E+01 0.  1.
         15    1    1    2    0    0  0.23190023716E+01 -0.14681461768E+02  0.65212747847E+02  0.66908768502E+02  0.17770000000E+01 0. -1.
</event>
<event>
 6    1  0.6564965E-004  0.5048832E+03  0.7546771E-02  0.9388949E-01
        -11   -1    0    0    0    0  0.00000000000E+00  0.00000000000E+00  0.50000000000E+03  0.50000000000E+03  0.00000000000E+00 0.  1.
         11   -1    0    0    0    0 -0.00000000000E+00 -0.00000000000E+00 -0.50000000000E+03  0.50000000000E+03  0.00000000000E+00 0. -1.
        -11    1    1    2    0    0 -0.11710941619E+02 -0.17003439711E+02 -0.15305687327E+02  0.25700723339E+02  0.00000000000E+00 0.  1.
         11    1    1    2    0    0  0.64383747681E+01  0.15655017670E+02 -0.47888336113E+03  0.47918243480E+03  0.00000000000E+00 0. -1.
        -15    1    1    2    0    0  0.13382414646E+01 -0.12884993152E+02  0.32893682446E+03  0.32919660714E+03  0.17770000000E+01 0.  1.
         15    1    1    2    0    0  0.39343253858E+01  0.14233415193E+02  0.16525222400E+03  0.16592023472E+03  0.17770000000E+01 0. -1.
</event>
<event>
 6    1  0.6564965E-004  0.5010015E+03  0.7546771E-02  0.9397572E-01
        -11   -1    0    0    0    0  0.00000000000E+00  0.00000000000E+00  0.50000000000E+03  0.50000000000E+03  0.00000000000E+00 0. -1.
         11   -1    0    0    0    0 -0.00000000000E+00 -0.00000000000E+00 -0.50000000000E+03  0.50000000000E+03  0.00000000000E+00 0. -1.
        -11    1    1    2    0    0 -0.62517819583E+01 -0.23270799430E+01  0.30179442898E+02  0.30907909220E+02  0.00000000000E+00 0. -1.
         11    1    1    2    0    0 -0.13921512219E+02  0.17214946673E+02 -0.49850712198E+03  0.49899851058E+03  0.00000000000E+00 0. -1.
        -15    1    1    2    0    0  0.19970659720E+02 -0.15829618318E+02  0.46694815155E+03  0.46764638139E+03  0.17770000000E+01 0. -1.
         15    1    1    2    0    0  0.20263445742E+00  0.94175158784E+00  0.13795275354E+01  0.24471988063E+01  0.17770000000E+01 0. -1.
</event>
<event>
 6    1  0.6564965E-004  0.5003187E+03  0.7546771E-02  0.9399097E-01
        -11   -1    0    0    0    0  0.00000000000E+00  0.00000000000E+00  0.50000000000E+03  0.50000000000E+03  0.00000000000E+00 0.  1.
         11   -1    0    0    0    0 -0.00000000000E+00 -0.00000000000E+00 -0.50000000000E+03  0.50000000000E+03  0.00000000000E+00 0. -1.
        -11    1    1    2    0    0  0.68246754239E+01  0.25491843701E+01  0.34349082484E+03  0.34356807372E+03  0.00000000000E+00 0.  1.
         11    1    1    2    0    0  0.49126337345E+01 -0.84450242774E+01 -0.49958579727E+03  0.49968131968E+03  0.00000000000E+00 0. -1.
        -15    1    1    2    0    0 -0.16100742263E+01  0.14080194041E+01  0.19739846463E+02  0.19934746676E+02  0.17770000000E+01 0. -1.
         15    1    1    2    0    0 -0.10127234932E+02  0.44878205032E+01  0.13635512597E+03  0.13681585992E+03  0.17770000000E+01 0.  1.
</event>
<event>
 6    1  0.6564965E-004  0.5002455E+03  0.7546771E-02  0.9399260E-01
        -11   -1    0    0    0    0  0.00000000000E+00  0.00000000000E+00  0.50000000000E+03  0.50000000000E+03  0.00000000000E+00 0. -1.
         11   -1    0    0    0    0 -0.00000000000E+00 -0.00000000000E+00 -0.50000000000E+03  0.50000000000E+03  0.00000000000E+00 0. -1.
        -11    1    1    2    0    0 -0.71179373653E+01 -0.15659419487E+02  0.49945833560E+03  0.49975445115E+03  0.00000000000E+00 0. -1.
         11    1    1    2    0    0 -0.66832399068E+00  0.81810249050E+00 -0.34085968210E+02  0.34102333900E+02  0.00000000000E+00 0. -1.
        -15    1    1    2    0    0  0.68411992967E+01  0.19749784403E+02 -0.32926576337E+03  0.32993326090E+03  0.17770000000E+01 0. -1.
         15    1    1    2    0    0  0.94506205933E+00 -0.49084674067E+01 -0.13610660402E+03  0.13620995405E+03  0.17770000000E+01 0.  1.
</event>
<event>
 6    1  0.6564965E-004  0.5002499E+03  0.7546771E-02  0.9399251E-01
        -11   -1    0    0    0    0  0.00000000000E+00  0.00000000000E+00  0.50000000000E+03  0.50000000000E+03  0.00000000000E+00 0. -1.
         11   -1    0    0    0    0 -0.00000000000E+00 -0.00000000000E+00 -0.50000000000E+03  0.50000000000E+03  0.00000000000E+00 0. -1.
        -11    1    1    2    0    0  0.26195527468E+01 -0.66093049325E+01  0.49083806279E+02  0.49596018057E+02  0.00000000000E+00 0. -1.
         11    1    1    2    0    0 -0.60466224997E+01  0.59619200990E+01 -0.49967799145E+03  0.49975013884E+03  0.00000000000E+00 0. -1.
        -15    1    1    2    0    0  0.37393206622E+01  0.23821575889E+01  0.32039164929E+03  0.32042725205E+03  0.17770000000E+01 0.  1.
         15    1    1    2    0    0 -0.31225090932E+00 -0.17347727554E+01  0.13020253588E+03  0.13022659105E+03  0.17770000000E+01 0. -1.
</event>
<event>
 6    1  0.6564965E-004  0.5013427E+03  0.7546771E-02  0.9396810E-01
        -11   -1    0    0    0    0  0.00000000000E+00  0.00000000000E+00  0.50000000000E+03  0.50000000000E+03  0.00000000000E+00 0. -1.
         11   -1    0    0    0    0 -0.00000000000E+00 -0.00000000000E+00 -0.50000000000E+03  0.50000000000E+03  0.00000000000E+00 0. -1.
        -11    1    1    2    0    0 -0.65758877787E+00 -0.17846876613E+02  0.60402785500E+02  0.62987617227E+02  0.00000000000E+00 0. -1.
         11    1    1    2    0    0  0.22946041556E+01  0.86559146450E+01 -0.49857685107E+03  0.49865726355E+03  0.00000000000E+00 0. -1.
        -15    1    1    2    0    0  0.15720837553E+01 -0.30810737274E-01  0.52811899605E+02  0.52865176302E+02  0.17770000000E+01 0. -1.
         15    1    1    2    0    0 -0.32090991330E+01  0.92217727049E+01  0.38536216596E+03  0.38548994292E+03  0.17770000000E+01 0. -1.
</event>
<event>
 6    1  0.6564965E-004  0.5109629E+03  0.7546771E-02  0.9375608E-01
        -11   -1    0    0    0    0  0.00000000000E+00  0.00000000000E+00  0.50000000000E+03  0.50000000000E+03  0.00000000000E+00 0. -1.
         11   -1    0    0    0    0 -0.00000000000E+00 -0.00000000000E+00 -0.50000000000E+03  0.50000000000E+03  0.00000000000E+00 0.  1.
        -11    1    1    2    0    0 -0.19656392866E+02 -0.27406103902E+02  0.48787277288E+03  0.48903712622E+03  0.00000000000E+00 0. -1.
         11    1    1    2    0    0 -0.90033076034E+01  0.48995173928E+01 -0.45343187707E+03  0.45354771740E+03  0.00000000000E+00 0.  1.
        -15    1    1    2    0    0  0.20906761794E+02  0.28504585195E+02 -0.30426308460E+02  0.46674640238E+02  0.17770000000E+01 0. -1.
         15    1    1    2    0    0  0.77529386756E+01 -0.59979986861E+01 -0.40145873515E+01  0.10740516140E+02  0.17770000000E+01 0.  1.
</event>
<event>
 6    1  0.6564965E-004  0.5030395E+03  0.7546771E-02  0.9393034E-01
        -11   -1    0    0    0    0  0.00000000000E+00  0.00000000000E+00  0.50000000000E+03  0.50000000000E+03  0.00000000000E+00 0.  1.
         11   -1    0    0    0    0 -0.00000000000E+00 -0.00000000000E+00 -0.50000000000E+03  0.50000000000E+03  0.00000000000E+00 0. -1.
        -11    1    1    2    0    0  0.48239494744E+01  0.24989437202E+02  0.43561938843E+03  0.43636222801E+03  0.00000000000E+00 0.  1.
         11    1    1    2    0    0  0.61764578078E+01 -0.73512757131E+01 -0.49686772402E+03  0.49696048641E+03  0.00000000000E+00 0. -1.
        -15    1    1    2    0    0 -0.89973661545E+01 -0.12386026629E+01  0.16129392554E+02  0.18595745950E+02  0.17770000000E+01 0.  1.
         15    1    1    2    0    0 -0.20030411276E+01 -0.16399558826E+02  0.45118943031E+02  0.48081539625E+02  0.17770000000E+01 0. -1.
</event>
<event>
 6    1  0.6564965E-004  0.5002298E+03  0.7546771E-02  0.9399296E-01
        -11   -1    0    0    0    0  0.00000000000E+00  0.00000000000E+00  0.50000000000E+03  0.50000000000E+03  0.00000000000E+00 0.  1.
         11   -1    0    0    0    0 -0.00000000000E+00 -0.00000000000E+00 -0.50000000000E+03  0.50000000000E+03  0.00000000000E+00 0. -1.
        -11    1    1    2    0    0  0.60351391029E+01 -0.45171664942E+00  0.13019603121E+03  0.13033661609E+03  0.00000000000E+00 0.  1.
         11    1    1    2    0    0 -0.50779324305E+01  0.80917863942E+01 -0.49967893444E+03  0.49977024714E+03  0.00000000000E+00 0. -1.
        -15    1    1    2    0    0 -0.35291596781E+01 -0.99772145203E+01  0.33784303901E+03  0.33801342653E+03  0.17770000000E+01 0.  1.
         15    1    1    2    0    0  0.25719530057E+01  0.23371447756E+01  0.31639864222E+02  0.31879710240E+02  0.17770000000E+01 0.  1.
</event>
<event>
 6    1  0.6564965E-004  0.5080076E+03  0.7546771E-02  0.9382068E-01
        -11   -1    0    0    0    0  0.00000000000E+00  0.00000000000E+00  0.50000000000E+03  0.50000000000E+03  0.00000000000E+00 0. -1.
         11   -1    0    0    0    0 -0.00000000000E+00 -0.00000000000E+00 -0.50000000000E+03  0.50000000000E+03  0.00000000000E+00 0.  1.
        -11    1    1    2    0    0 -0.42300736345E+02  0.74477356429E+01  0.49011398315E+03  0.49199241614E+03  0.00000000000E+00 0. -1.
         11    1    1    2    0    0 -0.10480144115E+01  0.71737663879E+01 -0.40779933112E+03  0.40786377103E+03  0.00000000000E+00 0.  1.
        -15    1    1    2    0    0  0.12953139484E+02  0.11089589322E+02 -0.26515577473E+02  0.31575249667E+02  0.17770000000E+01 0.  1.
         15    1    1    2    0    0  0.30395611272E+02 -0.25711091353E+02 -0.55799074560E+02  0.68568563161E+02  0.17770000000E+01 0. -1.
</event>
<event>
 6    1  0.6564965E-004  0.5126230E+03  0.7546771E-02  0.9371999E-01
        -11   -1    0    0    0    0  0.00000000000E+00  0.00000000000E+00  0.50000000000E+03  0.50000000000E+03  0.00000000000E+00 0.  1.
         11   -1    0    0    0    0 -0.00000000000E+00 -0.00000000000E+00 -0.50000000000E+03  0.50000000000E+03  0.00000000000E+00 0.  1.
        -11    1    1    2    0    0  0.44512285094E+02  0.48102950794E+02  0.48295041802E+03  0.48737700363E+03  0.00000000000E+00 0.  1.
         11    1    1    2    0    0  0.65836343845E+01 -0.51144332775E+00 -0.40123663404E+03  0.40129096964E+03  0.00000000000E+00 0.  1.
        -15    1    1    2    0    0 -0.12860954027E+01 -0.50693970109E+01 -0.22012158325E+02  0.22694617656E+02  0.17770000000E+01 0.  1.
         15    1    1    2    0    0 -0.49809824076E+02 -0.42522110455E+02 -0.59701625655E+02  0.88637409072E+02  0.17770000000E+01 0. -1.
</event>
<event>
 6    1  0.6564965E-004  0.5067887E+03  0.7546771E-02  0.9384746E-01
        -11   -1    0    0    0    0  0.00000000000E+00  0.00000000000E+00  0.50000000000E+03  0.50000000000E+03  0.00000000000E+00 0. -1.
         11   -1    0    0    0    0 -0.00000000000E+00 -0.00000000000E+00 -0.50000000000E+03  0.50000000000E+03  0.00000000000E+00 0. -1.
        -11    1    1    2    0    0 -0.44863094641E+03 -0.14648036902E+03  0.26733889216E+02  0.47269538333E+03  0.00000000000E+00 0. -1.
         11    1    1    2    0    0  0.46627785402E+03  0.15147347791E+03 -0.53833960529E+02  0.49321125998E+03  0.00000000000E+00 0. -1.
        -15    1    1    2    0    0 -0.60058876674E+01  0.24837378847E+01  0.87955494728E+01  0.11079668771E+02  0.17770000000E+01 0.  1.
         15    1    1    2    0    0 -0.11641019945E+02 -0.74768467742E+01  0.18304521840E+02  0.23013687924E+02  0.17770000000E+01 0. -1.
</event>
<event>
 6    1  0.6564965E-004  0.5018166E+03  0.7546771E-02  0.9395754E-01
        -11   -1    0    0    0    0  0.00000000000E+00  0.00000000000E+00  0.50000000000E+03  0.50000000000E+03  0.00000000000E+00 0. -1.
         11   -1    0    0    0    0 -0.00000000000E+00 -0.00000000000E+00 -0.50000000000E+03  0.50000000000E+03  0.00000000000E+00 0.  1.
        -11    1    1    2    0    0  0.89644591128E+01 -0.54942450315E+01  0.49807246899E+03  0.49818343270E+03  0.00000000000E+00 0. -1.
         11    1    1    2    0    0 -0.42126476270E+01 -0.78522622780E+01 -0.44771159377E+03  0.44780026308E+03  0.00000000000E+00 0.  1.
        -15    1    1    2    0    0 -0.12964196243E+01  0.70737039415E+01 -0.42856413749E+02  0.43491929363E+02  0.17770000000E+01 0.  1.
         15    1    1    2    0    0 -0.34553918616E+01  0.62728033680E+01 -0.75044614701E+01  0.10524374849E+02  0.17770000000E+01 0. -1.
</event>
<event>
 6    1  0.6564965E-004  0.5029368E+03  0.7546771E-02  0.9393262E-01
        -11   -1    0    0    0    0  0.00000000000E+00  0.00000000000E+00  0.50000000000E+03  0.50000000000E+03  0.00000000000E+00 0.  1.
         11   -1    0    0    0    0 -0.00000000000E+00 -0.00000000000E+00 -0.50000000000E+03  0.50000000000E+03  0.00000000000E+00 0. -1.
        -11    1    1    2    0    0 -0.28489953947E+02  0.62311477423E+01 -0.71826536581E+02  0.77521326325E+02  0.00000000000E+00 0.  1.
         11    1    1    2    0    0  0.40771214126E+02  0.12020980675E+01 -0.42345553728E+03  0.42541547809E+03  0.00000000000E+00 0. -1.
        -15    1    1    2    0    0 -0.25464482236E+02 -0.10525926158E+02  0.28358102448E+03  0.28492207733E+03  0.17770000000E+01 0.  1.
         15    1    1    2    0    0  0.13183222057E+02  0.30926803487E+01  0.21170104938E+03  0.21214111826E+03  0.17770000000E+01 0. -1.
</event>
<event>
 6    1  0.6564965E-004  0.5014484E+03  0.7546771E-02  0.9396575E-01
        -11   -1    0    0    0    0  0.00000000000E+00  0.00000000000E+00  0.50000000000E+03  0.50000000000E+03  0.00000000000E+00 0. -1.
         11   -1    0    0    0    0 -0.00000000000E+00 -0.00000000000E+00 -0.50000000000E+03  0.50000000000E+03  0.00000000000E+00 0. -1.
        -11    1    1    2    0    0  0.16793564530E+01 -0.34698468821E+02  0.18241561988E+03  0.18569400193E+03  0.00000000000E+00 0. -1.
         11    1    1    2    0    0 -0.35272579319E+01  0.24184173116E+02 -0.49795218885E+03  0.49855160030E+03  0.00000000000E+00 0. -1.
        -15    1    1    2    0    0  0.13822457253E+01  0.46973420647E+01  0.18783759750E+03  0.18790980919E+03  0.17770000000E+01 0. -1.
         15    1    1    2    0    0  0.46565575362E+00  0.58169536405E+01  0.12769897147E+03  0.12784458858E+03  0.17770000000E+01 0. -1.
</event>
<event>
 6    1  0.6564965E-004  0.5008474E+03  0.7546771E-02  0.9397916E-01
        -11   -1    0    0    0    0  0.00000000000E+00  0.00000000000E+00  0.50000000000E+03  0.50000000000E+03  0.00000000000E+00 0.  1.
         11   -1    0    0    0    0 -0.00000000000E+00 -0.00000000000E+00 -0.50000000000E+03  0.50000000000E+03  0.00000000000E+00 0.  1.
        -11    1    1    2    0    0 -0.10128707192E+02 -0.13072333867E+01  0.49904813076E+03  0.49915261832E+03  0.00000000000E+00 0.  1.
         11    1    1    2    0    0  0.73275057090E+01  0.10216196362E+02 -0.40309672025E+03  0.40329273349E+03  0.00000000000E+00 0.  1.
        -15    1    1    2    0    0  0.82450643971E+01 -0.82410336893E+01 -0.60685190274E+02  0.61820269902E+02  0.17770000000E+01 0. -1.
         15    1    1    2    0    0 -0.54438629136E+01 -0.66792928611E+00 -0.35266220236E+02  0.35734378288E+02  0.17770000000E+01 0.  1.
</event>
<event>
 6    1  0.6564965E-004  0.4557580E+03  0.7546771E-02  0.9504638E-01
        -11   -1    0    0    0    0  0.00000000000E+00  0.00000000000E+00  0.50000000000E+03  0.50000000000E+03  0.00000000000E+00 0.  1.
         11   -1    0    0    0    0 -0.00000000000E+00 -0.00000000000E+00 -0.50000000000E+03  0.50000000000E+03  0.00000000000E+00 0.  1.
        -11    1    1    2    0    0 -0.19312074893E+02 -0.16113325378E+02  0.46745677864E+03  0.46813292492E+03  0.00000000000E+00 0.  1.
         11    1    1    2    0    0 -0.14909822785E+02 -0.90468950110E+01 -0.44432333938E+03  0.44466546869E+03  0.00000000000E+00 0.  1.
        -15    1    1    2    0    0  0.42591555808E+02  0.47065601372E+01 -0.40538656161E+02  0.59014682130E+02  0.17770000000E+01 0. -1.
         15    1    1    2    0    0 -0.83696581304E+01  0.20453660252E+02  0.17405216904E+02  0.28186924263E+02  0.17770000000E+01 0.  1.
</event>
<event>
 6    1  0.6564965E-004  0.5007091E+03  0.7546771E-02  0.9398224E-01
        -11   -1    0    0    0    0  0.00000000000E+00  0.00000000000E+00  0.50000000000E+03  0.50000000000E+03  0.00000000000E+00 0.  1.
         11   -1    0    0    0    0 -0.00000000000E+00 -0.00000000000E+00 -0.50000000000E+03  0.50000000000E+03  0.00000000000E+00 0.  1.
        -11    1    1    2    0    0 -0.51802078343E+01  0.14992348491E+02  0.34716862128E+03  0.34753079960E+03  0.00000000000E+00 0.  1.
         11    1    1    2    0    0 -0.77269567940E+01 -0.41265574207E+01 -0.49921402242E+03  0.49929087165E+03  0.00000000000E+00 0.  1.
        -15    1    1    2    0    0  0.80312108408E+01 -0.79706749847E+01  0.12294373627E+03  0.12347611925E+03  0.17770000000E+01 0.  1.
         15    1    1    2    0    0  0.48759537875E+01 -0.28951160852E+01  0.29101664864E+02  0.29702209503E+02  0.17770000000E+01 0. -1.
</event>
<event>
 6    1  0.6564965E-004  0.5054919E+03  0.7546771E-02  0.9387604E-01
        -11   -1    0    0    0    0  0.00000000000E+00  0.00000000000E+00  0.50000000000E+03  0.50000000000E+03  0.00000000000E+00 0.  1.
         11   -1    0    0    0    0 -0.00000000000E+00 -0.00000000000E+00 -0.50000000000E+03  0.50000000000E+03  0.00000000000E+00 0. -1.
        -11    1    1    2    0    0 -0.20192540848E+02  0.34709066002E+01  0.49408342244E+03  0.49450805274E+03  0.00000000000E+00 0.  1.
         11    1    1    2    0    0  0.20120596136E+01  0.70446323031E+01 -0.44296569326E+03  0.44302627533E+03  0.00000000000E+00 0. -1.
        -15    1    1    2    0    0  0.11773591718E+02  0.12775083724E+01 -0.28151350561E+01  0.12301715489E+02  0.17770000000E+01 0.  1.
         15    1    1    2    0    0  0.64068895168E+01 -0.11793047276E+02 -0.48302594120E+02  0.50163956433E+02  0.17770000000E+01 0. -1.
</event>
<event>
 6    1  0.6564965E-004  0.5045402E+03  0.7546771E-02  0.9389708E-01
        -11   -1    0    0    0    0  0.00000000000E+00  0.00000000000E+00  0.50000000000E+03  0.50000000000E+03  0.00000000000E+00 0.  1.
         11   -1    0    0    0    0 -0.00000000000E+00 -0.00000000000E+00 -0.50000000000E+03  0.50000000000E+03  0.00000000000E+00 0. -1.
        -11    1    1    2    0    0 -0.21086206503E+02  0.50045959083E+01  0.44972679993E+03  0.45024867425E+03  0.00000000000E+00 0.  1.
         11    1    1    2    0    0 -0.72260759301E-01  0.70000344625E+01 -0.49541034918E+03  0.49545980642E+03  0.00000000000E+00 0. -1.
        -15    1    1    2    0    0  0.18401362783E+02 -0.77318080251E+01  0.20998623993E+02  0.29025694586E+02  0.17770000000E+01 0.  1.
         15    1    1    2    0    0  0.27571044790E+01 -0.42728223457E+01  0.24684925258E+02  0.25265824742E+02  0.17770000000E+01 0. -1.
</event>
<event>
 6    1  0.6564965E-004  0.5012596E+03  0.7546771E-02  0.9396996E-01
        -11   -1    0    0    0    0  0.00000000000E+00  0.00000000000E+00  0.50000000000E+03  0.50000000000E+03  0.00000000000E+00 0.  1.
         11   -1    0    0    0    0 -0.00000000000E+00 -0.00000000000E+00 -0.50000000000E+03  0.50000000000E+03  0.00000000000E+00 0. -1.
        -11    1    1    2    0    0  0.37898433014E+01  0.12252118484E+02  0.33480348346E+02  0.35852629541E+02  0.00000000000E+00 0.  1.
         11    1    1    2    0    0  0.49108331482E+01 -0.73295022474E+01 -0.49866233524E+03  0.49874037582E+03  0.00000000000E+00 0. -1.
        -15    1    1    2    0    0  0.14909005700E+01  0.88877175558E+00  0.10585558726E+03  0.10588472875E+03  0.17770000000E+01 0. -1.
         15    1    1    2    0    0 -0.10191577020E+02 -0.58113879921E+01  0.35932639963E+03  0.35952226589E+03  0.17770000000E+01 0.  1.
</event>
<event>
 6    1  0.6564965E-004  0.5062567E+03  0.7546771E-02  0.9385918E-01
        -11   -1    0    0    0    0  0.00000000000E+00  0.00000000000E+00  0.50000000000E+03  0.50000000000E+03  0.00000000000E+00 0.  1.
         11   -1    0    0    0    0 -0.00000000000E+00 -0.00000000000E+00 -0.50000000000E+03  0.50000000000E+03  0.00000000000E+00 0. -1.
        -11    1    1    2    0    0  0.14363922837E+02 -0.48648249210E+01  0.44925242108E+03  0.44950831655E+03  0.00000000000E+00 0.  1.
         11    1    1    2    0    0  0.10946828612E+02  0.59482638846E+01 -0.49358613756E+03  0.49374334435E+03  0.00000000000E+00 0. -1.
        -15    1    1    2    0    0 -0.17116629849E+02 -0.15261877179E+01  0.45120914931E+02  0.48315245623E+02  0.17770000000E+01 0. -1.
         15    1    1    2    0    0 -0.81941215998E+01  0.44274875431E+00 -0.78719844747E+00  0.84330934803E+01  0.17770000000E+01 0.  1.
</event>
<event>
 6    1  0.6564965E-004  0.5006451E+03  0.7546771E-02  0.9398367E-01
        -11   -1    0    0    0    0  0.00000000000E+00  0.00000000000E+00  0.50000000000E+03  0.50000000000E+03  0.00000000000E+00 0.  1.
         11   -1    0    0    0    0 -0.00000000000E+00 -0.00000000000E+00 -0.50000000000E+03  0.50000000000E+03  0.00000000000E+00 0.  1.
        -11    1    1    2    0    0 -0.22946237295E+02  0.20933424882E+02  0.30698037536E+03  0.30854770934E+03  0.00000000000E+00 0.  1.
         11    1    1    2    0    0  0.20983114024E+02 -0.11669535643E+02 -0.49877735103E+03  0.49935489888E+03  0.00000000000E+00 0.  1.
        -15    1    1    2    0    0  0.62359158002E+00 -0.19090081812E+01  0.30564070714E+02  0.30681481814E+02  0.17770000000E+01 0.  1.
         15    1    1    2    0    0  0.13395316903E+01 -0.73548810584E+01  0.16123290496E+03  0.16141590997E+03  0.17770000000E+01 0.  1.
</event>
<event>
 6    1  0.6564965E-004  0.5003958E+03  0.7546771E-02  0.9398924E-01
        -11   -1    0    0    0    0  0.00000000000E+00  0.00000000000E+00  0.50000000000E+03  0.50000000000E+03  0.00000000000E+00 0. -1.
         11   -1    0    0    0    0 -0.00000000000E+00 -0.00000000000E+00 -0.50000000000E+03  0.50000000000E+03  0.00000000000E+00 0. -1.
        -11    1    1    2    0    0  0.66498662724E+01 -0.38915846786E+01  0.49954475588E+03  0.49960417160E+03  0.00000000000E+00 0. -1.
         11    1    1    2    0    0  0.87670678629E+01  0.20802019367E+01 -0.25155643339E+03  0.25171775444E+03  0.00000000000E+00 0. -1.
        -15    1    1    2    0    0 -0.12536126291E+02 -0.21597728281E+01 -0.14911610442E+03  0.14966826453E+03  0.17770000000E+01 0. -1.
         15    1    1    2    0    0 -0.28808078442E+01  0.39711555699E+01 -0.98872218066E+02  0.99009809437E+02  0.17770000000E+01 0.  1.
</event>
<event>
 6    1  0.6564965E-004  0.5001451E+03  0.7546771E-02  0.9399485E-01
        -11   -1    0    0    0    0  0.00000000000E+00  0.00000000000E+00  0.50000000000E+03  0.50000000000E+03  0.00000000000E+00 0. -1.
         11   -1    0    0    0    0 -0.00000000000E+00 -0.00000000000E+00 -0.50000000000E+03  0.50000000000E+03  0.00000000000E+00 0. -1.
        -11    1    1    2    0    0 -0.83820784065E+01  0.50727164017E+01  0.49975889009E+03  0.49985491886E+03  0.00000000000E+00 0. -1.
         11    1    1    2    0    0  0.58614810325E+01  0.36682673010E+01 -0.31947052839E+03  0.31954535148E+03  0.00000000000E+00 0. -1.
        -15    1    1    2    0    0  0.22497671424E+01 -0.68345343605E+01 -0.15473125657E+03  0.15490865631E+03  0.17770000000E+01 0.  1.
         15    1    1    2    0    0  0.27083023166E+00 -0.19064493422E+01 -0.25557105128E+02  0.25691073345E+02  0.17770000000E+01 0. -1.
</event>
<event>
 6    1  0.6564965E-004  0.4780803E+03  0.7546771E-02  0.9450238E-01
        -11   -1    0    0    0    0  0.00000000000E+00  0.00000000000E+00  0.50000000000E+03  0.50000000000E+03  0.00000000000E+00 0. -1.
         11   -1    0    0    0    0 -0.00000000000E+00 -0.00000000000E+00 -0.50000000000E+03  0.50000000000E+03  0.00000000000E+00 0.  1.
        -11    1    1    2    0    0  0.40258312956E+02 -0.18898015953E+01 -0.16350674693E+02  0.43493076173E+02  0.00000000000E+00 0. -1.
         11    1    1    2    0    0 -0.34975372260E+02 -0.12186034544E+02 -0.46891531973E+03  0.47037575743E+03  0.00000000000E+00 0.  1.
        -15    1    1    2    0    0 -0.89992525797E+01 -0.41855399695E+01  0.14449216703E+03  0.14484353404E+03  0.17770000000E+01 0.  1.
         15    1    1    2    0    0  0.37163118845E+01  0.18261376109E+02  0.34077382740E+03  0.34128763236E+03  0.17770000000E+01 0. -1.
</event>
<event>
 6    1  0.6564965E-004  0.4907626E+03  0.7546771E-02  0.9420720E-01
        -11   -1    0    0    0    0  0.00000000000E+00  0.00000000000E+00  0.50000000000E+03  0.50000000000E+03  0.00000000000E+00 0. -1.
         11   -1    0    0    0    0 -0.00000000000E+00 -0.00000000000E+00 -0.50000000000E+03  0.50000000000E+03  0.00000000000E+00 0.  1.
        -11    1    1    2    0    0  0.26364822020E+02  0.35549155485E+01  0.49066984616E+03  0.49139051598E+03  0.00000000000E+00 0. -1.
         11    1    1    2    0    0 -0.11546390009E+02 -0.32854377025E+01 -0.49009974153E+03  0.49024674387E+03  0.00000000000E+00 0.  1.
        -15    1    1    2    0    0 -0.68686625870E+00 -0.29980870273E+01 -0.14442121667E+01  0.38345519769E+01  0.17770000000E+01 0. -1.
         15    1    1    2    0    0 -0.14131565752E+02  0.27286091814E+01  0.87410753421E+00  0.14528188175E+02  0.17770000000E+01 0. -1.
</event>
<event>
 6    1  0.6564965E-004  0.5000372E+03  0.7546771E-02  0.9399726E-01
        -11   -1    0    0    0    0  0.00000000000E+00  0.00000000000E+00  0.50000000000E+03  0.50000000000E+03  0.00000000000E+00 0.  1.
         11   -1    0    0    0    0 -0.00000000000E+00 -0.00000000000E+00 -0.50000000000E+03  0.50000000000E+03  0.00000000000E+00 0.  1.
        -11    1    1    2    0    0 -0.19035230161E+01  0.24607208144E+01  0.72540403298E+02  0.72607084072E+02  0.00000000000E+00 0.  1.
         11    1    1    2    0    0  0.76111919422E+01 -0.50508811388E+01 -0.49987934356E+03  0.49996279838E+03  0.00000000000E+00 0.  1.
        -15    1    1    2    0    0 -0.11606543767E+01  0.31924110732E+01  0.21532472200E+03  0.21535884528E+03  0.17770000000E+01 0.  1.
         15    1    1    2    0    0 -0.45470145495E+01 -0.60225074878E+00  0.21201421827E+03  0.21207127227E+03  0.17770000000E+01 0. -1.
</event>
<event>
 6    1  0.6564965E-004  0.5005811E+03  0.7546771E-02  0.9398510E-01
        -11   -1    0    0    0    0  0.00000000000E+00  0.00000000000E+00  0.50000000000E+03  0.50000000000E+03  0.00000000000E+00 0. -1.
         11   -1    0    0    0    0 -0.00000000000E+00 -0.00000000000E+00 -0.50000000000E+03  0.50000000000E+03  0.00000000000E+00 0. -1.
        -11    1    1    2    0    0  0.19521561776E+02  0.18538863869E+02  0.49869271139E+03  0.49941886352E+03  0.00000000000E+00 0. -1.
         11    1    1    2    0    0 -0.52253626239E+01  0.33248498679E+01 -0.29539914863E+03  0.29546406897E+03  0.00000000000E+00 0. -1.
        -15    1    1    2    0    0 -0.39760294045E+01 -0.11166026248E+02 -0.74752469337E+02  0.75707188252E+02  0.17770000000E+01 0. -1.
         15    1    1    2    0    0 -0.10320169748E+02 -0.10697687489E+02 -0.12854109342E+03  0.12940987925E+03  0.17770000000E+01 0.  1.
</event>
<event>
 6    1  0.6564965E-004  0.5002372E+03  0.7546771E-02  0.9399279E-01
        -11   -1    0    0    0    0  0.00000000000E+00  0.00000000000E+00  0.50000000000E+03  0.50000000000E+03  0.00000000000E+00 0.  1.
         11   -1    0    0    0    0 -0.00000000000E+00 -0.00000000000E+00 -0.50000000000E+03  0.50000000000E+03  0.00000000000E+00 0.  1.
        -11    1    1    2    0    0  0.16725303502E+02 -0.42754828580E+01  0.18383540219E+03  0.18464417301E+03  0.00000000000E+00 0.  1.
         11    1    1    2    0    0 -0.24341187084E+02 -0.50449592851E+01 -0.49914421934E+03  0.49976284046E+03  0.00000000000E+00 0.  1.
        -15    1    1    2    0    0  0.17165276033E+01  0.50034354777E+00  0.77359355452E+02  0.77400416121E+02  0.17770000000E+01 0.  1.
         15    1    1    2    0    0  0.58993559794E+01  0.88200985953E+01  0.23794946171E+03  0.23819257040E+03  0.17770000000E+01 0.  1.
</event>
<event>
 6    1  0.6564965E-004  0.5022931E+03  0.7546771E-02  0.9394693E-01
        -11   -1    0    0    0    0  0.00000000000E+00  0.00000000000E+00  0.50000000000E+03  0.50000000000E+03  0.00000000000E+00 0. -1.
         11   -1    0    0    0    0 -0.00000000000E+00 -0.00000000000E+00 -0.50000000000E+03  0.50000000000E+03  0.00000000000E+00 0. -1.
        -11    1    1    2    0    0 -0.17435536758E+01  0.24622008330E+02  0.11975160760E+03  0.12226909174E+03  0.00000000000E+00 0. -1.
         11    1    1    2    0    0 -0.29188810823E+02 -0.19526844073E+02 -0.49646642306E+03  0.49770693540E+03  0.00000000000E+00 0. -1.
        -15    1    1    2    0    0  0.22541111423E+02 -0.13022790895E+02  0.34865946314E+03  0.34963448593E+03  0.17770000000E+01 0. -1.
         15    1    1    2    0    0  0.83912530758E+01  0.79276266374E+01  0.28055352325E+02  0.30389486922E+02  0.17770000000E+01 0.  1.
</event>
<event>
 6    1  0.6564965E-004  0.5021741E+03  0.7546771E-02  0.9394958E-01
        -11   -1    0    0    0    0  0.00000000000E+00  0.00000000000E+00  0.50000000000E+03  0.50000000000E+03  0.00000000000E+00 0.  1.
         11   -1    0    0    0    0 -0.00000000000E+00 -0.00000000000E+00 -0.50000000000E+03  0.50000000000E+03  0.00000000000E+00 0.  1.
        -11    1    1    2    0    0  0.19970254908E+02  0.83076640462E+01  0.27263804618E+03  0.27349466648E+03  0.00000000000E+00 0.  1.
         11    1    1    2    0    0 -0.44203424881E+01 -0.52907399015E+01 -0.49777817352E+03  0.49782591474E+03  0.00000000000E+00 0.  1.
        -15    1    1    2    0    0 -0.23609279842E+01  0.22406789086E+01  0.68806388996E+00  0.37717083443E+01  0.17770000000E+01 0. -1.
         15    1    1    2    0    0 -0.13188984436E+02 -0.52576030533E+01  0.22445206345E+03  0.22490771044E+03  0.17770000000E+01 0.  1.
</event>
<event>
 6    1  0.6564965E-004  0.5004802E+03  0.7546771E-02  0.9398736E-01
        -11   -1    0    0    0    0  0.00000000000E+00  0.00000000000E+00  0.50000000000E+03  0.50000000000E+03  0.00000000000E+00 0.  1.
         11   -1    0    0    0    0 -0.00000000000E+00 -0.00000000000E+00 -0.50000000000E+03  0.50000000000E+03  0.00000000000E+00 0.  1.
        -11    1    1    2    0    0  0.10101548082E+02 -0.19597533574E+01  0.49941385348E+03  0.49951984841E+03  0.00000000000E+00 0.  1.
         11    1    1    2    0    0 -0.40402091499E+01  0.47779054049E+01 -0.36817674794E+03  0.36822991377E+03  0.00000000000E+00 0.  1.
        -15    1    1    2    0    0 -0.15806993535E+01 -0.33804868888E+01 -0.88571761434E+01  0.97741291319E+01  0.17770000000E+01 0. -1.
         15    1    1    2    0    0 -0.44806395790E+01  0.56233484130E+00 -0.12237992940E+03  0.12247610869E+03  0.17770000000E+01 0.  1.
</event>
<event>
 6    1  0.6564965E-004  0.5000285E+03  0.7546771E-02  0.9399746E-01
        -11   -1    0    0    0    0  0.00000000000E+00  0.00000000000E+00  0.50000000000E+03  0.50000000000E+03  0.00000000000E+00 0. -1.
         11   -1    0    0    0    0 -0.00000000000E+00 -0.00000000000E+00 -0.50000000000E+03  0.50000000000E+03  0.00000000000E+00 0.  1.
        -11    1    1    2    0    0 -0.22742976888E+01 -0.39689013911E+01  0.27508552640E+03  0.27512355669E+03  0.00000000000E+00 0. -1.
         11    1    1    2    0    0  0.79077390298E+00  0.77078397395E+01 -0.49991143529E+03  0.49997147844E+03  0.00000000000E+00 0.  1.
        -15    1    1    2    0    0  0.17064856406E+01 -0.32787884840E+01  0.16148343745E+03  0.16153550955E+03  0.17770000000E+01 0. -1.
         15    1    1    2    0    0 -0.22296185474E+00 -0.46014986429E+00  0.63342471442E+02  0.63369455317E+02  0.17770000000E+01 0. -1.
</event>
<event>
 6    1  0.6564965E-004  0.5006597E+03  0.7546771E-02  0.9398335E-01
        -11   -1    0    0    0    0  0.00000000000E+00  0.00000000000E+00  0.50000000000E+03  0.50000000000E+03  0.00000000000E+00 0. -1.
         11   -1    0    0    0    0 -0.00000000000E+00 -0.00000000000E+00 -0.50000000000E+03  0.50000000000E+03  0.00000000000E+00 0.  1.
        -11    1    1    2    0    0  0.23950054270E+02 -0.15155812342E+02  0.49853533127E+03  0.49934034513E+03  0.00000000000E+00 0. -1.
         11    1    1    2    0    0  0.18762767848E+01  0.31867721886E+01 -0.17782365318E+03  0.17786210266E+03  0.00000000000E+00 0.  1.
        -15    1    1    2    0    0 -0.11172997290E+02 -0.41889589041E+01 -0.62064083076E+02  0.63225717728E+02  0.17770000000E+01 0.  1.
         15    1    1    2    0    0 -0.14653333765E+02  0.16157999057E+02 -0.25864759501E+03  0.25957183449E+03  0.17770000000E+01 0. -1.
</event>
<event>
 6    1  0.6564965E-004  0.5000989E+03  0.7546771E-02  0.9399588E-01
        -11   -1    0    0    0    0  0.00000000000E+00  0.00000000000E+00  0.50000000000E+03  0.50000000000E+03  0.00000000000E+00 0.  1.
         11   -1    0    0    0    0 -0.00000000000E+00 -0.00000000000E+00 -0.50000000000E+03  0.50000000000E+03  0.00000000000E+00 0. -1.
        -11    1    1    2    0    0  0.15423966560E+02  0.60599542094E+01  0.29330154089E+03  0.29376932392E+03  0.00000000000E+00 0.  1.
         11    1    1    2    0    0 -0.26785326623E+02 -0.14881288759E+02 -0.49896107461E+03  0.49990105067E+03  0.00000000000E+00 0. -1.
        -15    1    1    2    0    0  0.98163206906E+00 -0.46468312434E+00  0.13708324223E+02  0.13865619854E+02  0.17770000000E+01 0.  1.
         15    1    1    2    0    0  0.10379727994E+02  0.92860176739E+01  0.19195120951E+03  0.19246400556E+03  0.17770000000E+01 0. -1.
</event>
<event>
 6    1  0.6564965E-004  0.5002664E+03  0.7546771E-02  0.9399214E-01
        -11   -1    0    0    0    0  0.00000000000E+00  0.00000000000E+00  0.50000000000E+03  0.50000000000E+03  0.00000000000E+00 0. -1.
         11   -1    0    0    0    0 -0.00000000000E+00 -0.00000000000E+00 -0.50000000000E+03  0.50000000000E+03  0.00000000000E+00 0.  1.
        -11    1    1    2    0    0  0.17304019845E+02  0.75367315969E+01  0.49937706463E+03  0.49973361315E+03  0.00000000000E+00 0. -1.
         11    1    1    2    0    0  0.29236543753E+00  0.12025697402E+01 -0.45260526023E+02  0.45277443252E+02  0.00000000000E+00 0.  1.
        -15    1    1    2    0    0 -0.15223284331E+01 -0.95915069409E+01 -0.26378545031E+03  0.26397014228E+03  0.17770000000E+01 0.  1.
         15    1    1    2    0    0 -0.16074056849E+02  0.85220560385E+00 -0.19033108830E+03  0.19101880132E+03  0.17770000000E+01 0.  1.
</event>
<event>
 6    1  0.6564965E-004  0.5147095E+03  0.7546771E-02  0.9367485E-01
        -11   -1    0    0    0    0  0.00000000000E+00  0.00000000000E+00  0.50000000000E+03  0.50000000000E+03  0.00000000000E+00 0. -1.
         11   -1    0    0    0    0 -0.00000000000E+00 -0.00000000000E+00 -0.50000000000E+03  0.50000000000E+03  0.00000000000E+00 0. -1.
        -11    1    1    2    0    0  0.30954873802E+02  0.42900107768E+02  0.40332066243E+03  0.40677534365E+03  0.00000000000E+00 0. -1.
         11    1    1    2    0    0 -0.77766184732E+01  0.15964710221E+02 -0.48496546742E+03  0.48529048245E+03  0.00000000000E+00 0. -1.
        -15    1    1    2    0    0  0.21822283075E+00 -0.76829751969E+01 -0.97974392279E+00  0.79494248996E+01  0.17770000000E+01 0. -1.
         15    1    1    2    0    0 -0.23396478159E+02 -0.51181842792E+02  0.82624548910E+02  0.99984749004E+02  0.17770000000E+01 0.  1.
</event>
<event>
 6    1  0.6564965E-004  0.5016864E+03  0.7546771E-02  0.9396044E-01
        -11   -1    0    0    0    0  0.00000000000E+00  0.00000000000E+00  0.50000000000E+03  0.50000000000E+03  0.00000000000E+00 0. -1.
         11   -1    0    0    0    0 -0.00000000000E+00 -0.00000000000E+00 -0.50000000000E+03  0.50000000000E+03  0.00000000000E+00 0. -1.
        -11    1    1    2    0    0  0.86651663153E+01 -0.13105616377E+02  0.47086857819E+03  0.47113061906E+03  0.00000000000E+00 0. -1.
         11    1    1    2    0    0 -0.33254844026E+01  0.90820423286E+01 -0.49821976214E+03  0.49831362988E+03  0.00000000000E+00 0. -1.
        -15    1    1    2    0    0 -0.53651121022E+01  0.72656302152E+01  0.23395686418E+02  0.25141393801E+02  0.17770000000E+01 0. -1.
         15    1    1    2    0    0  0.25430189461E-01 -0.32420561667E+01  0.39554975280E+01  0.54143572635E+01  0.17770000000E+01 0.  1.
</event>
<event>
 6    1  0.6564965E-004  0.4808918E+03  0.7546771E-02  0.9443611E-01
        -11   -1    0    0    0    0  0.00000000000E+00  0.00000000000E+00  0.50000000000E+03  0.50000000000E+03  0.00000000000E+00 0. -1.
         11   -1    0    0    0    0 -0.00000000000E+00 -0.00000000000E+00 -0.50000000000E+03  0.50000000000E+03  0.00000000000E+00 0.  1.
        -11    1    1    2    0    0 -0.16346871170E+02 -0.90707360766E+01  0.47411723869E+03  0.47448567362E+03  0.00000000000E+00 0. -1.
         11    1    1    2    0    0 -0.11008358705E+02 -0.23989509532E+01 -0.48772124979E+03  0.48785136715E+03  0.00000000000E+00 0.  1.
        -15    1    1    2    0    0 -0.10708576921E+01  0.55455056265E+01  0.34379584274E+01  0.68466529048E+01  0.17770000000E+01 0. -1.
         15    1    1    2    0    0  0.28426087567E+02  0.59241814033E+01  0.10166052679E+02  0.30816306329E+02  0.17770000000E+01 0.  1.
</event>
<event>
 6    1  0.6564965E-004  0.5002159E+03  0.7546771E-02  0.9399327E-01
        -11   -1    0    0    0    0  0.00000000000E+00  0.00000000000E+00  0.50000000000E+03  0.50000000000E+03  0.00000000000E+00 0. -1.
         11   -1    0    0    0    0 -0.00000000000E+00 -0.00000000000E+00 -0.50000000000E+03  0.50000000000E+03  0.00000000000E+00 0.  1.
        -11    1    1    2    0    0  0.13291996090E+02 -0.16820804055E+01  0.49960450096E+03  0.49978411733E+03  0.00000000000E+00 0. -1.
         11    1    1    2    0    0 -0.31987708715E+01 -0.46509302042E+01 -0.28843533112E+03  0.28849056055E+03  0.00000000000E+00 0.  1.
        -15    1    1    2    0    0 -0.89329826316E+01  0.50527710794E+01 -0.10248995567E+03  0.10301784999E+03  0.17770000000E+01 0. -1.
         15    1    1    2    0    0 -0.11602425865E+01  0.12802395302E+01 -0.10867921417E+03  0.10870747213E+03  0.17770000000E+01 0.  1.
</event>
<event>
 6    1  0.6564965E-004  0.5000607E+03  0.7546771E-02  0.9399674E-01
        -11   -1    0    0    0    0  0.00000000000E+00  0.00000000000E+00  0.50000000000E+03  0.50000000000E+03  0.00000000000E+00 0. -1.
         11   -1    0    0    0    0 -0.00000000000E+00 -0.00000000000E+00 -0.50000000000E+03  0.50000000000E+03  0.00000000000E+00 0. -1.
        -11    1    1    2    0    0 -0.46449009277E+01  0.25823710710E+01  0.14443905696E+03  0.14453679435E+03  0.00000000000E+00 0. -1.
         11    1    1    2    0    0  0.82289874335E+01  0.22379214592E+01 -0.49986653130E+03  0.49993926995E+03  0.00000000000E+00 0. -1.
        -15    1    1    2    0    0 -0.19560155653E+01 -0.51365684180E+01  0.27056716962E+03  0.27062882577E+03  0.17770000000E+01 0. -1.
         15    1    1    2    0    0 -0.16280709405E+01  0.31627588776E+00  0.84860304717E+02  0.84895109936E+02  0.17770000000E+01 0. -1.
</event>
<event>
 6    1  0.6564965E-004  0.5000438E+03  0.7546771E-02  0.9399712E-01
        -11   -1    0    0    0    0  0.00000000000E+00  0.00000000000E+00  0.50000000000E+03  0.50000000000E+03  0.00000000000E+00 0.  1.
         11   -1    0    0    0    0 -0.00000000000E+00 -0.00000000000E+00 -0.50000000000E+03  0.50000000000E+03  0.00000000000E+00 0.  1.
        -11    1    1    2    0    0  0.19167246060E+01 -0.37636059230E+01  0.21597306261E+03  0.21601435678E+03  0.00000000000E+00 0.  1.
         11    1    1    2    0    0  0.36599395133E+01  0.56700526460E+01 -0.49991065100E+03  0.49995620171E+03  0.00000000000E+00 0.  1.
        -15    1    1    2    0    0 -0.34118806620E+01 -0.16084156285E+01  0.20311325752E+03  0.20315605095E+03  0.17770000000E+01 0.  1.
         15    1    1    2    0    0 -0.21647834574E+01 -0.29803109451E+00  0.80824330872E+02  0.80873390555E+02  0.17770000000E+01 0.  1.
</event>
<event>
 6    1  0.6564965E-004  0.5057916E+03  0.7546771E-02  0.9386943E-01
        -11   -1    0    0    0    0  0.00000000000E+00  0.00000000000E+00  0.50000000000E+03  0.50000000000E+03  0.00000000000E+00 0. -1.
         11   -1    0    0    0    0 -0.00000000000E+00 -0.00000000000E+00 -0.50000000000E+03  0.50000000000E+03  0.00000000000E+00 0.  1.
        -11    1    1    2    0    0 -0.89545136661E+00 -0.10509713087E+02  0.48904551024E+03  0.48915924502E+03  0.00000000000E+00 0. -1.
         11    1    1    2    0    0 -0.63813205643E+01  0.66636042575E+01 -0.49412223103E+03  0.49420836099E+03  0.00000000000E+00 0.  1.
        -15    1    1    2    0    0  0.28023434128E+00 -0.44152898255E+01  0.69162072150E+00  0.48176118307E+01  0.17770000000E+01 0. -1.
         15    1    1    2    0    0  0.69965375896E+01  0.82613986551E+01  0.43851000672E+01  0.11814782164E+02  0.17770000000E+01 0.  1.
</event>
<event>
 6    1  0.6564965E-004  0.5020161E+03  0.7546771E-02  0.9395310E-01
        -11   -1    0    0    0    0  0.00000000000E+00  0.00000000000E+00  0.50000000000E+03  0.50000000000E+03  0.00000000000E+00 0.  1.
         11   -1    0    0    0    0 -0.00000000000E+00 -0.00000000000E+00 -0.50000000000E+03  0.50000000000E+03  0.00000000000E+00 0.  1.
        -11    1    1    2    0    0  0.22735917911E+01 -0.12456044651E+02  0.49782286404E+03  0.49798386142E+03  0.00000000000E+00 0.  1.
         11    1    1    2    0    0 -0.87046908305E+01 -0.31158402661E+01 -0.45747034849E+03  0.45756376588E+03  0.00000000000E+00 0.  1.
        -15    1    1    2    0    0  0.35852724814E+01  0.13449699733E+02 -0.35564000470E+02  0.38232243723E+02  0.17770000000E+01 0. -1.
         15    1    1    2    0    0  0.28458265580E+01  0.21221851843E+01 -0.47885150894E+01  0.62201289791E+01  0.17770000000E+01 0.  1.
</event>
<event>
 6    1  0.6564965E-004  0.5017155E+03  0.7546771E-02  0.9395979E-01
        -11   -1    0    0    0    0  0.00000000000E+00  0.00000000000E+00  0.50000000000E+03  0.50000000000E+03  0.00000000000E+00 0. -1.
         11   -1    0    0    0    0 -0.00000000000E+00 -0.00000000000E+00 -0.50000000000E+03  0.50000000000E+03  0.00000000000E+00 0. -1.
        -11    1    1    2    0    0 -0.30010053946E+01 -0.26284473865E+02  0.29612381522E+03  0.29730320136E+03  0.00000000000E+00 0. -1.
         11    1    1    2    0    0 -0.14597483887E+02  0.23506687732E+01 -0.49806513141E+03  0.49828454452E+03  0.00000000000E+00 0. -1.
        -15    1    1    2    0    0  0.45191672185E+01  0.66250313661E+00  0.28076025802E+02  0.28500574320E+02  0.17770000000E+01 0. -1.
         15    1    1    2    0    0  0.13079322063E+02  0.23271301955E+02  0.17386529038E+03  0.17591167980E+03  0.17770000000E+01 0.  1.
</event>
<event>
 6    1  0.6564965E-004  0.4798422E+03  0.7546771E-02  0.9446079E-01
        -11   -1    0    0    0    0  0.00000000000E+00  0.00000000000E+00  0.50000000000E+03  0.50000000000E+03  0.00000000000E+00 0.  1.
         11   -1    0    0    0    0 -0.00000000000E+00 -0.00000000000E+00 -0.50000000000E+03  0.50000000000E+03  0.00000000000E+00 0.  1.
        -11    1    1    2    0    0  0.10623274062E+02  0.11716395531E+02  0.47316579774E+03  0.47343003710E+03  0.00000000000E+00 0.  1.
         11    1    1    2    0    0  0.99936826250E+01 -0.75607506904E+00 -0.48652823086E+03  0.48663144655E+03  0.00000000000E+00 0.  1.
        -15    1    1    2    0    0 -0.22677838486E+01  0.60102287613E+01 -0.54466531726E+01  0.86075230543E+01  0.17770000000E+01 0. -1.
         15    1    1    2    0    0 -0.18349172839E+02 -0.16970549223E+02  0.18809086294E+02  0.31330993298E+02  0.17770000000E+01 0.  1.
</event>
<event>
 6    1  0.6564965E-004  0.4674874E+03  0.7546771E-02  0.9475650E-01
        -11   -1    0    0    0    0  0.00000000000E+00  0.00000000000E+00  0.50000000000E+03  0.50000000000E+03  0.00000000000E+00 0. -1.
         11   -1    0    0    0    0 -0.00000000000E+00 -0.00000000000E+00 -0.50000000000E+03  0.50000000000E+03  0.00000000000E+00 0.  1.
        -11    1    1    2    0    0 -0.22955916620E+02  0.19476443494E+02  0.47698313169E+03  0.47793222728E+03  0.00000000000E+00 0. -1.
         11    1    1    2    0    0 -0.25686878861E+02 -0.92686475149E+01 -0.45774646869E+03  0.45856030483E+03  0.00000000000E+00 0.  1.
        -15    1    1    2    0    0  0.11451584325E+02 -0.19009298134E+02 -0.72509352100E+01  0.23414226221E+02  0.17770000000E+01 0. -1.
         15    1    1    2    0    0  0.37191211156E+02  0.88015021554E+01 -0.11985727790E+02  0.40093241663E+02  0.17770000000E+01 0.  1.
</event>
<event>
 6    1  0.6564965E-004  0.5018675E+03  0.7546771E-02  0.9395641E-01
        -11   -1    0    0    0    0  0.00000000000E+00  0.00000000000E+00  0.50000000000E+03  0.50000000000E+03  0.00000000000E+00 0. -1.
         11   -1    0    0    0    0 -0.00000000000E+00 -0.00000000000E+00 -0.50000000000E+03  0.50000000000E+03  0.00000000000E+00 0.  1.
        -11    1    1    2    0    0  0.12658224098E+02  0.39147576727E+01  0.49795629058E+03  0.49813253587E+03  0.00000000000E+00 0. -1.
         11    1    1    2    0    0 -0.59156987175E+01  0.66176392008E+01 -0.47559249812E+03  0.47567532300E+03  0.00000000000E+00 0.  1.
        -15    1    1    2    0    0 -0.21684064286E+00 -0.29400727915E+01 -0.63517168608E+01  0.72244781101E+01  0.17770000000E+01 0.  1.
         15    1    1    2    0    0 -0.65256847378E+01 -0.75923240821E+01 -0.16012075603E+02  0.18967663018E+02  0.17770000000E+01 0. -1.
</event>
<event>
 6    1  0.6564965E-004  0.5006794E+03  0.7546771E-02  0.9398291E-01
        -11   -1    0    0    0    0  0.00000000000E+00  0.00000000000E+00  0.50000000000E+03  0.50000000000E+03  0.00000000000E+00 0.  1.
         11   -1    0    0    0    0 -0.00000000000E+00 -0.00000000000E+00 -0.50000000000E+03  0.50000000000E+03  0.00000000000E+00 0.  1.
        -11    1    1    2    0    0  0.10153316529E+02 -0.81065743497E+01  0.22317467898E+03  0.22355255248E+03  0.00000000000E+00 0.  1.
         11    1    1    2    0    0 -0.53085625876E+01 -0.15691158593E+02 -0.49904575087E+03  0.49932059316E+03  0.00000000000E+00 0.  1.
        -15    1    1    2    0    0 -0.36601488793E+01  0.20509327624E+02  0.25720022641E+03  0.25804872293E+03  0.17770000000E+01 0.  1.
         15    1    1    2    0    0 -0.11846050618E+01  0.32884053183E+01  0.18670845478E+02  0.19078131422E+02  0.17770000000E+01 0.  1.
</event>
<event>
 6    1  0.6564965E-004  0.5001797E+03  0.7546771E-02  0.9399408E-01
        -11   -1    0    0    0    0  0.00000000000E+00  0.00000000000E+00  0.50000000000E+03  0.50000000000E+03  0.00000000000E+00 0.  1.
         11   -1    0    0    0    0 -0.00000000000E+00 -0.00000000000E+00 -0.50000000000E+03  0.50000000000E+03  0.00000000000E+00 0.  1.
        -11    1    1    2    0    0  0.65003668454E+00  0.48547934082E+01  0.94722225222E+02  0.94848782374E+02  0.00000000000E+00 0.  1.
         11    1    1    2    0    0  0.36087760809E-01  0.81056057555E+01 -0.49975453298E+03  0.49982026308E+03  0.00000000000E+00 0.  1.
        -15    1    1    2    0    0  0.13665345689E+01 -0.44497938116E+00  0.10586586437E+03  0.10589053023E+03  0.17770000000E+01 0. -1.
         15    1    1    2    0    0 -0.20526590143E+01 -0.12515419783E+02  0.29916644339E+03  0.29944042432E+03  0.17770000000E+01 0.  1.
</event>
<event>
 6    1  0.6564965E-004  0.5005645E+03  0.7546771E-02  0.9398548E-01
        -11   -1    0    0    0    0  0.00000000000E+00  0.00000000000E+00  0.50000000000E+03  0.50000000000E+03  0.00000000000E+00 0.  1.
         11   -1    0    0    0    0 -0.00000000000E+00 -0.00000000000E+00 -0.50000000000E+03  0.50000000000E+03  0.00000000000E+00 0. -1.
        -11    1    1    2    0    0  0.29468789628E+01 -0.15373844417E+02  0.37370219196E+03  0.37402990183E+03  0.00000000000E+00 0.  1.
         11    1    1    2    0    0 -0.73024360710E+00  0.96865496773E+01 -0.49934103260E+03  0.49943551069E+03  0.00000000000E+00 0. -1.
        -15    1    1    2    0    0 -0.16324442253E+01 -0.98749433614E+00  0.98168970819E+02  0.98203587409E+02  0.17770000000E+01 0.  1.
         15    1    1    2    0    0 -0.58419113038E+00  0.66747890756E+01  0.27469869819E+02  0.28331000077E+02  0.17770000000E+01 0. -1.
</event>
<event>
 6    1  0.6564965E-004  0.5005199E+03  0.7546771E-02  0.9398647E-01
        -11   -1    0    0    0    0  0.00000000000E+00  0.00000000000E+00  0.50000000000E+03  0.50000000000E+03  0.00000000000E+00 0. -1.
         11   -1    0    0    0    0 -0.00000000000E+00 -0.00000000000E+00 -0.50000000000E+03  0.50000000000E+03  0.00000000000E+00 0.  1.
        -11    1    1    2    0    0  0.69027057280E+01 -0.91291425508E+01  0.30606982890E+03  0.30628373896E+03  0.00000000000E+00 0. -1.
         11    1    1    2    0    0  0.55402360261E+01  0.65566463171E+01 -0.49940631889E+03  0.49948008486E+03  0.00000000000E+00 0.  1.
        -15    1    1    2    0    0 -0.12817237816E+02  0.43095207727E+01  0.18562908080E+03  0.18612943594E+03  0.17770000000E+01 0. -1.
         15    1    1    2    0    0  0.37429606229E+00 -0.17370245390E+01  0.77074091915E+01  0.81067402349E+01  0.17770000000E+01 0.  1.
</event>
<event>
 6    1  0.6564965E-004  0.5009816E+03  0.7546771E-02  0.9397616E-01
        -11   -1    0    0    0    0  0.00000000000E+00  0.00000000000E+00  0.50000000000E+03  0.50000000000E+03  0.00000000000E+00 0. -1.
         11   -1    0    0    0    0 -0.00000000000E+00 -0.00000000000E+00 -0.50000000000E+03  0.50000000000E+03  0.00000000000E+00 0.  1.
        -11    1    1    2    0    0 -0.14081325684E+03  0.97612322531E+02  0.46868203429E+03  0.49901842458E+03  0.00000000000E+00 0. -1.
         11    1    1    2    0    0  0.13228833800E+03 -0.10040717842E+03 -0.42881850569E+03  0.45985553892E+03  0.00000000000E+00 0.  1.
        -15    1    1    2    0    0  0.68711934852E+01  0.26180096443E+01 -0.27287328621E+02  0.28316484717E+02  0.17770000000E+01 0. -1.
         15    1    1    2    0    0  0.16537253554E+01  0.17684624368E+00 -0.12576199973E+02  0.12809551784E+02  0.17770000000E+01 0. -1.
</event>
<event>
 6    1  0.6564965E-004  0.5004452E+03  0.7546771E-02  0.9398814E-01
        -11   -1    0    0    0    0  0.00000000000E+00  0.00000000000E+00  0.50000000000E+03  0.50000000000E+03  0.00000000000E+00 0. -1.
         11   -1    0    0    0    0 -0.00000000000E+00 -0.00000000000E+00 -0.50000000000E+03  0.50000000000E+03  0.00000000000E+00 0. -1.
        -11    1    1    2    0    0 -0.60951350021E+01 -0.22152932032E+02  0.33592692957E+03  0.33671175370E+03  0.00000000000E+00 0. -1.
         11    1    1    2    0    0  0.18313688170E+02  0.30084984742E+02 -0.49831167996E+03  0.49955482969E+03  0.00000000000E+00 0. -1.
        -15    1    1    2    0    0 -0.14097658057E+02 -0.74794787867E+01  0.98956785566E+02  0.10025113318E+03  0.17770000000E+01 0. -1.
         15    1    1    2    0    0  0.18791048891E+01 -0.45257392413E+00  0.63427964827E+02  0.63482283430E+02  0.17770000000E+01 0.  1.
</event>
<event>
 6    1  0.6564965E-004  0.5011071E+03  0.7546771E-02  0.9397336E-01
        -11   -1    0    0    0    0  0.00000000000E+00  0.00000000000E+00  0.50000000000E+03  0.50000000000E+03  0.00000000000E+00 0.  1.
         11   -1    0    0    0    0 -0.00000000000E+00 -0.00000000000E+00 -0.50000000000E+03  0.50000000000E+03  0.00000000000E+00 0.  1.
        -11    1    1    2    0    0  0.11182410619E+02 -0.54878247697E+00  0.27164499582E+03  0.27187561720E+03  0.00000000000E+00 0.  1.
         11    1    1    2    0    0  0.68874989945E+01 -0.76147024577E+01 -0.49878723837E+03  0.49889290484E+03  0.00000000000E+00 0.  1.
        -15    1    1    2    0    0 -0.10803455773E+02  0.84494694460E+01  0.21083425533E+03  0.21128736153E+03  0.17770000000E+01 0.  1.
         15    1    1    2    0    0 -0.72664538409E+01 -0.28598451135E+00  0.16307987218E+02  0.17944116436E+02  0.17770000000E+01 0. -1.
</event>
<event>
 6    1  0.6564965E-004  0.5010533E+03  0.7546771E-02  0.9397456E-01
        -11   -1    0    0    0    0  0.00000000000E+00  0.00000000000E+00  0.50000000000E+03  0.50000000000E+03  0.00000000000E+00 0. -1.
         11   -1    0    0    0    0 -0.00000000000E+00 -0.00000000000E+00 -0.50000000000E+03  0.50000000000E+03  0.00000000000E+00 0.  1.
        -11    1    1    2    0    0 -0.29975663662E+01 -0.15104411939E+02  0.44955229101E+03  0.44981595238E+03  0.00000000000E+00 0. -1.
         11    1    1    2    0    0 -0.42694068098E+01  0.53886697465E+01 -0.49889936023E+03  0.49894672785E+03  0.00000000000E+00 0.  1.
        -15    1    1    2    0    0  0.12964086240E+01  0.30097859140E+01  0.24010711011E+02  0.24298383872E+02  0.17770000000E+01 0.  1.
         15    1    1    2    0    0  0.59705645521E+01  0.67059562783E+01  0.25336358208E+02  0.26938935891E+02  0.17770000000E+01 0. -1.
</event>
<event>
 6    1  0.6564965E-004  0.4458360E+03  0.7546771E-02  0.9529894E-01
        -11   -1    0    0    0    0  0.00000000000E+00  0.00000000000E+00  0.50000000000E+03  0.50000000000E+03  0.00000000000E+00 0. -1.
         11   -1    0    0    0    0 -0.00000000000E+00 -0.00000000000E+00 -0.50000000000E+03  0.50000000000E+03  0.00000000000E+00 0. -1.
        -11    1    1    2    0    0  0.62577776377E+02 -0.54889464665E+02  0.41243850810E+03  0.42075450608E+03  0.00000000000E+00 0. -1.
         11    1    1    2    0    0  0.42444527771E+01  0.22714400282E+02 -0.47566684490E+03  0.47622778866E+03  0.00000000000E+00 0. -1.
        -15    1    1    2    0    0 -0.14367549461E+02  0.79021067010E+01  0.34953285117E+02  0.38649186761E+02  0.17770000000E+01 0. -1.
         15    1    1    2    0    0 -0.52454679694E+02  0.24272957681E+02  0.28275051681E+02  0.64368518493E+02  0.17770000000E+01 0.  1.
</event>
<event>
 6    1  0.6564965E-004  0.5003748E+03  0.7546771E-02  0.9398971E-01
        -11   -1    0    0    0    0  0.00000000000E+00  0.00000000000E+00  0.50000000000E+03  0.50000000000E+03  0.00000000000E+00 0. -1.
         11   -1    0    0    0    0 -0.00000000000E+00 -0.00000000000E+00 -0.50000000000E+03  0.50000000000E+03  0.00000000000E+00 0.  1.
        -11    1    1    2    0    0 -0.11542016283E+02  0.26336167079E+01  0.49948487560E+03  0.49962515452E+03  0.00000000000E+00 0. -1.
         11    1    1    2    0    0  0.37422703268E+00 -0.60782357987E+01 -0.38275284790E+03  0.38280128993E+03  0.00000000000E+00 0.  1.
        -15    1    1    2    0    0  0.90522818196E+01 -0.25069531667E+00 -0.86599766014E+02  0.87090090463E+02  0.17770000000E+01 0.  1.
         15    1    1    2    0    0  0.21155074303E+01  0.36953144075E+01 -0.30132261683E+02  0.30483465081E+02  0.17770000000E+01 0. -1.
</event>
<event>
 6    1  0.6564965E-004  0.4754618E+03  0.7546771E-02  0.9456454E-01
        -11   -1    0    0    0    0  0.00000000000E+00  0.00000000000E+00  0.50000000000E+03  0.50000000000E+03  0.00000000000E+00 0. -1.
         11   -1    0    0    0    0 -0.00000000000E+00 -0.00000000000E+00 -0.50000000000E+03  0.50000000000E+03  0.00000000000E+00 0.  1.
        -11    1    1    2    0    0  0.43380117258E+01  0.26845469657E+02  0.47868078583E+03  0.47945259652E+03  0.00000000000E+00 0. -1.
         11    1    1    2    0    0 -0.44627821413E+01  0.16145434391E+02 -0.47216748915E+03  0.47246452702E+03  0.00000000000E+00 0.  1.
        -15    1    1    2    0    0  0.87173910002E+01 -0.33055128321E+02 -0.29593182042E+01  0.34359128443E+02  0.17770000000E+01 0.  1.
         15    1    1    2    0    0 -0.85926205847E+01 -0.99357757275E+01 -0.35539784718E+01  0.13723748023E+02  0.17770000000E+01 0. -1.
</event>
<event>
 6    1  0.6564965E-004  0.4140417E+03  0.7546771E-02  0.9615798E-01
        -11   -1    0    0    0    0  0.00000000000E+00  0.00000000000E+00  0.50000000000E+03  0.50000000000E+03  0.00000000000E+00 0. -1.
         11   -1    0    0    0    0 -0.00000000000E+00 -0.00000000000E+00 -0.50000000000E+03  0.50000000000E+03  0.00000000000E+00 0.  1.
        -11    1    1    2    0    0  0.12252020628E+03  0.10912721701E+03  0.13894634512E+03  0.21500241222E+03  0.00000000000E+00 0. -1.
         11    1    1    2    0    0  0.24530007339E+02  0.87005628981E+02 -0.36570054454E+03  0.37670756431E+03  0.00000000000E+00 0.  1.
        -15    1    1    2    0    0 -0.84612501982E+02 -0.22465129000E+03  0.23876250418E+03  0.33858258774E+03  0.17770000000E+01 0. -1.
         15    1    1    2    0    0 -0.62437711635E+02  0.28518444011E+02 -0.12008304762E+02  0.69707435724E+02  0.17770000000E+01 0.  1.
</event>
<event>
 6    1  0.6564965E-004  0.5006245E+03  0.7546771E-02  0.9398414E-01
        -11   -1    0    0    0    0  0.00000000000E+00  0.00000000000E+00  0.50000000000E+03  0.50000000000E+03  0.00000000000E+00 0. -1.
         11   -1    0    0    0    0 -0.00000000000E+00 -0.00000000000E+00 -0.50000000000E+03  0.50000000000E+03  0.00000000000E+00 0. -1.
        -11    1    1    2    0    0  0.42957363650E+01 -0.11687397795E+02  0.14895037927E+03  0.14946994381E+03  0.00000000000E+00 0. -1.
         11    1    1    2    0    0 -0.15673054142E+02 -0.70698725899E+01 -0.49907946260E+03  0.49937554777E+03  0.00000000000E+00 0. -1.
        -15    1    1    2    0    0  0.26679020859E+01  0.15009601191E+01  0.15958557778E+03  0.15962482560E+03  0.17770000000E+01 0. -1.
         15    1    1    2    0    0  0.87094156913E+01  0.17256310266E+02  0.19054350555E+03  0.19152968282E+03  0.17770000000E+01 0.  1.
</event>
<event>
 6    1  0.6564965E-004  0.5002424E+03  0.7546771E-02  0.9399267E-01
        -11   -1    0    0    0    0  0.00000000000E+00  0.00000000000E+00  0.50000000000E+03  0.50000000000E+03  0.00000000000E+00 0. -1.
         11   -1    0    0    0    0 -0.00000000000E+00 -0.00000000000E+00 -0.50000000000E+03  0.50000000000E+03  0.00000000000E+00 0.  1.
        -11    1    1    2    0    0 -0.17303039073E-01  0.21252989212E+01  0.46267591303E+01  0.50915709707E+01  0.00000000000E+00 0. -1.
         11    1    1    2    0    0 -0.81483230698E+01 -0.18178485832E+01 -0.49968785538E+03  0.49975759379E+03  0.00000000000E+00 0.  1.
        -15    1    1    2    0    0  0.50423715228E+01  0.12293952226E+01  0.26856590583E+03  0.26862192842E+03  0.17770000000E+01 0. -1.
         15    1    1    2    0    0  0.31232545860E+01 -0.15368455606E+01  0.22649519041E+03  0.22652890682E+03  0.17770000000E+01 0. -1.
</event>
<event>
 6    1  0.6564965E-004  0.5006978E+03  0.7546771E-02  0.9398250E-01
        -11   -1    0    0    0    0  0.00000000000E+00  0.00000000000E+00  0.50000000000E+03  0.50000000000E+03  0.00000000000E+00 0.  1.
         11   -1    0    0    0    0 -0.00000000000E+00 -0.00000000000E+00 -0.50000000000E+03  0.50000000000E+03  0.00000000000E+00 0. -1.
        -11    1    1    2    0    0  0.74999267179E+01 -0.17602106687E+02  0.49893549126E+03  0.49930222060E+03  0.00000000000E+00 0.  1.
         11    1    1    2    0    0 -0.18365993467E-01 -0.44308516333E+01 -0.20906912157E+03  0.20911606915E+03  0.00000000000E+00 0. -1.
        -15    1    1    2    0    0 -0.40790161770E+01  0.13243844332E+02 -0.25606957415E+03  0.25645042858E+03  0.17770000000E+01 0. -1.
         15    1    1    2    0    0 -0.34025445474E+01  0.87891139878E+01 -0.33796795541E+02  0.35131281672E+02  0.17770000000E+01 0.  1.
</event>
<event>
 6    1  0.6564965E-004  0.5026260E+03  0.7546771E-02  0.9393953E-01
        -11   -1    0    0    0    0  0.00000000000E+00  0.00000000000E+00  0.50000000000E+03  0.50000000000E+03  0.00000000000E+00 0.  1.
         11   -1    0    0    0    0 -0.00000000000E+00 -0.00000000000E+00 -0.50000000000E+03  0.50000000000E+03  0.00000000000E+00 0.  1.
        -11    1    1    2    0    0 -0.14900533785E+02  0.28562247115E+01  0.49714257413E+03  0.49737402721E+03  0.00000000000E+00 0.  1.
         11    1    1    2    0    0 -0.23298717466E+01  0.88384754403E+01 -0.44954400534E+03  0.44963691984E+03  0.00000000000E+00 0.  1.
        -15    1    1    2    0    0 -0.16635188936E+00 -0.27305350557E+01 -0.10669558610E+02  0.11157092120E+02  0.17770000000E+01 0. -1.
         15    1    1    2    0    0  0.17396757421E+02 -0.89641650962E+01 -0.36929010183E+02  0.41831960829E+02  0.17770000000E+01 0.  1.
</event>
<event>
 6    1  0.6564965E-004  0.5003006E+03  0.7546771E-02  0.9399137E-01
        -11   -1    0    0    0    0  0.00000000000E+00  0.00000000000E+00  0.50000000000E+03  0.50000000000E+03  0.00000000000E+00 0. -1.
         11   -1    0    0    0    0 -0.00000000000E+00 -0.00000000000E+00 -0.50000000000E+03  0.50000000000E+03  0.00000000000E+00 0. -1.
        -11    1    1    2    0    0 -0.13261600417E+02  0.41287687440E+00  0.49952323912E+03  0.49969941659E+03  0.00000000000E+00 0. -1.
         11    1    1    2    0    0 -0.36758787170E+01 -0.21157280370E+01 -0.18022258858E+03  0.18027248770E+03  0.00000000000E+00 0. -1.
        -15    1    1    2    0    0  0.53674373986E+01  0.67602810884E+01 -0.12887485614E+03  0.12917583775E+03  0.17770000000E+01 0.  1.
         15    1    1    2    0    0  0.11570041736E+02 -0.50574299259E+01 -0.19042579441E+03  0.19085225796E+03  0.17770000000E+01 0. -1.
</event>
<event>
 6    1  0.6564965E-004  0.5064737E+03  0.7546771E-02  0.9385440E-01
        -11   -1    0    0    0    0  0.00000000000E+00  0.00000000000E+00  0.50000000000E+03  0.50000000000E+03  0.00000000000E+00 0.  1.
         11   -1    0    0    0    0 -0.00000000000E+00 -0.00000000000E+00 -0.50000000000E+03  0.50000000000E+03  0.00000000000E+00 0.  1.
        -11    1    1    2    0    0 -0.16615199562E+02 -0.19401883043E+02  0.46373556521E+03  0.46443855607E+03  0.00000000000E+00 0.  1.
         11    1    1    2    0    0  0.96986775748E+01 -0.70600681791E+01 -0.49338043390E+03  0.49352625205E+03  0.00000000000E+00 0.  1.
        -15    1    1    2    0    0  0.35375212024E+01  0.10527759484E+02  0.46993816485E+01  0.12189737195E+02  0.17770000000E+01 0. -1.
         15    1    1    2    0    0  0.33790007844E+01  0.15934191738E+02  0.24945487043E+02  0.29845454687E+02  0.17770000000E+01 0.  1.
</event>
<event>
 6    1  0.6564965E-004  0.5015210E+03  0.7546771E-02  0.9396413E-01
        -11   -1    0    0    0    0  0.00000000000E+00  0.00000000000E+00  0.50000000000E+03  0.50000000000E+03  0.00000000000E+00 0.  1.
         11   -1    0    0    0    0 -0.00000000000E+00 -0.00000000000E+00 -0.50000000000E+03  0.50000000000E+03  0.00000000000E+00 0. -1.
        -11    1    1    2    0    0 -0.14768405977E+02 -0.80337873280E+00  0.39344181789E+03  0.39371971667E+03  0.00000000000E+00 0.  1.
         11    1    1    2    0    0 -0.75848754970E+01  0.92321355854E+01 -0.49833576516E+03  0.49847898401E+03  0.00000000000E+00 0. -1.
        -15    1    1    2    0    0  0.85189086722E+01 -0.98035022283E+00  0.29771974225E+02  0.31033225256E+02  0.17770000000E+01 0.  1.
         15    1    1    2    0    0  0.13834372801E+02 -0.74484066298E+01  0.75121973042E+02  0.76768074060E+02  0.17770000000E+01 0. -1.
</event>
<event>
 6    1  0.6564965E-004  0.5008026E+03  0.7546771E-02  0.9398016E-01
        -11   -1    0    0    0    0  0.00000000000E+00  0.00000000000E+00  0.50000000000E+03  0.50000000000E+03  0.00000000000E+00 0.  1.
         11   -1    0    0    0    0 -0.00000000000E+00 -0.00000000000E+00 -0.50000000000E+03  0.50000000000E+03  0.00000000000E+00 0.  1.
        -11    1    1    2    0    0 -0.33025574695E+02  0.15919294026E+03  0.44942463492E+03  0.47792842904E+03  0.00000000000E+00 0.  1.
         11    1    1    2    0    0  0.28606532069E+02 -0.16471932248E+03 -0.47036928583E+03  0.49919740978E+03  0.00000000000E+00 0.  1.
        -15    1    1    2    0    0  0.12029019404E+01 -0.29793906017E+00  0.68985318041E+01  0.72307130226E+01  0.17770000000E+01 0. -1.
         15    1    1    2    0    0  0.32161406851E+01  0.58243212788E+01  0.14046119114E+02  0.15643448163E+02  0.17770000000E+01 0. -1.
</event>
<event>
 6    1  0.6564965E-004  0.5002181E+03  0.7546771E-02  0.9399322E-01
        -11   -1    0    0    0    0  0.00000000000E+00  0.00000000000E+00  0.50000000000E+03  0.50000000000E+03  0.00000000000E+00 0. -1.
         11   -1    0    0    0    0 -0.00000000000E+00 -0.00000000000E+00 -0.50000000000E+03  0.50000000000E+03  0.00000000000E+00 0.  1.
        -11    1    1    2    0    0  0.94759553979E+01 -0.20790269889E+01  0.37825376314E+03  0.37837815135E+03  0.00000000000E+00 0. -1.
         11    1    1    2    0    0 -0.12017296740E+02 -0.31460767707E+00 -0.49963733205E+03  0.49978193043E+03  0.00000000000E+00 0.  1.
        -15    1    1    2    0    0 -0.32821394641E+01 -0.52589900789E+00  0.46526172133E+02  0.46678597146E+02  0.17770000000E+01 0.  1.
         15    1    1    2    0    0  0.58234808058E+01  0.29195336739E+01  0.74857396775E+02  0.75161321081E+02  0.17770000000E+01 0. -1.
</event>
<event>
 6    1  0.6564965E-004  0.5009566E+03  0.7546771E-02  0.9397672E-01
        -11   -1    0    0    0    0  0.00000000000E+00  0.00000000000E+00  0.50000000000E+03  0.50000000000E+03  0.00000000000E+00 0.  1.
         11   -1    0    0    0    0 -0.00000000000E+00 -0.00000000000E+00 -0.50000000000E+03  0.50000000000E+03  0.00000000000E+00 0. -1.
        -11    1    1    2    0    0  0.18370363155E+02 -0.51420603166E+01  0.49867868339E+03  0.49904342526E+03  0.00000000000E+00 0.  1.
         11    1    1    2    0    0 -0.72114997648E+01  0.64107695209E+01 -0.43980572770E+03  0.43991156135E+03  0.00000000000E+00 0. -1.
        -15    1    1    2    0    0 -0.60136791868E+01  0.15981361216E+01 -0.48905599252E+02  0.49331873506E+02  0.17770000000E+01 0.  1.
         15    1    1    2    0    0 -0.51451842039E+01 -0.28668453259E+01 -0.99673564404E+01  0.11713139887E+02  0.17770000000E+01 0. -1.
</event>
<event>
 6    1  0.6564965E-004  0.4876764E+03  0.7546771E-02  0.9427815E-01
        -11   -1    0    0    0    0  0.00000000000E+00  0.00000000000E+00  0.50000000000E+03  0.50000000000E+03  0.00000000000E+00 0. -1.
         11   -1    0    0    0    0 -0.00000000000E+00 -0.00000000000E+00 -0.50000000000E+03  0.50000000000E+03  0.00000000000E+00 0.  1.
        -11    1    1    2    0    0 -0.66688903046E+01 -0.11921808982E+02  0.48448290492E+03  0.48467544686E+03  0.00000000000E+00 0. -1.
         11    1    1    2    0    0  0.10733764850E+02 -0.35350220269E+01 -0.49069793016E+03  0.49082804398E+03  0.00000000000E+00 0.  1.
        -15    1    1    2    0    0 -0.22023901410E+01  0.86100659099E+01 -0.55612667787E+01  0.10633399009E+02  0.17770000000E+01 0. -1.
         15    1    1    2    0    0 -0.18624844046E+01  0.68467650992E+01  0.11776292022E+02  0.13863110159E+02  0.17770000000E+01 0.  1.
</event>
<event>
 6    1  0.6564965E-004  0.5000952E+03  0.7546771E-02  0.9399597E-01
        -11   -1    0    0    0    0  0.00000000000E+00  0.00000000000E+00  0.50000000000E+03  0.50000000000E+03  0.00000000000E+00 0.  1.
         11   -1    0    0    0    0 -0.00000000000E+00 -0.00000000000E+00 -0.50000000000E+03  0.50000000000E+03  0.00000000000E+00 0. -1.
        -11    1    1    2    0    0  0.12835525437E+02 -0.25280521878E+01  0.49973363881E+03  0.49990484246E+03  0.00000000000E+00 0.  1.
         11    1    1    2    0    0  0.18132243168E+01 -0.13823232083E+01 -0.12281552489E+03  0.12283668733E+03  0.00000000000E+00 0. -1.
        -15    1    1    2    0    0 -0.58058064194E+01  0.19353191022E+01 -0.19767139389E+03  0.19777408966E+03  0.17770000000E+01 0. -1.
         15    1    1    2    0    0 -0.88429433347E+01  0.19750562940E+01 -0.17924672003E+03  0.17948438056E+03  0.17770000000E+01 0.  1.
</event>
<event>
 6    1  0.6564965E-004  0.5045861E+03  0.7546771E-02  0.9389606E-01
        -11   -1    0    0    0    0  0.00000000000E+00  0.00000000000E+00  0.50000000000E+03  0.50000000000E+03  0.00000000000E+00 0.  1.
         11   -1    0    0    0    0 -0.00000000000E+00 -0.00000000000E+00 -0.50000000000E+03  0.50000000000E+03  0.00000000000E+00 0. -1.
        -11    1    1    2    0    0 -0.34484495625E+01  0.98054726002E+01  0.46728723983E+03  0.46740282798E+03  0.00000000000E+00 0.  1.
         11    1    1    2    0    0  0.69834657228E+01  0.48467226674E+01 -0.49534100962E+03  0.49541394341E+03  0.00000000000E+00 0. -1.
        -15    1    1    2    0    0 -0.99840035354E+01 -0.30911729862E+01  0.15988055501E+02  0.19183621262E+02  0.17770000000E+01 0. -1.
         15    1    1    2    0    0  0.64489873751E+01 -0.11561022281E+02  0.12065714290E+02  0.17999607348E+02  0.17770000000E+01 0.  1.
</event>
<event>
 6    1  0.6564965E-004  0.5001573E+03  0.7546771E-02  0.9399458E-01
        -11   -1    0    0    0    0  0.00000000000E+00  0.00000000000E+00  0.50000000000E+03  0.50000000000E+03  0.00000000000E+00 0.  1.
         11   -1    0    0    0    0 -0.00000000000E+00 -0.00000000000E+00 -0.50000000000E+03  0.50000000000E+03  0.00000000000E+00 0. -1.
        -11    1    1    2    0    0  0.66994213902E+01 -0.29304601165E+01  0.98911766792E+02  0.99181689103E+02  0.00000000000E+00 0.  1.
         11    1    1    2    0    0 -0.69983244819E+01  0.99859444293E+00 -0.49979268973E+03  0.49984268170E+03  0.00000000000E+00 0. -1.
        -15    1    1    2    0    0 -0.78620382079E+00  0.47794180488E+01  0.25348932629E+03  0.25354182540E+03  0.17770000000E+01 0.  1.
         15    1    1    2    0    0  0.10851069125E+01 -0.28475523752E+01  0.14739159665E+03  0.14743380380E+03  0.17770000000E+01 0. -1.
</event>
<event>
 6    1  0.6564965E-004  0.4749481E+03  0.7546771E-02  0.9457679E-01
        -11   -1    0    0    0    0  0.00000000000E+00  0.00000000000E+00  0.50000000000E+03  0.50000000000E+03  0.00000000000E+00 0. -1.
         11   -1    0    0    0    0 -0.00000000000E+00 -0.00000000000E+00 -0.50000000000E+03  0.50000000000E+03  0.00000000000E+00 0.  1.
        -11    1    1    2    0    0 -0.30369923792E+02  0.65230845908E+01  0.47711016224E+03  0.47812026711E+03  0.00000000000E+00 0. -1.
         11    1    1    2    0    0  0.78794490740E+01  0.66568564373E+01 -0.47203433808E+03  0.47214702771E+03  0.00000000000E+00 0.  1.
        -15    1    1    2    0    0  0.27447573527E+02 -0.78616362506E+01  0.12051566372E+02  0.31041465785E+02  0.17770000000E+01 0.  1.
         15    1    1    2    0    0 -0.49570988084E+01 -0.53183047775E+01 -0.17127390539E+02  0.18691239391E+02  0.17770000000E+01 0. -1.
</event>
<event>
 6    1  0.6564965E-004  0.5098769E+03  0.7546771E-02  0.9377977E-01
        -11   -1    0    0    0    0  0.00000000000E+00  0.00000000000E+00  0.50000000000E+03  0.50000000000E+03  0.00000000000E+00 0.  1.
         11   -1    0    0    0    0 -0.00000000000E+00 -0.00000000000E+00 -0.50000000000E+03  0.50000000000E+03  0.00000000000E+00 0. -1.
        -11    1    1    2    0    0 -0.22077003313E+02 -0.29653583563E+01  0.46480164529E+03  0.46533510172E+03  0.00000000000E+00 0.  1.
         11    1    1    2    0    0 -0.25501958406E+01 -0.76186204932E+01 -0.49005728276E+03  0.49012313480E+03  0.00000000000E+00 0. -1.
        -15    1    1    2    0    0  0.20290814396E+02  0.18087589185E+02  0.15377032497E+02  0.31280807035E+02  0.17770000000E+01 0. -1.
         15    1    1    2    0    0  0.43363847574E+01 -0.75036103353E+01  0.98786049712E+01  0.13260956451E+02  0.17770000000E+01 0.  1.
</event>
<event>
 6    1  0.6564965E-004  0.5010922E+03  0.7546771E-02  0.9397369E-01
        -11   -1    0    0    0    0  0.00000000000E+00  0.00000000000E+00  0.50000000000E+03  0.50000000000E+03  0.00000000000E+00 0.  1.
         11   -1    0    0    0    0 -0.00000000000E+00 -0.00000000000E+00 -0.50000000000E+03  0.50000000000E+03  0.00000000000E+00 0.  1.
        -11    1    1    2    0    0 -0.48193622324E+01 -0.20202816129E+02  0.49847531288E+03  0.49890782473E+03  0.00000000000E+00 0.  1.
         11    1    1    2    0    0 -0.10354129822E+01 -0.91072479777E+01 -0.27487234754E+03  0.27502512883E+03  0.00000000000E+00 0.  1.
        -15    1    1    2    0    0 -0.29289084442E+01  0.20271017553E+02 -0.13804834852E+03  0.13957075953E+03  0.17770000000E+01 0.  1.
         15    1    1    2    0    0  0.87836836588E+01  0.90390465539E+01 -0.85554616819E+02  0.86496286910E+02  0.17770000000E+01 0. -1.
</event>
<event>
 6    1  0.6564965E-004  0.5054567E+03  0.7546771E-02  0.9387682E-01
        -11   -1    0    0    0    0  0.00000000000E+00  0.00000000000E+00  0.50000000000E+03  0.50000000000E+03  0.00000000000E+00 0. -1.
         11   -1    0    0    0    0 -0.00000000000E+00 -0.00000000000E+00 -0.50000000000E+03  0.50000000000E+03  0.00000000000E+00 0.  1.
        -11    1    1    2    0    0  0.13056183797E+02 -0.16453384577E+02  0.49409704101E+03  0.49454328803E+03  0.00000000000E+00 0. -1.
         11    1    1    2    0    0  0.13417196019E+02  0.16772921018E+02 -0.44892356358E+03  0.44943711236E+03  0.00000000000E+00 0.  1.
        -15    1    1    2    0    0 -0.12148054858E+02 -0.92556055601E+01 -0.15497188089E+02  0.21830300932E+02  0.17770000000E+01 0. -1.
         15    1    1    2    0    0 -0.14325324958E+02  0.89360691198E+01 -0.29676289337E+02  0.34189298681E+02  0.17770000000E+01 0.  1.
</event>
<event>
 6    1  0.6564965E-004  0.5011304E+03  0.7546771E-02  0.9397284E-01
        -11   -1    0    0    0    0  0.00000000000E+00  0.00000000000E+00  0.50000000000E+03  0.50000000000E+03  0.00000000000E+00 0. -1.
         11   -1    0    0    0    0 -0.00000000000E+00 -0.00000000000E+00 -0.50000000000E+03  0.50000000000E+03  0.00000000000E+00 0.  1.
        -11    1    1    2    0    0  0.26934464701E+02  0.51585360481E+01  0.49811527996E+03  0.49886963028E+03  0.00000000000E+00 0. -1.
         11    1    1    2    0    0  0.57008230186E+00  0.41482009530E+01 -0.25444886275E+03  0.25448331246E+03  0.00000000000E+00 0.  1.
        -15    1    1    2    0    0 -0.17525140661E+02  0.26528076478E+01 -0.68424567199E+02  0.70705353892E+02  0.17770000000E+01 0. -1.
         15    1    1    2    0    0 -0.99794063426E+01 -0.11959544649E+02 -0.17524185002E+03  0.17594170337E+03  0.17770000000E+01 0.  1.
</event>
<event>
 6    1  0.6564965E-004  0.4058412E+03  0.7546771E-02  0.9639298E-01
        -11   -1    0    0    0    0  0.00000000000E+00  0.00000000000E+00  0.50000000000E+03  0.50000000000E+03  0.00000000000E+00 0. -1.
         11   -1    0    0    0    0 -0.00000000000E+00 -0.00000000000E+00 -0.50000000000E+03  0.50000000000E+03  0.00000000000E+00 0. -1.
        -11    1    1    2    0    0 -0.29471126164E+02 -0.12198737389E+03 -0.11634464143E+03  0.17113019095E+03  0.00000000000E+00 0. -1.
         11    1    1    2    0    0  0.71636769312E+02  0.11202657538E+03 -0.34249332433E+03  0.36740094927E+03  0.00000000000E+00 0. -1.
        -15    1    1    2    0    0 -0.26943207843E+02  0.22887796848E+01  0.37011305334E+03  0.37110376574E+03  0.17770000000E+01 0. -1.
         15    1    1    2    0    0 -0.15222435306E+02  0.76720188192E+01  0.88724912419E+02  0.90365094047E+02  0.17770000000E+01 0.  1.
</event>
<event>
 6    1  0.6564965E-004  0.5009243E+03  0.7546771E-02  0.9397744E-01
        -11   -1    0    0    0    0  0.00000000000E+00  0.00000000000E+00  0.50000000000E+03  0.50000000000E+03  0.00000000000E+00 0.  1.
         11   -1    0    0    0    0 -0.00000000000E+00 -0.00000000000E+00 -0.50000000000E+03  0.50000000000E+03  0.00000000000E+00 0.  1.
        -11    1    1    2    0    0  0.97787668874E+01  0.24703824592E+00  0.49897982237E+03  0.49907569410E+03  0.00000000000E+00 0.  1.
         11    1    1    2    0    0  0.25593478368E+01  0.58743216180E+01 -0.38160654579E+03  0.38166033814E+03  0.00000000000E+00 0.  1.
        -15    1    1    2    0    0 -0.46253386432E+01 -0.99354278710E+01 -0.84910553549E+02  0.85633324808E+02  0.17770000000E+01 0.  1.
         15    1    1    2    0    0 -0.77127760810E+01  0.38140680071E+01 -0.32462723030E+02  0.33630642949E+02  0.17770000000E+01 0. -1.
</event>
<event>
 6    1  0.6564965E-004  0.5006607E+03  0.7546771E-02  0.9398332E-01
        -11   -1    0    0    0    0  0.00000000000E+00  0.00000000000E+00  0.50000000000E+03  0.50000000000E+03  0.00000000000E+00 0. -1.
         11   -1    0    0    0    0 -0.00000000000E+00 -0.00000000000E+00 -0.50000000000E+03  0.50000000000E+03  0.00000000000E+00 0. -1.
        -11    1    1    2    0    0  0.93337919249E+01 -0.13355908820E+02  0.24613877654E+03  0.24667751678E+03  0.00000000000E+00 0. -1.
         11    1    1    2    0    0 -0.84119999508E+01  0.19252405814E+00 -0.49926837424E+03  0.49933927176E+03  0.00000000000E+00 0. -1.
        -15    1    1    2    0    0 -0.43129466851E+01  0.57486995750E+01  0.20513662377E+03  0.20527016635E+03  0.17770000000E+01 0.  1.
         15    1    1    2    0    0  0.33911547110E+01  0.74146851865E+01  0.47992973936E+02  0.48713045100E+02  0.17770000000E+01 0. -1.
</event>
<event>
 6    1  0.6564965E-004  0.5023411E+03  0.7546771E-02  0.9394586E-01
        -11   -1    0    0    0    0  0.00000000000E+00  0.00000000000E+00  0.50000000000E+03  0.50000000000E+03  0.00000000000E+00 0.  1.
         11   -1    0    0    0    0 -0.00000000000E+00 -0.00000000000E+00 -0.50000000000E+03  0.50000000000E+03  0.00000000000E+00 0. -1.
        -11    1    1    2    0    0  0.81989955175E+01  0.10851441173E+02  0.49747299150E+03  0.49765887370E+03  0.00000000000E+00 0.  1.
         11    1    1    2    0    0  0.68701777950E+01 -0.18848970546E+01 -0.45571759190E+03  0.45577327231E+03  0.00000000000E+00 0. -1.
        -15    1    1    2    0    0 -0.56049397479E+00 -0.48933954000E+00 -0.50622086664E+00  0.19918823376E+01  0.17770000000E+01 0. -1.
         15    1    1    2    0    0 -0.14508679338E+02 -0.84772045788E+01 -0.41249178731E+02  0.44575971651E+02  0.17770000000E+01 0.  1.
</event>
<event>
 6    1  0.6564965E-004  0.5035050E+03  0.7546771E-02  0.9392001E-01
        -11   -1    0    0    0    0  0.00000000000E+00  0.00000000000E+00  0.50000000000E+03  0.50000000000E+03  0.00000000000E+00 0. -1.
         11   -1    0    0    0    0 -0.00000000000E+00 -0.00000000000E+00 -0.50000000000E+03  0.50000000000E+03  0.00000000000E+00 0.  1.
        -11    1    1    2    0    0 -0.40909341608E+02  0.51181900148E+01  0.20553077767E+03  0.20962507166E+03  0.00000000000E+00 0. -1.
         11    1    1    2    0    0  0.47143025199E+01 -0.78834095795E+01 -0.49640998502E+03  0.49649496072E+03  0.00000000000E+00 0.  1.
        -15    1    1    2    0    0  0.79667584031E+00  0.59756194571E+01  0.40799147877E+02  0.41280393854E+02  0.17770000000E+01 0.  1.
         15    1    1    2    0    0  0.35398363248E+02 -0.32103998923E+01  0.25008005947E+03  0.25259957376E+03  0.17770000000E+01 0. -1.
</event>
<event>
 6    1  0.6564965E-004  0.5063397E+03  0.7546771E-02  0.9385735E-01
        -11   -1    0    0    0    0  0.00000000000E+00  0.00000000000E+00  0.50000000000E+03  0.50000000000E+03  0.00000000000E+00 0. -1.
         11   -1    0    0    0    0 -0.00000000000E+00 -0.00000000000E+00 -0.50000000000E+03  0.50000000000E+03  0.00000000000E+00 0. -1.
        -11    1    1    2    0    0  0.62293220924E+01 -0.66501931340E+01  0.49357620738E+03  0.49366031035E+03  0.00000000000E+00 0. -1.
         11    1    1    2    0    0  0.99753066683E+01 -0.10849947914E+02 -0.44668380533E+03  0.44692689565E+03  0.00000000000E+00 0. -1.
        -15    1    1    2    0    0 -0.79175431789E+01  0.87306177345E+01 -0.10381448798E+01  0.11964390908E+02  0.17770000000E+01 0.  1.
         15    1    1    2    0    0 -0.82870855818E+01  0.87695233135E+01 -0.45854257173E+02  0.47448403097E+02  0.17770000000E+01 0. -1.
</event>
<event>
 6    1  0.6564965E-004  0.5006948E+03  0.7546771E-02  0.9398256E-01
        -11   -1    0    0    0    0  0.00000000000E+00  0.00000000000E+00  0.50000000000E+03  0.50000000000E+03  0.00000000000E+00 0.  1.
         11   -1    0    0    0    0 -0.00000000000E+00 -0.00000000000E+00 -0.50000000000E+03  0.50000000000E+03  0.00000000000E+00 0. -1.
        -11    1    1    2    0    0  0.29602862649E+01  0.55413839336E+01  0.42494192727E+03  0.42498836665E+03  0.00000000000E+00 0.  1.
         11    1    1    2    0    0 -0.50712980202E+01  0.47534105500E+01 -0.49925678404E+03  0.49930516659E+03  0.00000000000E+00 0. -1.
        -15    1    1    2    0    0 -0.28168712223E+01 -0.29445376981E+01  0.13195167211E+02  0.13923908664E+02  0.17770000000E+01 0. -1.
         15    1    1    2    0    0  0.49278829776E+01 -0.73502567855E+01  0.61119689552E+02  0.61782558100E+02  0.17770000000E+01 0.  1.
</event>
<event>
 6    1  0.6564965E-004  0.5045184E+03  0.7546771E-02  0.9389756E-01
        -11   -1    0    0    0    0  0.00000000000E+00  0.00000000000E+00  0.50000000000E+03  0.50000000000E+03  0.00000000000E+00 0. -1.
         11   -1    0    0    0    0 -0.00000000000E+00 -0.00000000000E+00 -0.50000000000E+03  0.50000000000E+03  0.00000000000E+00 0. -1.
        -11    1    1    2    0    0  0.17247414646E+01  0.90119188985E+01  0.47720101788E+03  0.47728922142E+03  0.00000000000E+00 0. -1.
         11    1    1    2    0    0  0.90898796314E-01  0.99258455161E+01 -0.49538216598E+03  0.49548160515E+03  0.00000000000E+00 0. -1.
        -15    1    1    2    0    0  0.44133949273E+00 -0.16109389858E+02  0.15093713573E+02  0.22151413963E+02  0.17770000000E+01 0.  1.
         15    1    1    2    0    0 -0.22569797537E+01 -0.28283745569E+01  0.30874345305E+01  0.50777594688E+01  0.17770000000E+01 0. -1.
</event>
<event>
 6    1  0.6564965E-004  0.5048916E+03  0.7546771E-02  0.9388930E-01
        -11   -1    0    0    0    0  0.00000000000E+00  0.00000000000E+00  0.50000000000E+03  0.50000000000E+03  0.00000000000E+00 0. -1.
         11   -1    0    0    0    0 -0.00000000000E+00 -0.00000000000E+00 -0.50000000000E+03  0.50000000000E+03  0.00000000000E+00 0.  1.
        -11    1    1    2    0    0  0.15940604669E+00 -0.10801224370E+02  0.47587486326E+03  0.47599745518E+03  0.00000000000E+00 0. -1.
         11    1    1    2    0    0 -0.88047175252E+01  0.43686157831E+01 -0.49501085421E+03  0.49510842615E+03  0.00000000000E+00 0.  1.
        -15    1    1    2    0    0  0.11316366037E+00 -0.23167324550E+01 -0.25893632564E+01  0.39041755027E+01  0.17770000000E+01 0.  1.
         15    1    1    2    0    0  0.85321478182E+01  0.87493410419E+01  0.21725354208E+02  0.24989943168E+02  0.17770000000E+01 0. -1.
</event>
<event>
 6    1  0.6564965E-004  0.5016939E+03  0.7546771E-02  0.9396027E-01
        -11   -1    0    0    0    0  0.00000000000E+00  0.00000000000E+00  0.50000000000E+03  0.50000000000E+03  0.00000000000E+00 0.  1.
         11   -1    0    0    0    0 -0.00000000000E+00 -0.00000000000E+00 -0.50000000000E+03  0.50000000000E+03  0.00000000000E+00 0. -1.
        -11    1    1    2    0    0  0.90153785691E+01  0.15547298878E+02  0.22484163950E+03  0.22555876929E+03  0.00000000000E+00 0.  1.
         11    1    1    2    0    0 -0.63232788431E+01 -0.10195755675E+02 -0.49816163805E+03  0.49830608557E+03  0.00000000000E+00 0. -1.
        -15    1    1    2    0    0 -0.37741924019E+01 -0.17121241155E+02  0.24153874404E+03  0.24218072596E+03  0.17770000000E+01 0.  1.
         15    1    1    2    0    0  0.10820926759E+01  0.11769697952E+02  0.31781254509E+02  0.33954419176E+02  0.17770000000E+01 0. -1.
</event>
<event>
 6    1  0.6564965E-004  0.5069612E+03  0.7546771E-02  0.9384367E-01
        -11   -1    0    0    0    0  0.00000000000E+00  0.00000000000E+00  0.50000000000E+03  0.50000000000E+03  0.00000000000E+00 0.  1.
         11   -1    0    0    0    0 -0.00000000000E+00 -0.00000000000E+00 -0.50000000000E+03  0.50000000000E+03  0.00000000000E+00 0.  1.
        -11    1    1    2    0    0 -0.25273411098E+02 -0.26695323607E+02  0.49166646955E+03  0.49303884522E+03  0.00000000000E+00 0.  1.
         11    1    1    2    0    0  0.49611685646E+01 -0.12819400512E+01 -0.37884603159E+03  0.37888068335E+03  0.00000000000E+00 0.  1.
        -15    1    1    2    0    0  0.24986598605E+02  0.27689140850E+02 -0.38646476980E+02  0.53737571054E+02  0.17770000000E+01 0.  1.
         15    1    1    2    0    0 -0.46743560710E+01  0.28812280737E+00 -0.74173960984E+02  0.74342900377E+02  0.17770000000E+01 0. -1.
</event>
<event>
 6    1  0.6564965E-004  0.5004070E+03  0.7546771E-02  0.9398899E-01
        -11   -1    0    0    0    0  0.00000000000E+00  0.00000000000E+00  0.50000000000E+03  0.50000000000E+03  0.00000000000E+00 0.  1.
         11   -1    0    0    0    0 -0.00000000000E+00 -0.00000000000E+00 -0.50000000000E+03  0.50000000000E+03  0.00000000000E+00 0.  1.
        -11    1    1    2    0    0  0.12904282234E+02  0.16685733194E+02  0.49914748759E+03  0.49959298290E+03  0.00000000000E+00 0.  1.
         11    1    1    2    0    0  0.26534213497E+01 -0.31489069191E+01 -0.29477698896E+03  0.29480574872E+03  0.00000000000E+00 0.  1.
        -15    1    1    2    0    0 -0.14764016742E+02 -0.96485789133E+01 -0.17727977131E+03  0.17816381875E+03  0.17770000000E+01 0.  1.
         15    1    1    2    0    0 -0.79368684176E+00 -0.38882473617E+01 -0.27090727316E+02  0.27437449624E+02  0.17770000000E+01 0. -1.
</event>
<event>
 6    1  0.6564965E-004  0.5005776E+03  0.7546771E-02  0.9398518E-01
        -11   -1    0    0    0    0  0.00000000000E+00  0.00000000000E+00  0.50000000000E+03  0.50000000000E+03  0.00000000000E+00 0.  1.
         11   -1    0    0    0    0 -0.00000000000E+00 -0.00000000000E+00 -0.50000000000E+03  0.50000000000E+03  0.00000000000E+00 0. -1.
        -11    1    1    2    0    0 -0.42115470286E+00  0.92485808014E+01  0.53124602192E+02  0.53925290691E+02  0.00000000000E+00 0.  1.
         11    1    1    2    0    0  0.11150012410E+02  0.86417509644E+01 -0.49922312431E+03  0.49942239686E+03  0.00000000000E+00 0. -1.
        -15    1    1    2    0    0 -0.98730252537E+01 -0.17576516946E+02  0.40636774381E+03  0.40687136974E+03  0.17770000000E+01 0.  1.
         15    1    1    2    0    0 -0.85583245315E+00 -0.31381482000E+00  0.39730778310E+02  0.39780942712E+02  0.17770000000E+01 0.  1.
</event>
<event>
 6    1  0.6564965E-004  0.5013708E+03  0.7546771E-02  0.9396748E-01
        -11   -1    0    0    0    0  0.00000000000E+00  0.00000000000E+00  0.50000000000E+03  0.50000000000E+03  0.00000000000E+00 0. -1.
         11   -1    0    0    0    0 -0.00000000000E+00 -0.00000000000E+00 -0.50000000000E+03  0.50000000000E+03  0.00000000000E+00 0.  1.
        -11    1    1    2    0    0 -0.22160208984E+01 -0.61975261471E+01  0.46477061860E+03  0.46481721998E+03  0.00000000000E+00 0. -1.
         11    1    1    2    0    0  0.14608550938E+02  0.72147656045E+01 -0.49836293353E+03  0.49862919702E+03  0.00000000000E+00 0.  1.
        -15    1    1    2    0    0 -0.88640386773E+01 -0.20927665424E+01  0.28759469565E+02  0.30219458502E+02  0.17770000000E+01 0. -1.
         15    1    1    2    0    0 -0.35284913619E+01  0.10755270849E+01  0.48328453667E+01  0.63341244967E+01  0.17770000000E+01 0.  1.
</event>
<event>
 6    1  0.6564965E-004  0.5008292E+03  0.7546771E-02  0.9397956E-01
        -11   -1    0    0    0    0  0.00000000000E+00  0.00000000000E+00  0.50000000000E+03  0.50000000000E+03  0.00000000000E+00 0. -1.
         11   -1    0    0    0    0 -0.00000000000E+00 -0.00000000000E+00 -0.50000000000E+03  0.50000000000E+03  0.00000000000E+00 0. -1.
        -11    1    1    2    0    0 -0.17092880243E+02  0.20450339369E+02  0.49845877764E+03  0.49917084845E+03  0.00000000000E+00 0. -1.
         11    1    1    2    0    0 -0.11723404151E+01  0.36414777819E+01 -0.24804872961E+03  0.24807822759E+03  0.00000000000E+00 0. -1.
        -15    1    1    2    0    0  0.14615331437E+02 -0.22809741579E+02 -0.23959436099E+03  0.24112757571E+03  0.17770000000E+01 0. -1.
         15    1    1    2    0    0  0.36498892212E+01 -0.12820755716E+01 -0.10815687043E+02  0.11623348240E+02  0.17770000000E+01 0.  1.
</event>
<event>
 6    1  0.6564965E-004  0.5014384E+03  0.7546771E-02  0.9396597E-01
        -11   -1    0    0    0    0  0.00000000000E+00  0.00000000000E+00  0.50000000000E+03  0.50000000000E+03  0.00000000000E+00 0. -1.
         11   -1    0    0    0    0 -0.00000000000E+00 -0.00000000000E+00 -0.50000000000E+03  0.50000000000E+03  0.00000000000E+00 0. -1.
        -11    1    1    2    0    0 -0.37831443036E+00  0.78794866714E+01  0.49849917558E+03  0.49856158846E+03  0.00000000000E+00 0. -1.
         11    1    1    2    0    0  0.56094012237E+01  0.33540339061E+01 -0.45157528883E+03  0.45162258182E+03  0.00000000000E+00 0. -1.
        -15    1    1    2    0    0 -0.27443873757E+01  0.47015592214E+00 -0.20377132842E+02  0.20643109759E+02  0.17770000000E+01 0.  1.
         15    1    1    2    0    0 -0.24866994177E+01 -0.11703676500E+02 -0.26546753914E+02  0.29172719962E+02  0.17770000000E+01 0. -1.
</event>
<event>
 6    1  0.6564965E-004  0.5040126E+03  0.7546771E-02  0.9390876E-01
        -11   -1    0    0    0    0  0.00000000000E+00  0.00000000000E+00  0.50000000000E+03  0.50000000000E+03  0.00000000000E+00 0. -1.
         11   -1    0    0    0    0 -0.00000000000E+00 -0.00000000000E+00 -0.50000000000E+03  0.50000000000E+03  0.00000000000E+00 0. -1.
        -11    1    1    2    0    0  0.94158338154E+01 -0.21031858516E+01  0.49589354565E+03  0.49598738889E+03  0.00000000000E+00 0. -1.
         11    1    1    2    0    0  0.12682462325E+01  0.74939669897E+01 -0.48801990464E+03  0.48807908715E+03  0.00000000000E+00 0. -1.
        -15    1    1    2    0    0 -0.78046992881E+01 -0.31911792179E+01 -0.20659369042E+01  0.88613080338E+01  0.17770000000E+01 0. -1.
         15    1    1    2    0    0 -0.28793807598E+01 -0.21996019202E+01 -0.58077041045E+01  0.70722159280E+01  0.17770000000E+01 0.  1.
</event>
<event>
 6    1  0.6564965E-004  0.5002585E+03  0.7546771E-02  0.9399231E-01
        -11   -1    0    0    0    0  0.00000000000E+00  0.00000000000E+00  0.50000000000E+03  0.50000000000E+03  0.00000000000E+00 0.  1.
         11   -1    0    0    0    0 -0.00000000000E+00 -0.00000000000E+00 -0.50000000000E+03  0.50000000000E+03  0.00000000000E+00 0. -1.
        -11    1    1    2    0    0  0.79963456737E+01  0.16185623702E+02  0.24584628087E+03  0.24650823470E+03  0.00000000000E+00 0.  1.
         11    1    1    2    0    0 -0.91942065220E+01 -0.11677636973E+02 -0.49952041696E+03  0.49974148077E+03  0.00000000000E+00 0. -1.
        -15    1    1    2    0    0  0.46648645721E+00 -0.10224042187E+01  0.11426377866E+03  0.11428312107E+03  0.17770000000E+01 0.  1.
         15    1    1    2    0    0  0.73137439108E+00 -0.34855825099E+01  0.13941035744E+03  0.13946716346E+03  0.17770000000E+01 0.  1.
</event>
<event>
 6    1  0.6564965E-004  0.5041200E+03  0.7546771E-02  0.9390638E-01
        -11   -1    0    0    0    0  0.00000000000E+00  0.00000000000E+00  0.50000000000E+03  0.50000000000E+03  0.00000000000E+00 0. -1.
         11   -1    0    0    0    0 -0.00000000000E+00 -0.00000000000E+00 -0.50000000000E+03  0.50000000000E+03  0.00000000000E+00 0.  1.
        -11    1    1    2    0    0  0.73882013518E+01 -0.54561131331E+01  0.48167810841E+03  0.48176566380E+03  0.00000000000E+00 0. -1.
         11    1    1    2    0    0 -0.19406629386E+01 -0.81476876144E+01 -0.49580930905E+03  0.49588004792E+03  0.00000000000E+00 0.  1.
        -15    1    1    2    0    0 -0.96464284702E+00  0.11913344988E+02  0.11128518272E+02  0.16427415273E+02  0.17770000000E+01 0. -1.
         15    1    1    2    0    0 -0.44828955662E+01  0.16904557592E+01  0.30026823634E+01  0.59268730125E+01  0.17770000000E+01 0. -1.
</event>
<event>
 6    1  0.6564965E-004  0.5221007E+03  0.7546771E-02  0.9351672E-01
        -11   -1    0    0    0    0  0.00000000000E+00  0.00000000000E+00  0.50000000000E+03  0.50000000000E+03  0.00000000000E+00 0. -1.
         11   -1    0    0    0    0 -0.00000000000E+00 -0.00000000000E+00 -0.50000000000E+03  0.50000000000E+03  0.00000000000E+00 0.  1.
        -11    1    1    2    0    0 -0.12193635022E+02  0.38076407831E+02  0.47622398682E+03  0.47789934420E+03  0.00000000000E+00 0. -1.
         11    1    1    2    0    0  0.26721210226E+02 -0.60221192638E+02 -0.42366800699E+03  0.42876006725E+03  0.00000000000E+00 0.  1.
        -15    1    1    2    0    0  0.14510751100E+02 -0.16892596465E+02 -0.35127094886E+02  0.41629223353E+02  0.17770000000E+01 0. -1.
         15    1    1    2    0    0 -0.29038326304E+02  0.39037381273E+02 -0.17428884945E+02  0.51711365198E+02  0.17770000000E+01 0.  1.
</event>
<event>
 6    1  0.6564965E-004  0.5071944E+03  0.7546771E-02  0.9383854E-01
        -11   -1    0    0    0    0  0.00000000000E+00  0.00000000000E+00  0.50000000000E+03  0.50000000000E+03  0.00000000000E+00 0.  1.
         11   -1    0    0    0    0 -0.00000000000E+00 -0.00000000000E+00 -0.50000000000E+03  0.50000000000E+03  0.00000000000E+00 0.  1.
        -11    1    1    2    0    0  0.29278090090E+02  0.33006390668E+01  0.49192404129E+03  0.49280560384E+03  0.00000000000E+00 0.  1.
         11    1    1    2    0    0 -0.82038383741E+01 -0.17492439955E+02 -0.47169652062E+03  0.47209204186E+03  0.00000000000E+00 0.  1.
        -15    1    1    2    0    0 -0.16603022149E+01  0.35256894010E+01  0.96988335095E+00  0.43915250098E+01  0.17770000000E+01 0.  1.
         15    1    1    2    0    0 -0.19413949501E+02  0.10666111487E+02 -0.21197404023E+02  0.30710829292E+02  0.17770000000E+01 0. -1.
</event>
<event>
 6    1  0.6564965E-004  0.5001157E+03  0.7546771E-02  0.9399551E-01
        -11   -1    0    0    0    0  0.00000000000E+00  0.00000000000E+00  0.50000000000E+03  0.50000000000E+03  0.00000000000E+00 0.  1.
         11   -1    0    0    0    0 -0.00000000000E+00 -0.00000000000E+00 -0.50000000000E+03  0.50000000000E+03  0.00000000000E+00 0. -1.
        -11    1    1    2    0    0 -0.30707596410E+00 -0.54482233279E+01  0.22020385038E+03  0.22027145334E+03  0.00000000000E+00 0.  1.
         11    1    1    2    0    0  0.61789131520E+01  0.64232555687E+01 -0.49980485513E+03  0.49988431701E+03  0.00000000000E+00 0. -1.
        -15    1    1    2    0    0 -0.47593849367E+01 -0.49762560041E+01  0.16003973294E+03  0.16019765516E+03  0.17770000000E+01 0.  1.
         15    1    1    2    0    0 -0.11124522512E+01  0.40012237634E+01  0.11956127181E+03  0.11964657449E+03  0.17770000000E+01 0. -1.
</event>
<event>
 6    1  0.6564965E-004  0.5008470E+03  0.7546771E-02  0.9397917E-01
        -11   -1    0    0    0    0  0.00000000000E+00  0.00000000000E+00  0.50000000000E+03  0.50000000000E+03  0.00000000000E+00 0.  1.
         11   -1    0    0    0    0 -0.00000000000E+00 -0.00000000000E+00 -0.50000000000E+03  0.50000000000E+03  0.00000000000E+00 0.  1.
        -11    1    1    2    0    0 -0.20338572831E+02  0.15643742255E+02  0.20299232605E+03  0.20460759676E+03  0.00000000000E+00 0.  1.
         11    1    1    2    0    0  0.11738892242E+02 -0.82632570595E+01 -0.49894655354E+03  0.49915302894E+03  0.00000000000E+00 0.  1.
        -15    1    1    2    0    0  0.42846693054E+01 -0.68763524423E+01  0.19341326874E+03  0.19359104542E+03  0.17770000000E+01 0. -1.
         15    1    1    2    0    0  0.43150112834E+01 -0.50413275320E+00  0.10254095875E+03  0.10264832889E+03  0.17770000000E+01 0.  1.
</event>
<event>
 6    1  0.6564965E-004  0.5063795E+03  0.7546771E-02  0.9385647E-01
        -11   -1    0    0    0    0  0.00000000000E+00  0.00000000000E+00  0.50000000000E+03  0.50000000000E+03  0.00000000000E+00 0. -1.
         11   -1    0    0    0    0 -0.00000000000E+00 -0.00000000000E+00 -0.50000000000E+03  0.50000000000E+03  0.00000000000E+00 0.  1.
        -11    1    1    2    0    0 -0.27699273274E+02 -0.51579580051E+01  0.40684264689E+03  0.40781710803E+03  0.00000000000E+00 0. -1.
         11    1    1    2    0    0 -0.40656755524E+01 -0.16549983849E+02 -0.49332618513E+03  0.49362045806E+03  0.00000000000E+00 0.  1.
        -15    1    1    2    0    0  0.31952953218E+02  0.15328250002E+02  0.84497900287E+02  0.91646054740E+02  0.17770000000E+01 0. -1.
         15    1    1    2    0    0 -0.18800439104E+00  0.63796918520E+01  0.19856379462E+01  0.69163791706E+01  0.17770000000E+01 0.  1.
</event>
<event>
 6    1  0.7029895E-004  0.5001257E+03  0.7546771E-02  0.9399529E-01
        -11   -1    0    0    0    0  0.00000000000E+00  0.00000000000E+00  0.50000000000E+03  0.50000000000E+03  0.00000000000E+00 0. -1.
         11   -1    0    0    0    0 -0.00000000000E+00 -0.00000000000E+00 -0.50000000000E+03  0.50000000000E+03  0.00000000000E+00 0.  1.
        -11    1    1    2    0    0 -0.14239697553E+02  0.10508505503E+02  0.49956093625E+03  0.49987431090E+03  0.00000000000E+00 0. -1.
         11    1    1    2    0    0  0.45986696746E+00  0.11125439280E+01 -0.67487615837E+02  0.67498352002E+02  0.00000000000E+00 0.  1.
        -15    1    1    2    0    0  0.42073424426E+01  0.17831387318E+01 -0.67523816978E+02  0.67701587149E+02  0.17770000000E+01 0.  1.
         15    1    1    2    0    0  0.95724881430E+01 -0.13404188163E+02 -0.36454950344E+03  0.36492574995E+03  0.17770000000E+01 0.  1.
</event>
<event>
 6    1  0.6564965E-004  0.5000462E+03  0.7546771E-02  0.9399706E-01
        -11   -1    0    0    0    0  0.00000000000E+00  0.00000000000E+00  0.50000000000E+03  0.50000000000E+03  0.00000000000E+00 0. -1.
         11   -1    0    0    0    0 -0.00000000000E+00 -0.00000000000E+00 -0.50000000000E+03  0.50000000000E+03  0.00000000000E+00 0. -1.
        -11    1    1    2    0    0 -0.15250678342E+01 -0.21543807098E+01  0.59703481822E+02  0.59761801595E+02  0.00000000000E+00 0. -1.
         11    1    1    2    0    0  0.62387552199E+01  0.59299737482E+01 -0.49987972196E+03  0.49995382095E+03  0.00000000000E+00 0. -1.
        -15    1    1    2    0    0 -0.46726067301E+00 -0.45992552686E+01  0.26184009152E+03  0.26188692739E+03  0.17770000000E+01 0. -1.
         15    1    1    2    0    0 -0.42464267127E+01  0.82366223016E+00  0.17833614861E+03  0.17839745007E+03  0.17770000000E+01 0.  1.
</event>
<event>
 6    1  0.6564965E-004  0.5000588E+03  0.7546771E-02  0.9399678E-01
        -11   -1    0    0    0    0  0.00000000000E+00  0.00000000000E+00  0.50000000000E+03  0.50000000000E+03  0.00000000000E+00 0. -1.
         11   -1    0    0    0    0 -0.00000000000E+00 -0.00000000000E+00 -0.50000000000E+03  0.50000000000E+03  0.00000000000E+00 0. -1.
        -11    1    1    2    0    0 -0.26399585367E+01 -0.77302694363E+00  0.30560043632E+02  0.30683598527E+02  0.00000000000E+00 0. -1.
         11    1    1    2    0    0  0.75986122532E+01 -0.35661088947E+01 -0.49987071448E+03  0.49994118377E+03  0.00000000000E+00 0. -1.
        -15    1    1    2    0    0 -0.21666527892E+01  0.80267519697E+00  0.15829996283E+03  0.15832679695E+03  0.17770000000E+01 0. -1.
         15    1    1    2    0    0 -0.27920009274E+01  0.35364606414E+01  0.31101070801E+03  0.31104842075E+03  0.17770000000E+01 0. -1.
</event>
<event>
 6    1  0.6564965E-004  0.5035919E+03  0.7546771E-02  0.9391808E-01
        -11   -1    0    0    0    0  0.00000000000E+00  0.00000000000E+00  0.50000000000E+03  0.50000000000E+03  0.00000000000E+00 0. -1.
         11   -1    0    0    0    0 -0.00000000000E+00 -0.00000000000E+00 -0.50000000000E+03  0.50000000000E+03  0.00000000000E+00 0. -1.
        -11    1    1    2    0    0 -0.25334701494E+01  0.11702987535E+02  0.49626364018E+03  0.49640807704E+03  0.00000000000E+00 0. -1.
         11    1    1    2    0    0  0.91211413493E+01  0.17096614493E+01 -0.46913947745E+03  0.46923125158E+03  0.00000000000E+00 0. -1.
        -15    1    1    2    0    0  0.65509245866E+00 -0.12600079663E+02 -0.12118245998E+02  0.17584105570E+02  0.17770000000E+01 0.  1.
         15    1    1    2    0    0 -0.72427636586E+01 -0.81256932180E+00 -0.15005916730E+02  0.16776565805E+02  0.17770000000E+01 0. -1.
</event>
<event>
 6    1  0.6564965E-004  0.5025377E+03  0.7546771E-02  0.9394149E-01
        -11   -1    0    0    0    0  0.00000000000E+00  0.00000000000E+00  0.50000000000E+03  0.50000000000E+03  0.00000000000E+00 0.  1.
         11   -1    0    0    0    0 -0.00000000000E+00 -0.00000000000E+00 -0.50000000000E+03  0.50000000000E+03  0.00000000000E+00 0.  1.
        -11    1    1    2    0    0  0.17303820139E+02 -0.17969276120E+02  0.45151144003E+03  0.45220006364E+03  0.00000000000E+00 0.  1.
         11    1    1    2    0    0 -0.10231559159E+02  0.33037701206E-01 -0.49735711480E+03  0.49746234585E+03  0.00000000000E+00 0.  1.
        -15    1    1    2    0    0  0.93196861998E+00  0.23365435400E+01  0.85504656971E+01  0.90882448174E+01  0.17770000000E+01 0. -1.
         15    1    1    2    0    0 -0.80042296005E+01  0.15599694879E+02  0.37295209069E+02  0.41249345696E+02  0.17770000000E+01 0.  1.
</event>
<event>
 6    1  0.6564965E-004  0.5086656E+03  0.7546771E-02  0.9380626E-01
        -11   -1    0    0    0    0  0.00000000000E+00  0.00000000000E+00  0.50000000000E+03  0.50000000000E+03  0.00000000000E+00 0. -1.
         11   -1    0    0    0    0 -0.00000000000E+00 -0.00000000000E+00 -0.50000000000E+03  0.50000000000E+03  0.00000000000E+00 0.  1.
        -11    1    1    2    0    0  0.23961353754E+02  0.24754142461E+02  0.40122717288E+03  0.40270356132E+03  0.00000000000E+00 0. -1.
         11    1    1    2    0    0 -0.23343831569E+02  0.21940915138E+02 -0.49028881197E+03  0.49133436413E+03  0.00000000000E+00 0.  1.
        -15    1    1    2    0    0  0.14485560205E+02 -0.24524526729E+02  0.59582877640E+02  0.66064823489E+02  0.17770000000E+01 0. -1.
         15    1    1    2    0    0 -0.15103082390E+02 -0.22170530870E+02  0.29478761453E+02  0.39897251065E+02  0.17770000000E+01 0.  1.
</event>
<event>
 6    1  0.6564965E-004  0.5012325E+03  0.7546771E-02  0.9397056E-01
        -11   -1    0    0    0    0  0.00000000000E+00  0.00000000000E+00  0.50000000000E+03  0.50000000000E+03  0.00000000000E+00 0. -1.
         11   -1    0    0    0    0 -0.00000000000E+00 -0.00000000000E+00 -0.50000000000E+03  0.50000000000E+03  0.00000000000E+00 0.  1.
        -11    1    1    2    0    0 -0.22528060787E+02  0.44839656256E-03  0.19161753140E+03  0.19293727443E+03  0.00000000000E+00 0. -1.
         11    1    1    2    0    0  0.13154878769E+01  0.10863299351E+02 -0.49864747264E+03  0.49876752476E+03  0.00000000000E+00 0.  1.
        -15    1    1    2    0    0  0.20105827782E+02 -0.67190488797E+01  0.28435889936E+03  0.28515352234E+03  0.17770000000E+01 0. -1.
         15    1    1    2    0    0  0.11067451277E+01 -0.41446988677E+01  0.22671041882E+02  0.23141678471E+02  0.17770000000E+01 0.  1.
</event>
<event>
 6    1  0.6564965E-004  0.4428779E+03  0.7546771E-02  0.9537560E-01
        -11   -1    0    0    0    0  0.00000000000E+00  0.00000000000E+00  0.50000000000E+03  0.50000000000E+03  0.00000000000E+00 0.  1.
         11   -1    0    0    0    0 -0.00000000000E+00 -0.00000000000E+00 -0.50000000000E+03  0.50000000000E+03  0.00000000000E+00 0. -1.
        -11    1    1    2    0    0 -0.43569767417E+02 -0.91580291340E+02  0.41988908197E+03  0.43196309513E+03  0.00000000000E+00 0.  1.
         11    1    1    2    0    0  0.21775638453E+02 -0.25693713061E+01 -0.45940168639E+03  0.45992465639E+03  0.00000000000E+00 0. -1.
        -15    1    1    2    0    0 -0.24311265922E+01  0.16316141049E+02  0.16480917496E+02  0.23386004484E+02  0.17770000000E+01 0.  1.
         15    1    1    2    0    0  0.24225255557E+02  0.77833521598E+02  0.23031686920E+02  0.84726244001E+02  0.17770000000E+01 0. -1.
</event>
<event>
 6    1  0.6564965E-004  0.5000410E+03  0.7546771E-02  0.9399718E-01
        -11   -1    0    0    0    0  0.00000000000E+00  0.00000000000E+00  0.50000000000E+03  0.50000000000E+03  0.00000000000E+00 0.  1.
         11   -1    0    0    0    0 -0.00000000000E+00 -0.00000000000E+00 -0.50000000000E+03  0.50000000000E+03  0.00000000000E+00 0. -1.
        -11    1    1    2    0    0  0.37922890667E+01 -0.89265451290E+00  0.11819743648E+03  0.11826162640E+03  0.00000000000E+00 0.  1.
         11    1    1    2    0    0 -0.34902293279E+01  0.77241211734E+01 -0.49988713294E+03  0.49995898775E+03  0.00000000000E+00 0. -1.
        -15    1    1    2    0    0  0.49738221186E-01 -0.39062199372E+01  0.27680553729E+03  0.27683880551E+03  0.17770000000E+01 0.  1.
         15    1    1    2    0    0 -0.35179795992E+00 -0.29252467234E+01  0.10488415917E+03  0.10494058035E+03  0.17770000000E+01 0.  1.
</event>
<event>
 6    1  0.6564965E-004  0.4932669E+03  0.7546771E-02  0.9415003E-01
        -11   -1    0    0    0    0  0.00000000000E+00  0.00000000000E+00  0.50000000000E+03  0.50000000000E+03  0.00000000000E+00 0. -1.
         11   -1    0    0    0    0 -0.00000000000E+00 -0.00000000000E+00 -0.50000000000E+03  0.50000000000E+03  0.00000000000E+00 0.  1.
        -11    1    1    2    0    0 -0.47886026730E+01  0.97930300421E+01  0.49154085338E+03  0.49166171775E+03  0.00000000000E+00 0. -1.
         11    1    1    2    0    0 -0.43290707176E+01 -0.54430135290E+01 -0.49488066161E+03  0.49492952679E+03  0.00000000000E+00 0.  1.
        -15    1    1    2    0    0  0.25173657084E+01 -0.42976220132E+01  0.38695917884E+01  0.65527211666E+01  0.17770000000E+01 0. -1.
         15    1    1    2    0    0  0.66003076822E+01 -0.52394499884E-01 -0.52978355755E+00  0.68560342984E+01  0.17770000000E+01 0.  1.
</event>
<event>
 6    1  0.6564965E-004  0.5004466E+03  0.7546771E-02  0.9398811E-01
        -11   -1    0    0    0    0  0.00000000000E+00  0.00000000000E+00  0.50000000000E+03  0.50000000000E+03  0.00000000000E+00 0. -1.
         11   -1    0    0    0    0 -0.00000000000E+00 -0.00000000000E+00 -0.50000000000E+03  0.50000000000E+03  0.00000000000E+00 0. -1.
        -11    1    1    2    0    0 -0.12996013244E+02  0.21761916172E+01  0.49937959377E+03  0.49955341140E+03  0.00000000000E+00 0. -1.
         11    1    1    2    0    0  0.72600855614E+01 -0.69884295920E+01 -0.45395432666E+03  0.45406616003E+03  0.00000000000E+00 0. -1.
        -15    1    1    2    0    0  0.47101286632E+01  0.35935508430E+01 -0.39680940211E+02  0.40160100407E+02  0.17770000000E+01 0. -1.
         15    1    1    2    0    0  0.10257990193E+01  0.12186871318E+01 -0.57443268955E+01  0.62203281615E+01  0.17770000000E+01 0.  1.
</event>
<event>
 6    1  0.6564965E-004  0.5001300E+03  0.7546771E-02  0.9399519E-01
        -11   -1    0    0    0    0  0.00000000000E+00  0.00000000000E+00  0.50000000000E+03  0.50000000000E+03  0.00000000000E+00 0.  1.
         11   -1    0    0    0    0 -0.00000000000E+00 -0.00000000000E+00 -0.50000000000E+03  0.50000000000E+03  0.00000000000E+00 0.  1.
        -11    1    1    2    0    0  0.32209400315E+01  0.37734335162E+01  0.18619460671E+03  0.18626069049E+03  0.00000000000E+00 0.  1.
         11    1    1    2    0    0 -0.49700422186E+01  0.50955964669E+01 -0.49981935383E+03  0.49987003600E+03  0.00000000000E+00 0.  1.
        -15    1    1    2    0    0  0.72898209057E+00 -0.13241651381E+01  0.19267973979E+02  0.19408693373E+02  0.17770000000E+01 0. -1.
         15    1    1    2    0    0  0.10201200965E+01 -0.75448648450E+01  0.29435677315E+03  0.29446058014E+03  0.17770000000E+01 0.  1.
</event>
<event>
 6    1  0.6564965E-004  0.5009439E+03  0.7546771E-02  0.9397700E-01
        -11   -1    0    0    0    0  0.00000000000E+00  0.00000000000E+00  0.50000000000E+03  0.50000000000E+03  0.00000000000E+00 0. -1.
         11   -1    0    0    0    0 -0.00000000000E+00 -0.00000000000E+00 -0.50000000000E+03  0.50000000000E+03  0.00000000000E+00 0. -1.
        -11    1    1    2    0    0  0.30293519408E+02 -0.27184351294E+02  0.49739350148E+03  0.49905609062E+03  0.00000000000E+00 0. -1.
         11    1    1    2    0    0 -0.26477320195E+00  0.62820444837E+00 -0.24587084194E+02  0.24596533391E+02  0.00000000000E+00 0. -1.
        -15    1    1    2    0    0 -0.23757604177E+02  0.48201710501E+01 -0.38112844598E+03  0.38190274661E+03  0.17770000000E+01 0. -1.
         15    1    1    2    0    0 -0.62711420294E+01  0.21735975795E+02 -0.91677971303E+02  0.94444629372E+02  0.17770000000E+01 0.  1.
</event>
<event>
 6    1  0.6564965E-004  0.4872295E+03  0.7546771E-02  0.9428847E-01
        -11   -1    0    0    0    0  0.00000000000E+00  0.00000000000E+00  0.50000000000E+03  0.50000000000E+03  0.00000000000E+00 0.  1.
         11   -1    0    0    0    0 -0.00000000000E+00 -0.00000000000E+00 -0.50000000000E+03  0.50000000000E+03  0.00000000000E+00 0. -1.
        -11    1    1    2    0    0 -0.24706387691E+01 -0.24252731492E+02 -0.70764331948E+01  0.25384541507E+02  0.00000000000E+00 0.  1.
         11    1    1    2    0    0  0.32817530645E+01 -0.89940096077E+01 -0.48307228626E+03  0.48316715106E+03  0.00000000000E+00 0. -1.
        -15    1    1    2    0    0  0.48441600782E+00  0.49127450063E+01  0.15764950196E+03  0.15773678366E+03  0.17770000000E+01 0. -1.
         15    1    1    2    0    0 -0.12955303033E+01  0.28333996093E+02  0.33249921750E+03  0.33371152377E+03  0.17770000000E+01 0.  1.
</event>
<event>
 6    1  0.6564965E-004  0.5033569E+03  0.7546771E-02  0.9392330E-01
        -11   -1    0    0    0    0  0.00000000000E+00  0.00000000000E+00  0.50000000000E+03  0.50000000000E+03  0.00000000000E+00 0. -1.
         11   -1    0    0    0    0 -0.00000000000E+00 -0.00000000000E+00 -0.50000000000E+03  0.50000000000E+03  0.00000000000E+00 0.  1.
        -11    1    1    2    0    0  0.86894938497E+01 -0.19989635768E+02 -0.15972097372E+02  0.27022226702E+02  0.00000000000E+00 0. -1.
         11    1    1    2    0    0  0.15589009325E+02 -0.76496701930E+01 -0.47601802461E+03  0.47633464541E+03  0.00000000000E+00 0.  1.
        -15    1    1    2    0    0 -0.87277454721E+01  0.30997219319E+02  0.11851042425E+03  0.12282051755E+03  0.17770000000E+01 0.  1.
         15    1    1    2    0    0 -0.15550757703E+02 -0.33579133582E+01  0.37347969774E+03  0.37382261034E+03  0.17770000000E+01 0. -1.
</event>
<event>
 6    1  0.6564965E-004  0.5003775E+03  0.7546771E-02  0.9398965E-01
        -11   -1    0    0    0    0  0.00000000000E+00  0.00000000000E+00  0.50000000000E+03  0.50000000000E+03  0.00000000000E+00 0.  1.
         11   -1    0    0    0    0 -0.00000000000E+00 -0.00000000000E+00 -0.50000000000E+03  0.50000000000E+03  0.00000000000E+00 0. -1.
        -11    1    1    2    0    0 -0.34659257264E+01  0.79161147487E+01  0.41627656419E+03  0.41636625152E+03  0.00000000000E+00 0.  1.
         11    1    1    2    0    0  0.70250078423E+01 -0.40354891398E+01 -0.49955677321E+03  0.49962246303E+03  0.00000000000E+00 0. -1.
        -15    1    1    2    0    0 -0.57985209526E+00 -0.60541301407E+01  0.35925412799E+02  0.36479881222E+02  0.17770000000E+01 0.  1.
         15    1    1    2    0    0 -0.29792300207E+01  0.21735045317E+01  0.47354796223E+02  0.47531404227E+02  0.17770000000E+01 0. -1.
</event>
<event>
 6    1  0.6564965E-004  0.5003163E+03  0.7546771E-02  0.9399102E-01
        -11   -1    0    0    0    0  0.00000000000E+00  0.00000000000E+00  0.50000000000E+03  0.50000000000E+03  0.00000000000E+00 0.  1.
         11   -1    0    0    0    0 -0.00000000000E+00 -0.00000000000E+00 -0.50000000000E+03  0.50000000000E+03  0.00000000000E+00 0. -1.
        -11    1    1    2    0    0 -0.15594363050E+02 -0.29618976044E+01  0.49943148832E+03  0.49968366845E+03  0.00000000000E+00 0.  1.
         11    1    1    2    0    0  0.52960392564E+01 -0.13660992447E+01 -0.33735183745E+03  0.33739617142E+03  0.00000000000E+00 0. -1.
        -15    1    1    2    0    0  0.11152679927E+02  0.31451264202E+00 -0.90760210398E+02  0.91460673014E+02  0.17770000000E+01 0.  1.
         15    1    1    2    0    0 -0.85435613268E+00  0.40134842071E+01 -0.71319440473E+02  0.71459487112E+02  0.17770000000E+01 0. -1.
</event>
<event>
 6    1  0.6564965E-004  0.4891219E+03  0.7546771E-02  0.9424485E-01
        -11   -1    0    0    0    0  0.00000000000E+00  0.00000000000E+00  0.50000000000E+03  0.50000000000E+03  0.00000000000E+00 0.  1.
         11   -1    0    0    0    0 -0.00000000000E+00 -0.00000000000E+00 -0.50000000000E+03  0.50000000000E+03  0.00000000000E+00 0. -1.
        -11    1    1    2    0    0  0.91073025125E+01  0.91434214187E+01  0.48550345976E+03  0.48567494742E+03  0.00000000000E+00 0.  1.
         11    1    1    2    0    0  0.80010281038E+01 -0.96816219866E+00 -0.49271326850E+03  0.49277917848E+03  0.00000000000E+00 0. -1.
        -15    1    1    2    0    0 -0.31781065144E+01  0.21378452346E+00 -0.53462695752E-01  0.36478284087E+01  0.17770000000E+01 0.  1.
         15    1    1    2    0    0 -0.13930224102E+02 -0.83890437435E+01  0.72632714374E+01  0.17898045688E+02  0.17770000000E+01 0. -1.
</event>
<event>
 6    1  0.6564965E-004  0.5005804E+03  0.7546771E-02  0.9398512E-01
        -11   -1    0    0    0    0  0.00000000000E+00  0.00000000000E+00  0.50000000000E+03  0.50000000000E+03  0.00000000000E+00 0. -1.
         11   -1    0    0    0    0 -0.00000000000E+00 -0.00000000000E+00 -0.50000000000E+03  0.50000000000E+03  0.00000000000E+00 0.  1.
        -11    1    1    2    0    0  0.11204982301E+02  0.20023157835E+01  0.49928990278E+03  0.49941963108E+03  0.00000000000E+00 0. -1.
         11    1    1    2    0    0  0.27448691046E+01  0.41462705612E+01 -0.36306587821E+03  0.36309992810E+03  0.00000000000E+00 0.  1.
        -15    1    1    2    0    0 -0.96869095826E+00  0.12129371362E+01 -0.41925663779E+02  0.41992006275E+02  0.17770000000E+01 0.  1.
         15    1    1    2    0    0 -0.12981160447E+02 -0.73615234808E+01 -0.94298360789E+02  0.95488434541E+02  0.17770000000E+01 0.  1.
</event>
<event>
 6    1  0.6564965E-004  0.5045395E+03  0.7546771E-02  0.9389709E-01
        -11   -1    0    0    0    0  0.00000000000E+00  0.00000000000E+00  0.50000000000E+03  0.50000000000E+03  0.00000000000E+00 0.  1.
         11   -1    0    0    0    0 -0.00000000000E+00 -0.00000000000E+00 -0.50000000000E+03  0.50000000000E+03  0.00000000000E+00 0.  1.
        -11    1    1    2    0    0  0.11653922773E+02 -0.81715751817E+01  0.46622005317E+03  0.46643726966E+03  0.00000000000E+00 0.  1.
         11    1    1    2    0    0  0.79655540818E+01 -0.35559121787E+01 -0.49538366707E+03  0.49546046479E+03  0.00000000000E+00 0.  1.
        -15    1    1    2    0    0 -0.30964933954E+01  0.46656029457E+01  0.39085422594E+01  0.70562421861E+01  0.17770000000E+01 0.  1.
         15    1    1    2    0    0 -0.16522983460E+02  0.70618844147E+01  0.25255071646E+02  0.31046023365E+02  0.17770000000E+01 0. -1.
</event>
<event>
 6    1  0.6564965E-004  0.5017957E+03  0.7546771E-02  0.9395801E-01
        -11   -1    0    0    0    0  0.00000000000E+00  0.00000000000E+00  0.50000000000E+03  0.50000000000E+03  0.00000000000E+00 0. -1.
         11   -1    0    0    0    0 -0.00000000000E+00 -0.00000000000E+00 -0.50000000000E+03  0.50000000000E+03  0.00000000000E+00 0.  1.
        -11    1    1    2    0    0  0.44543255931E+02  0.20549384590E+02  0.49578332637E+03  0.49820426088E+03  0.00000000000E+00 0. -1.
         11    1    1    2    0    0 -0.23174111128E+01  0.87230655402E+01 -0.25998971040E+03  0.26014632763E+03  0.00000000000E+00 0.  1.
        -15    1    1    2    0    0 -0.31004301391E+02 -0.23804897305E+02 -0.15419186644E+03  0.15907931747E+03  0.17770000000E+01 0.  1.
         15    1    1    2    0    0 -0.11221543427E+02 -0.54675528251E+01 -0.81601749524E+02  0.82570094012E+02  0.17770000000E+01 0. -1.
</event>
<event>
 6    1  0.6564965E-004  0.4913907E+03  0.7546771E-02  0.9419282E-01
        -11   -1    0    0    0    0  0.00000000000E+00  0.00000000000E+00  0.50000000000E+03  0.50000000000E+03  0.00000000000E+00 0. -1.
         11   -1    0    0    0    0 -0.00000000000E+00 -0.00000000000E+00 -0.50000000000E+03  0.50000000000E+03  0.00000000000E+00 0. -1.
        -11    1    1    2    0    0 -0.42972992868E+01  0.71498511755E+01  0.49192855010E+03  0.49199927394E+03  0.00000000000E+00 0. -1.
         11    1    1    2    0    0 -0.79896130191E+01 -0.59693183465E+01 -0.49075910520E+03  0.49086043436E+03  0.00000000000E+00 0. -1.
        -15    1    1    2    0    0  0.52861840647E+01 -0.52885350964E+01  0.24644804573E+01  0.80711671000E+01  0.17770000000E+01 0. -1.
         15    1    1    2    0    0  0.70007282412E+01  0.41080022674E+01 -0.36339253547E+01  0.90691246005E+01  0.17770000000E+01 0.  1.
</event>
<event>
 6    1  0.6564965E-004  0.5000439E+03  0.7546771E-02  0.9399712E-01
        -11   -1    0    0    0    0  0.00000000000E+00  0.00000000000E+00  0.50000000000E+03  0.50000000000E+03  0.00000000000E+00 0.  1.
         11   -1    0    0    0    0 -0.00000000000E+00 -0.00000000000E+00 -0.50000000000E+03  0.50000000000E+03  0.00000000000E+00 0. -1.
        -11    1    1    2    0    0 -0.96014351828E+01 -0.10394353728E+02  0.49975583816E+03  0.49995612600E+03  0.00000000000E+00 0.  1.
         11    1    1    2    0    0 -0.71627280666E+00  0.11384961713E+01 -0.29288863768E+02  0.29319733305E+02  0.00000000000E+00 0. -1.
        -15    1    1    2    0    0  0.25628588946E+01 -0.66068905531E-01 -0.69586690938E+02  0.69656571086E+02  0.17770000000E+01 0.  1.
         15    1    1    2    0    0  0.77548490948E+01  0.93219264622E+01 -0.40088028346E+03  0.40106756961E+03  0.17770000000E+01 0. -1.
</event>
<event>
 6    1  0.6564965E-004  0.5115824E+03  0.7546771E-02  0.9374260E-01
        -11   -1    0    0    0    0  0.00000000000E+00  0.00000000000E+00  0.50000000000E+03  0.50000000000E+03  0.00000000000E+00 0. -1.
         11   -1    0    0    0    0 -0.00000000000E+00 -0.00000000000E+00 -0.50000000000E+03  0.50000000000E+03  0.00000000000E+00 0.  1.
        -11    1    1    2    0    0 -0.30571247016E+02 -0.29740457675E+02  0.31405607401E+02  0.52966103717E+02  0.00000000000E+00 0. -1.
         11    1    1    2    0    0  0.66006751679E+01  0.33982323115E+00 -0.48837286153E+03  0.48841758391E+03  0.00000000000E+00 0.  1.
        -15    1    1    2    0    0  0.50556291544E+01  0.55774469900E+01  0.13093354417E+03  0.13116180091E+03  0.17770000000E+01 0.  1.
         15    1    1    2    0    0  0.18914942693E+02  0.23823187453E+02  0.32603370996E+03  0.32745451146E+03  0.17770000000E+01 0. -1.
</event>
<event>
 6    1  0.6564965E-004  0.5005153E+03  0.7546771E-02  0.9398657E-01
        -11   -1    0    0    0    0  0.00000000000E+00  0.00000000000E+00  0.50000000000E+03  0.50000000000E+03  0.00000000000E+00 0.  1.
         11   -1    0    0    0    0 -0.00000000000E+00 -0.00000000000E+00 -0.50000000000E+03  0.50000000000E+03  0.00000000000E+00 0. -1.
        -11    1    1    2    0    0  0.98888877413E+00 -0.21475208342E+02  0.49902180765E+03  0.49948466141E+03  0.00000000000E+00 0.  1.
         11    1    1    2    0    0 -0.10455490850E+01 -0.38867853085E+01 -0.24432544748E+03  0.24435859829E+03  0.00000000000E+00 0. -1.
        -15    1    1    2    0    0 -0.14866605664E+01  0.58600655877E+00 -0.18847407143E+02  0.18998316987E+02  0.17770000000E+01 0.  1.
         15    1    1    2    0    0  0.15433208773E+01  0.24775987092E+02 -0.23584895303E+03  0.23715842332E+03  0.17770000000E+01 0.  1.
</event>
<event>
 6    1  0.6564965E-004  0.5005137E+03  0.7546771E-02  0.9398661E-01
        -11   -1    0    0    0    0  0.00000000000E+00  0.00000000000E+00  0.50000000000E+03  0.50000000000E+03  0.00000000000E+00 0. -1.
         11   -1    0    0    0    0 -0.00000000000E+00 -0.00000000000E+00 -0.50000000000E+03  0.50000000000E+03  0.00000000000E+00 0. -1.
        -11    1    1    2    0    0 -0.49447879720E+01 -0.11597620654E+02  0.49932713773E+03  0.49948628230E+03  0.00000000000E+00 0. -1.
         11    1    1    2    0    0 -0.25612548748E+01  0.68553717072E+01 -0.40274067077E+03  0.40280715490E+03  0.00000000000E+00 0. -1.
        -15    1    1    2    0    0  0.45233045095E+01 -0.14011004624E+01 -0.15298656607E+02  0.16113037862E+02  0.17770000000E+01 0.  1.
         15    1    1    2    0    0  0.29827383373E+01  0.61433494095E+01 -0.81287810357E+02  0.81593524936E+02  0.17770000000E+01 0. -1.
</event>
<event>
 6    1  0.6564965E-004  0.4889608E+03  0.7546771E-02  0.9424855E-01
        -11   -1    0    0    0    0  0.00000000000E+00  0.00000000000E+00  0.50000000000E+03  0.50000000000E+03  0.00000000000E+00 0. -1.
         11   -1    0    0    0    0 -0.00000000000E+00 -0.00000000000E+00 -0.50000000000E+03  0.50000000000E+03  0.00000000000E+00 0.  1.
        -11    1    1    2    0    0 -0.10769477916E+02  0.65515857196E+01  0.48956863745E+03  0.48973090132E+03  0.00000000000E+00 0. -1.
         11    1    1    2    0    0  0.82941656697E+01  0.63582317193E+01 -0.48816811097E+03  0.48827996566E+03  0.00000000000E+00 0.  1.
        -15    1    1    2    0    0  0.52558665940E+01 -0.82777777995E+01  0.67604890362E+01  0.12041913468E+02  0.17770000000E+01 0.  1.
         15    1    1    2    0    0 -0.27805543475E+01 -0.46320396394E+01 -0.81610155125E+01  0.99472195560E+01  0.17770000000E+01 0. -1.
</event>
<event>
 6    1  0.1134225E-003  0.4948997E+03  0.7546771E-02  0.9411295E-01
        -11   -1    0    0    0    0  0.00000000000E+00  0.00000000000E+00  0.50000000000E+03  0.50000000000E+03  0.00000000000E+00 0. -1.
         11   -1    0    0    0    0 -0.00000000000E+00 -0.00000000000E+00 -0.50000000000E+03  0.50000000000E+03  0.00000000000E+00 0. -1.
        -11    1    1    2    0    0 -0.68019300921E+02  0.54514988319E+02  0.48357334430E+03  0.49136716268E+03  0.00000000000E+00 0. -1.
         11    1    1    2    0    0 -0.45523581972E+00 -0.52598510219E+00 -0.26211345629E+02  0.26220574740E+02  0.00000000000E+00 0. -1.
        -15    1    1    2    0    0  0.63703082525E+00  0.14724578566E+02 -0.28056943672E+03  0.28096189346E+03  0.17770000000E+01 0. -1.
         15    1    1    2    0    0  0.67837505916E+02 -0.68713581783E+02 -0.17679256195E+03  0.20145036912E+03  0.17770000000E+01 0.  1.
</event>
<event>
 6    1  0.6564965E-004  0.5038539E+03  0.7546771E-02  0.9391227E-01
        -11   -1    0    0    0    0  0.00000000000E+00  0.00000000000E+00  0.50000000000E+03  0.50000000000E+03  0.00000000000E+00 0. -1.
         11   -1    0    0    0    0 -0.00000000000E+00 -0.00000000000E+00 -0.50000000000E+03  0.50000000000E+03  0.00000000000E+00 0. -1.
        -11    1    1    2    0    0 -0.94378334180E+01  0.59198148510E+01  0.47359945458E+03  0.47373047219E+03  0.00000000000E+00 0. -1.
         11    1    1    2    0    0  0.55929485629E+01 -0.54139547174E+01 -0.49608507176E+03  0.49614613815E+03  0.00000000000E+00 0. -1.
        -15    1    1    2    0    0 -0.58871790655E+01  0.52109710380E+01  0.12889563373E+02  0.15202357365E+02  0.17770000000E+01 0.  1.
         15    1    1    2    0    0  0.97320639206E+01 -0.57168311717E+01  0.95960538127E+01  0.14921032289E+02  0.17770000000E+01 0. -1.
</event>
<event>
 6    1  0.6564965E-004  0.5007509E+03  0.7546771E-02  0.9398131E-01
        -11   -1    0    0    0    0  0.00000000000E+00  0.00000000000E+00  0.50000000000E+03  0.50000000000E+03  0.00000000000E+00 0.  1.
         11   -1    0    0    0    0 -0.00000000000E+00 -0.00000000000E+00 -0.50000000000E+03  0.50000000000E+03  0.00000000000E+00 0.  1.
        -11    1    1    2    0    0 -0.80245127535E+01 -0.21094987798E+01  0.49918019849E+03  0.49924914957E+03  0.00000000000E+00 0.  1.
         11    1    1    2    0    0 -0.12389327197E+01  0.67949749542E+01 -0.44590287825E+03  0.44595636947E+03  0.00000000000E+00 0.  1.
        -15    1    1    2    0    0  0.55180566056E+01  0.73479237917E+00 -0.28612288436E+02  0.29202904772E+02  0.17770000000E+01 0. -1.
         15    1    1    2    0    0  0.37453888675E+01 -0.54202685536E+01 -0.24665031798E+02  0.25591576184E+02  0.17770000000E+01 0.  1.
</event>
<event>
 6    1  0.6564965E-004  0.5009864E+03  0.7546771E-02  0.9397605E-01
        -11   -1    0    0    0    0  0.00000000000E+00  0.00000000000E+00  0.50000000000E+03  0.50000000000E+03  0.00000000000E+00 0.  1.
         11   -1    0    0    0    0 -0.00000000000E+00 -0.00000000000E+00 -0.50000000000E+03  0.50000000000E+03  0.00000000000E+00 0.  1.
        -11    1    1    2    0    0 -0.24622972035E+01 -0.17129062996E+02  0.49871340125E+03  0.49901355121E+03  0.00000000000E+00 0.  1.
         11    1    1    2    0    0 -0.41599036980E+01  0.85212052480E+01 -0.43834123498E+03  0.43844378661E+03  0.00000000000E+00 0.  1.
        -15    1    1    2    0    0  0.94802659640E+00 -0.78110927087E+00 -0.14980795259E+01  0.26288509631E+01  0.17770000000E+01 0. -1.
         15    1    1    2    0    0  0.56741743051E+01  0.93889670184E+01 -0.58874086742E+02  0.59913811216E+02  0.17770000000E+01 0.  1.
</event>
<event>
 6    1  0.6564965E-004  0.5016541E+03  0.7546771E-02  0.9396116E-01
        -11   -1    0    0    0    0  0.00000000000E+00  0.00000000000E+00  0.50000000000E+03  0.50000000000E+03  0.00000000000E+00 0.  1.
         11   -1    0    0    0    0 -0.00000000000E+00 -0.00000000000E+00 -0.50000000000E+03  0.50000000000E+03  0.00000000000E+00 0. -1.
        -11    1    1    2    0    0 -0.64921376846E+01  0.28399964833E+02  0.12024693265E+03  0.12372562656E+03  0.00000000000E+00 0.  1.
         11    1    1    2    0    0  0.23469170503E+02 -0.15880611646E+02 -0.49753959214E+03  0.49834590551E+03  0.00000000000E+00 0. -1.
        -15    1    1    2    0    0 -0.50496250871E+01 -0.58074579676E+01  0.11298204888E+03  0.11325778728E+03  0.17770000000E+01 0. -1.
         15    1    1    2    0    0 -0.11927407731E+02 -0.67118952197E+01  0.26431061060E+03  0.26467068066E+03  0.17770000000E+01 0. -1.
</event>
<event>
 6    1  0.6564965E-004  0.5131282E+03  0.7546771E-02  0.9370904E-01
        -11   -1    0    0    0    0  0.00000000000E+00  0.00000000000E+00  0.50000000000E+03  0.50000000000E+03  0.00000000000E+00 0.  1.
         11   -1    0    0    0    0 -0.00000000000E+00 -0.00000000000E+00 -0.50000000000E+03  0.50000000000E+03  0.00000000000E+00 0. -1.
        -11    1    1    2    0    0  0.71479737170E+01 -0.58733992202E+02  0.23007718486E+03  0.23756322603E+03  0.00000000000E+00 0.  1.
         11    1    1    2    0    0 -0.58371441056E+02 -0.34970849269E+02 -0.48209328039E+03  0.48687176590E+03  0.00000000000E+00 0. -1.
        -15    1    1    2    0    0 -0.37123294545E+01  0.41066859982E+01  0.81651955570E+01  0.10023692301E+02  0.17770000000E+01 0.  1.
         15    1    1    2    0    0  0.54935796794E+02  0.89598155473E+02  0.24385089998E+03  0.26554131577E+03  0.17770000000E+01 0. -1.
</event>
<event>
 6    1  0.6564965E-004  0.5028899E+03  0.7546771E-02  0.9393366E-01
        -11   -1    0    0    0    0  0.00000000000E+00  0.00000000000E+00  0.50000000000E+03  0.50000000000E+03  0.00000000000E+00 0.  1.
         11   -1    0    0    0    0 -0.00000000000E+00 -0.00000000000E+00 -0.50000000000E+03  0.50000000000E+03  0.00000000000E+00 0.  1.
        -11    1    1    2    0    0  0.68166710494E+01  0.14187106317E+01  0.49706131307E+03  0.49711007704E+03  0.00000000000E+00 0.  1.
         11    1    1    2    0    0  0.11021185035E+01 -0.12385090983E+02 -0.47226767915E+03  0.47243133460E+03  0.00000000000E+00 0.  1.
        -15    1    1    2    0    0 -0.23091757942E+01  0.88531428954E+01 -0.71711151820E+01  0.11759806713E+02  0.17770000000E+01 0. -1.
         15    1    1    2    0    0 -0.56096137588E+01  0.21132374560E+01 -0.17622518742E+02  0.18698781642E+02  0.17770000000E+01 0.  1.
</event>
<event>
 6    1  0.6564965E-004  0.5026419E+03  0.7546771E-02  0.9393917E-01
        -11   -1    0    0    0    0  0.00000000000E+00  0.00000000000E+00  0.50000000000E+03  0.50000000000E+03  0.00000000000E+00 0.  1.
         11   -1    0    0    0    0 -0.00000000000E+00 -0.00000000000E+00 -0.50000000000E+03  0.50000000000E+03  0.00000000000E+00 0. -1.
        -11    1    1    2    0    0 -0.44525309735E+01  0.52601142865E+01  0.49731030900E+03  0.49735805741E+03  0.00000000000E+00 0.  1.
         11    1    1    2    0    0  0.66645560535E+01 -0.39873937010E+01 -0.49435270837E+03  0.49441370924E+03  0.00000000000E+00 0. -1.
        -15    1    1    2    0    0 -0.32938292626E+01  0.54824268516E+00 -0.37761869423E+01  0.53448290970E+01  0.17770000000E+01 0. -1.
         15    1    1    2    0    0  0.10818041826E+01 -0.18209632707E+01  0.81858630820E+00  0.28834042496E+01  0.17770000000E+01 0.  1.
</event>
<event>
 6    1  0.6564965E-004  0.5007781E+03  0.7546771E-02  0.9398070E-01
        -11   -1    0    0    0    0  0.00000000000E+00  0.00000000000E+00  0.50000000000E+03  0.50000000000E+03  0.00000000000E+00 0.  1.
         11   -1    0    0    0    0 -0.00000000000E+00 -0.00000000000E+00 -0.50000000000E+03  0.50000000000E+03  0.00000000000E+00 0.  1.
        -11    1    1    2    0    0  0.21249319454E+02  0.68762560697E+01  0.49872207692E+03  0.49922192108E+03  0.00000000000E+00 0.  1.
         11    1    1    2    0    0  0.33008811219E+01 -0.75085521375E+01 -0.23668615410E+03  0.23682822828E+03  0.00000000000E+00 0.  1.
        -15    1    1    2    0    0 -0.24519135081E+01 -0.45209209242E+01 -0.11811563073E+03  0.11824090052E+03  0.17770000000E+01 0. -1.
         15    1    1    2    0    0 -0.22098287068E+02  0.51532169921E+01 -0.14392029210E+03  0.14570895012E+03  0.17770000000E+01 0.  1.
</event>
<event>
 6    1  0.6564965E-004  0.5060038E+03  0.7546771E-02  0.9386475E-01
        -11   -1    0    0    0    0  0.00000000000E+00  0.00000000000E+00  0.50000000000E+03  0.50000000000E+03  0.00000000000E+00 0. -1.
         11   -1    0    0    0    0 -0.00000000000E+00 -0.00000000000E+00 -0.50000000000E+03  0.50000000000E+03  0.00000000000E+00 0.  1.
        -11    1    1    2    0    0  0.18860422038E+01 -0.10219101319E+02  0.49388692993E+03  0.49399624163E+03  0.00000000000E+00 0. -1.
         11    1    1    2    0    0 -0.12433388805E+02 -0.67701202485E+01 -0.48157782136E+03  0.48178586707E+03  0.00000000000E+00 0.  1.
        -15    1    1    2    0    0  0.66651263853E+01  0.14110928902E+02 -0.93498474888E+01  0.18278938735E+02  0.17770000000E+01 0. -1.
         15    1    1    2    0    0  0.38822202158E+01  0.28782926651E+01 -0.29592610793E+01  0.59389525680E+01  0.17770000000E+01 0.  1.
</event>
<event>
 6    1  0.6564965E-004  0.5003608E+03  0.7546771E-02  0.9399003E-01
        -11   -1    0    0    0    0  0.00000000000E+00  0.00000000000E+00  0.50000000000E+03  0.50000000000E+03  0.00000000000E+00 0. -1.
         11   -1    0    0    0    0 -0.00000000000E+00 -0.00000000000E+00 -0.50000000000E+03  0.50000000000E+03  0.00000000000E+00 0. -1.
        -11    1    1    2    0    0  0.67995263072E+01 -0.96225911784E+01  0.49950030149E+03  0.49963924887E+03  0.00000000000E+00 0. -1.
         11    1    1    2    0    0  0.32865316305E+01 -0.37843730347E+01 -0.17303478884E+03  0.17310736818E+03  0.00000000000E+00 0. -1.
        -15    1    1    2    0    0  0.13689889894E+01  0.13698549868E-02 -0.83953278288E+01  0.86898441346E+01  0.17770000000E+01 0. -1.
         15    1    1    2    0    0 -0.11455046927E+02  0.13405594358E+02 -0.31807018483E+03  0.31856353882E+03  0.17770000000E+01 0. -1.
</event>
<event>
 6    1  0.6564965E-004  0.5008266E+03  0.7546771E-02  0.9397962E-01
        -11   -1    0    0    0    0  0.00000000000E+00  0.00000000000E+00  0.50000000000E+03  0.50000000000E+03  0.00000000000E+00 0.  1.
         11   -1    0    0    0    0 -0.00000000000E+00 -0.00000000000E+00 -0.50000000000E+03  0.50000000000E+03  0.00000000000E+00 0. -1.
        -11    1    1    2    0    0 -0.66671513526E+01  0.56395818971E+01  0.24615847866E+02  0.26118877413E+02  0.00000000000E+00 0.  1.
         11    1    1    2    0    0  0.14754103291E+02  0.10579106080E+02 -0.49884310166E+03  0.49917335779E+03  0.00000000000E+00 0. -1.
        -15    1    1    2    0    0 -0.66212581766E+00  0.10039401433E+01  0.82345883810E+02  0.82373834534E+02  0.17770000000E+01 0.  1.
         15    1    1    2    0    0 -0.74248261207E+01 -0.17222628121E+02  0.39188136999E+03  0.39233393026E+03  0.17770000000E+01 0.  1.
</event>
<event>
 6    1  0.6564965E-004  0.5002182E+03  0.7546771E-02  0.9399322E-01
        -11   -1    0    0    0    0  0.00000000000E+00  0.00000000000E+00  0.50000000000E+03  0.50000000000E+03  0.00000000000E+00 0.  1.
         11   -1    0    0    0    0 -0.00000000000E+00 -0.00000000000E+00 -0.50000000000E+03  0.50000000000E+03  0.00000000000E+00 0. -1.
        -11    1    1    2    0    0  0.23727482935E+01 -0.10633584337E+02  0.49966305290E+03  0.49978182188E+03  0.00000000000E+00 0.  1.
         11    1    1    2    0    0  0.54029402297E+01  0.92728138375E-01 -0.26751222745E+03  0.26756679951E+03  0.00000000000E+00 0. -1.
        -15    1    1    2    0    0 -0.21931889884E+01 -0.25820189545E+00 -0.56799096879E+02  0.56869780037E+02  0.17770000000E+01 0.  1.
         15    1    1    2    0    0 -0.55824995347E+01  0.10799058094E+02 -0.17535172857E+03  0.17578159857E+03  0.17770000000E+01 0. -1.
</event>
<event>
 6    1  0.6564965E-004  0.5031341E+03  0.7546771E-02  0.9392824E-01
        -11   -1    0    0    0    0  0.00000000000E+00  0.00000000000E+00  0.50000000000E+03  0.50000000000E+03  0.00000000000E+00 0. -1.
         11   -1    0    0    0    0 -0.00000000000E+00 -0.00000000000E+00 -0.50000000000E+03  0.50000000000E+03  0.00000000000E+00 0. -1.
        -11    1    1    2    0    0 -0.42058407378E+00 -0.14749828918E+02  0.45671816598E+03  0.45695647220E+03  0.00000000000E+00 0. -1.
         11    1    1    2    0    0  0.11536103931E+02 -0.40864286031E+01 -0.49671517722E+03  0.49686592545E+03  0.00000000000E+00 0. -1.
        -15    1    1    2    0    0 -0.78422465949E+01  0.14085039645E+02  0.33989576243E+02  0.37660831053E+02  0.17770000000E+01 0. -1.
         15    1    1    2    0    0 -0.32732732627E+01  0.47512178759E+01  0.60074349954E+01  0.85167713002E+01  0.17770000000E+01 0.  1.
</event>
<event>
 6    1  0.6564965E-004  0.5010676E+03  0.7546771E-02  0.9397424E-01
        -11   -1    0    0    0    0  0.00000000000E+00  0.00000000000E+00  0.50000000000E+03  0.50000000000E+03  0.00000000000E+00 0. -1.
         11   -1    0    0    0    0 -0.00000000000E+00 -0.00000000000E+00 -0.50000000000E+03  0.50000000000E+03  0.00000000000E+00 0.  1.
        -11    1    1    2    0    0  0.94944358048E+01 -0.93661976364E+01  0.32458419381E+03  0.32485807492E+03  0.00000000000E+00 0. -1.
         11    1    1    2    0    0 -0.58721400091E+01 -0.48671898531E+01 -0.49887414615E+03  0.49893244559E+03  0.00000000000E+00 0.  1.
        -15    1    1    2    0    0 -0.54357812978E+01  0.87021506829E+01  0.29362325411E+02  0.31154117342E+02  0.17770000000E+01 0.  1.
         15    1    1    2    0    0  0.18134855021E+01  0.55312368066E+01  0.14492762693E+03  0.14505536215E+03  0.17770000000E+01 0. -1.
</event>
<event>
 6    1  0.6564965E-004  0.5025507E+03  0.7546771E-02  0.9394120E-01
        -11   -1    0    0    0    0  0.00000000000E+00  0.00000000000E+00  0.50000000000E+03  0.50000000000E+03  0.00000000000E+00 0. -1.
         11   -1    0    0    0    0 -0.00000000000E+00 -0.00000000000E+00 -0.50000000000E+03  0.50000000000E+03  0.00000000000E+00 0.  1.
        -11    1    1    2    0    0  0.82775584938E+01  0.12411217113E+02  0.44120276797E+03  0.44145491135E+03  0.00000000000E+00 0. -1.
         11    1    1    2    0    0  0.10391556016E+02  0.16689710575E+01 -0.49733794419E+03  0.49744929454E+03  0.00000000000E+00 0.  1.
        -15    1    1    2    0    0 -0.14342932638E+02 -0.12272840982E+02  0.46892677665E+02  0.50580858930E+02  0.17770000000E+01 0. -1.
         15    1    1    2    0    0 -0.43261818723E+01 -0.18073471882E+01  0.92424985564E+01  0.10514935188E+02  0.17770000000E+01 0.  1.
</event>
<event>
 6    1  0.6564965E-004  0.5005619E+03  0.7546771E-02  0.9398553E-01
        -11   -1    0    0    0    0  0.00000000000E+00  0.00000000000E+00  0.50000000000E+03  0.50000000000E+03  0.00000000000E+00 0.  1.
         11   -1    0    0    0    0 -0.00000000000E+00 -0.00000000000E+00 -0.50000000000E+03  0.50000000000E+03  0.00000000000E+00 0. -1.
        -11    1    1    2    0    0  0.11953976888E+02 -0.19425910031E+02  0.49891695870E+03  0.49943807947E+03  0.00000000000E+00 0.  1.
         11    1    1    2    0    0 -0.42448282323E+00  0.47112748682E+01 -0.31178087610E+03  0.31181675869E+03  0.00000000000E+00 0. -1.
        -15    1    1    2    0    0 -0.67927903504E+01 -0.57864215926E+00 -0.31528922865E+02  0.32306462720E+02  0.17770000000E+01 0.  1.
         15    1    1    2    0    0 -0.47367037139E+01  0.15293277322E+02 -0.15560715974E+03  0.15643869912E+03  0.17770000000E+01 0. -1.
</event>
<event>
 6    1  0.6564965E-004  0.5012754E+03  0.7546771E-02  0.9396960E-01
        -11   -1    0    0    0    0  0.00000000000E+00  0.00000000000E+00  0.50000000000E+03  0.50000000000E+03  0.00000000000E+00 0.  1.
         11   -1    0    0    0    0 -0.00000000000E+00 -0.00000000000E+00 -0.50000000000E+03  0.50000000000E+03  0.00000000000E+00 0.  1.
        -11    1    1    2    0    0  0.24011561438E+01  0.11953752977E+02  0.49857553282E+03  0.49872459302E+03  0.00000000000E+00 0.  1.
         11    1    1    2    0    0 -0.61893326066E+01 -0.23304015400E+01 -0.45177955886E+03  0.45182796329E+03  0.00000000000E+00 0.  1.
        -15    1    1    2    0    0  0.47034904628E+01 -0.31946713434E+01 -0.37497159732E+02  0.37967400023E+02  0.17770000000E+01 0. -1.
         15    1    1    2    0    0 -0.91531400004E+00 -0.64286800938E+01 -0.92988142272E+01  0.11480043663E+02  0.17770000000E+01 0.  1.
</event>
<event>
 6    1  0.6564965E-004  0.5055200E+03  0.7546771E-02  0.9387542E-01
        -11   -1    0    0    0    0  0.00000000000E+00  0.00000000000E+00  0.50000000000E+03  0.50000000000E+03  0.00000000000E+00 0.  1.
         11   -1    0    0    0    0 -0.00000000000E+00 -0.00000000000E+00 -0.50000000000E+03  0.50000000000E+03  0.00000000000E+00 0.  1.
        -11    1    1    2    0    0 -0.89504469562E+01 -0.74214909378E+01  0.47467457706E+03  0.47481695751E+03  0.00000000000E+00 0.  1.
         11    1    1    2    0    0 -0.39813907339E+01 -0.97084520505E+01 -0.49436863476E+03  0.49447998195E+03  0.00000000000E+00 0.  1.
        -15    1    1    2    0    0  0.77049227713E+01  0.14989792153E+02  0.17572752722E+02  0.24413501816E+02  0.17770000000E+01 0.  1.
         15    1    1    2    0    0  0.52269149188E+01  0.21401508354E+01  0.21213049769E+01  0.62895587263E+01  0.17770000000E+01 0.  1.
</event>
<event>
 6    1  0.6564965E-004  0.5038668E+03  0.7546771E-02  0.9391199E-01
        -11   -1    0    0    0    0  0.00000000000E+00  0.00000000000E+00  0.50000000000E+03  0.50000000000E+03  0.00000000000E+00 0. -1.
         11   -1    0    0    0    0 -0.00000000000E+00 -0.00000000000E+00 -0.50000000000E+03  0.50000000000E+03  0.00000000000E+00 0.  1.
        -11    1    1    2    0    0 -0.13084936310E+02  0.74408888328E+02  0.18244928172E+03  0.19747313392E+03  0.00000000000E+00 0. -1.
         11    1    1    2    0    0  0.10303271721E+02 -0.86485609429E+02 -0.48842837421E+03  0.49613324297E+03  0.00000000000E+00 0.  1.
        -15    1    1    2    0    0  0.13769943798E+00  0.79953032509E+01  0.25910566837E+03  0.25923512290E+03  0.17770000000E+01 0. -1.
         15    1    1    2    0    0  0.26439651512E+01  0.40814178506E+01  0.46873424124E+02  0.47158500205E+02  0.17770000000E+01 0. -1.
</event>
<event>
 6    1  0.6564965E-004  0.5001329E+03  0.7546771E-02  0.9399512E-01
        -11   -1    0    0    0    0  0.00000000000E+00  0.00000000000E+00  0.50000000000E+03  0.50000000000E+03  0.00000000000E+00 0. -1.
         11   -1    0    0    0    0 -0.00000000000E+00 -0.00000000000E+00 -0.50000000000E+03  0.50000000000E+03  0.00000000000E+00 0. -1.
        -11    1    1    2    0    0 -0.10796451954E+02  0.44167710556E+01  0.27823257811E+03  0.27847699863E+03  0.00000000000E+00 0. -1.
         11    1    1    2    0    0  0.10319457001E+02 -0.39624836450E+00 -0.49976041538E+03  0.49986710332E+03  0.00000000000E+00 0. -1.
        -15    1    1    2    0    0 -0.18150076423E+01 -0.35314994786E+01  0.15820516775E+03  0.15826496319E+03  0.17770000000E+01 0. -1.
         15    1    1    2    0    0  0.22920025956E+01 -0.48902321250E+00  0.63322669515E+02  0.63390934866E+02  0.17770000000E+01 0.  1.
</event>
<event>
 6    1  0.6564965E-004  0.5006580E+03  0.7546771E-02  0.9398339E-01
        -11   -1    0    0    0    0  0.00000000000E+00  0.00000000000E+00  0.50000000000E+03  0.50000000000E+03  0.00000000000E+00 0.  1.
         11   -1    0    0    0    0 -0.00000000000E+00 -0.00000000000E+00 -0.50000000000E+03  0.50000000000E+03  0.00000000000E+00 0.  1.
        -11    1    1    2    0    0  0.10133615253E+01  0.18943750583E+02  0.25660871255E+03  0.25730900479E+03  0.00000000000E+00 0.  1.
         11    1    1    2    0    0 -0.99204041017E+01 -0.83802654790E+01 -0.49917311401E+03  0.49934200806E+03  0.00000000000E+00 0.  1.
        -15    1    1    2    0    0  0.21988989731E+01 -0.19871402098E+01  0.16154039927E+03  0.16157735673E+03  0.17770000000E+01 0. -1.
         15    1    1    2    0    0  0.67081436033E+01 -0.85763448947E+01  0.81024002187E+02  0.81771630421E+02  0.17770000000E+01 0.  1.
</event>
<event>
 6    1  0.6564965E-004  0.5003712E+03  0.7546771E-02  0.9398979E-01
        -11   -1    0    0    0    0  0.00000000000E+00  0.00000000000E+00  0.50000000000E+03  0.50000000000E+03  0.00000000000E+00 0. -1.
         11   -1    0    0    0    0 -0.00000000000E+00 -0.00000000000E+00 -0.50000000000E+03  0.50000000000E+03  0.00000000000E+00 0. -1.
        -11    1    1    2    0    0 -0.67314189235E+01 -0.79436695269E+00  0.49958278644E+03  0.49962876571E+03  0.00000000000E+00 0. -1.
         11    1    1    2    0    0  0.67319302611E+01  0.27961304651E+01 -0.46989904232E+03  0.46995558003E+03  0.00000000000E+00 0. -1.
        -15    1    1    2    0    0 -0.24989848865E+01 -0.15715113955E+01 -0.13110899958E+02  0.13556105644E+02  0.17770000000E+01 0.  1.
         15    1    1    2    0    0  0.24984735489E+01 -0.43025211688E+00 -0.16572844164E+02  0.16859548619E+02  0.17770000000E+01 0. -1.
</event>
<event>
 6    1  0.6564965E-004  0.5015630E+03  0.7546771E-02  0.9396319E-01
        -11   -1    0    0    0    0  0.00000000000E+00  0.00000000000E+00  0.50000000000E+03  0.50000000000E+03  0.00000000000E+00 0.  1.
         11   -1    0    0    0    0 -0.00000000000E+00 -0.00000000000E+00 -0.50000000000E+03  0.50000000000E+03  0.00000000000E+00 0.  1.
        -11    1    1    2    0    0  0.10978883586E+02  0.77976103525E+00  0.47075533794E+03  0.47088399008E+03  0.00000000000E+00 0.  1.
         11    1    1    2    0    0 -0.58370790051E+01  0.68287621787E+01 -0.49835606155E+03  0.49843702467E+03  0.00000000000E+00 0.  1.
        -15    1    1    2    0    0  0.24804296420E+01 -0.18871564030E+01  0.58026069927E+01  0.68221600253E+01  0.17770000000E+01 0.  1.
         15    1    1    2    0    0 -0.76222342228E+01 -0.57213668109E+01  0.21798116618E+02  0.23856825225E+02  0.17770000000E+01 0. -1.
</event>
<event>
 6    1  0.6564965E-004  0.5032780E+03  0.7546771E-02  0.9392505E-01
        -11   -1    0    0    0    0  0.00000000000E+00  0.00000000000E+00  0.50000000000E+03  0.50000000000E+03  0.00000000000E+00 0.  1.
         11   -1    0    0    0    0 -0.00000000000E+00 -0.00000000000E+00 -0.50000000000E+03  0.50000000000E+03  0.00000000000E+00 0. -1.
        -11    1    1    2    0    0 -0.13987937189E+02  0.14051489229E+02  0.49632616791E+03  0.49672202658E+03  0.00000000000E+00 0.  1.
         11    1    1    2    0    0 -0.65938391814E+01  0.98619988642E+01 -0.41971788100E+03  0.41988550507E+03  0.00000000000E+00 0. -1.
        -15    1    1    2    0    0  0.29763704258E+01 -0.64613727469E+01 -0.25949072091E+02  0.26965166235E+02  0.17770000000E+01 0. -1.
         15    1    1    2    0    0  0.17605405944E+02 -0.17452115346E+02 -0.50659214820E+02  0.56427302113E+02  0.17770000000E+01 0.  1.
</event>
<event>
 6    1  0.6564965E-004  0.5118335E+03  0.7546771E-02  0.9373714E-01
        -11   -1    0    0    0    0  0.00000000000E+00  0.00000000000E+00  0.50000000000E+03  0.50000000000E+03  0.00000000000E+00 0.  1.
         11   -1    0    0    0    0 -0.00000000000E+00 -0.00000000000E+00 -0.50000000000E+03  0.50000000000E+03  0.00000000000E+00 0.  1.
        -11    1    1    2    0    0  0.25552319595E+02  0.30119384430E+02  0.42865910278E+03  0.43047499898E+03  0.00000000000E+00 0.  1.
         11    1    1    2    0    0 -0.26784449837E+02 -0.86419847546E+01 -0.48735457566E+03  0.48816654235E+03  0.00000000000E+00 0.  1.
        -15    1    1    2    0    0  0.61124625430E+01  0.35604260339E+01 -0.74600061498E+01  0.10433036597E+02  0.17770000000E+01 0. -1.
         15    1    1    2    0    0 -0.48803323016E+01 -0.25037825709E+02  0.66155479037E+02  0.70925422066E+02  0.17770000000E+01 0.  1.
</event>
<event>
 6    1  0.6564965E-004  0.5068710E+03  0.7546771E-02  0.9384565E-01
        -11   -1    0    0    0    0  0.00000000000E+00  0.00000000000E+00  0.50000000000E+03  0.50000000000E+03  0.00000000000E+00 0. -1.
         11   -1    0    0    0    0 -0.00000000000E+00 -0.00000000000E+00 -0.50000000000E+03  0.50000000000E+03  0.00000000000E+00 0. -1.
        -11    1    1    2    0    0 -0.97586512653E+01 -0.34451433892E+01  0.49302039728E+03  0.49312900180E+03  0.00000000000E+00 0. -1.
         11    1    1    2    0    0 -0.82887265413E+01  0.17914623023E+01 -0.48038951202E+03  0.48046435412E+03  0.00000000000E+00 0. -1.
        -15    1    1    2    0    0  0.15911222628E+01  0.43990031161E+00 -0.91278572218E+01  0.94446116278E+01  0.17770000000E+01 0. -1.
         15    1    1    2    0    0  0.16456255544E+02  0.12137807753E+01 -0.35030280413E+01  0.16962032448E+02  0.17770000000E+01 0.  1.
</event>
<event>
 6    1  0.6564965E-004  0.5001715E+03  0.7546771E-02  0.9399426E-01
        -11   -1    0    0    0    0  0.00000000000E+00  0.00000000000E+00  0.50000000000E+03  0.50000000000E+03  0.00000000000E+00 0.  1.
         11   -1    0    0    0    0 -0.00000000000E+00 -0.00000000000E+00 -0.50000000000E+03  0.50000000000E+03  0.00000000000E+00 0.  1.
        -11    1    1    2    0    0 -0.10191014113E+02 -0.12341163519E+01  0.12275224629E+03  0.12318073624E+03  0.00000000000E+00 0.  1.
         11    1    1    2    0    0  0.18009576540E+02 -0.32266445331E+01 -0.49949355601E+03  0.49982853918E+03  0.00000000000E+00 0.  1.
        -15    1    1    2    0    0  0.44047312171E+00  0.43912400932E+01  0.90713211261E+02  0.90837885447E+02  0.17770000000E+01 0. -1.
         15    1    1    2    0    0 -0.82590355489E+01  0.69520791879E-01  0.28602809847E+03  0.28615283913E+03  0.17770000000E+01 0.  1.
</event>
<event>
 6    1  0.6564965E-004  0.5015022E+03  0.7546771E-02  0.9396455E-01
        -11   -1    0    0    0    0  0.00000000000E+00  0.00000000000E+00  0.50000000000E+03  0.50000000000E+03  0.00000000000E+00 0.  1.
         11   -1    0    0    0    0 -0.00000000000E+00 -0.00000000000E+00 -0.50000000000E+03  0.50000000000E+03  0.00000000000E+00 0. -1.
        -11    1    1    2    0    0  0.12687087577E+02 -0.74244051434E+01  0.58931836943E+02  0.60737512201E+02  0.00000000000E+00 0.  1.
         11    1    1    2    0    0 -0.17585071153E+01 -0.16455650383E+02 -0.49822299837E+03  0.49849778021E+03  0.00000000000E+00 0. -1.
        -15    1    1    2    0    0 -0.11889072416E+01  0.12314015890E+02  0.34709456034E+03  0.34731950714E+03  0.17770000000E+01 0.  1.
         15    1    1    2    0    0 -0.97396732201E+01  0.11566039637E+02  0.92196601081E+02  0.93445200450E+02  0.17770000000E+01 0. -1.
</event>
<event>
 6    1  0.6564965E-004  0.5025294E+03  0.7546771E-02  0.9394168E-01
        -11   -1    0    0    0    0  0.00000000000E+00  0.00000000000E+00  0.50000000000E+03  0.50000000000E+03  0.00000000000E+00 0. -1.
         11   -1    0    0    0    0 -0.00000000000E+00 -0.00000000000E+00 -0.50000000000E+03  0.50000000000E+03  0.00000000000E+00 0.  1.
        -11    1    1    2    0    0 -0.15797588979E+02  0.11475757823E+01  0.46034192424E+03  0.46061433756E+03  0.00000000000E+00 0. -1.
         11    1    1    2    0    0  0.13959950615E+02 -0.13647668529E+02 -0.49708741484E+03  0.49747063940E+03  0.00000000000E+00 0.  1.
        -15    1    1    2    0    0  0.83160296176E+01  0.71688316151E+01  0.25086408285E+02  0.27441466888E+02  0.17770000000E+01 0. -1.
         15    1    1    2    0    0 -0.64783912538E+01  0.53312611320E+01  0.11659082307E+02  0.14473556153E+02  0.17770000000E+01 0.  1.
</event>
<event>
 6    1  0.6564965E-004  0.5023427E+03  0.7546771E-02  0.9394583E-01
        -11   -1    0    0    0    0  0.00000000000E+00  0.00000000000E+00  0.50000000000E+03  0.50000000000E+03  0.00000000000E+00 0. -1.
         11   -1    0    0    0    0 -0.00000000000E+00 -0.00000000000E+00 -0.50000000000E+03  0.50000000000E+03  0.00000000000E+00 0. -1.
        -11    1    1    2    0    0  0.70192479024E+01 -0.48619658432E+01  0.49758404432E+03  0.49765730148E+03  0.00000000000E+00 0. -1.
         11    1    1    2    0    0 -0.45113678450E+01  0.80180047546E+01 -0.49355812812E+03  0.49364386623E+03  0.00000000000E+00 0. -1.
        -15    1    1    2    0    0 -0.38949289128E+00 -0.91248902474E+00 -0.46572875017E+01  0.50825580967E+01  0.17770000000E+01 0. -1.
         15    1    1    2    0    0 -0.21183871661E+01 -0.22435498866E+01  0.63137129494E+00  0.36162741864E+01  0.17770000000E+01 0.  1.
</event>
<event>
 6    1  0.6564965E-004  0.5002964E+03  0.7546771E-02  0.9399147E-01
        -11   -1    0    0    0    0  0.00000000000E+00  0.00000000000E+00  0.50000000000E+03  0.50000000000E+03  0.00000000000E+00 0.  1.
         11   -1    0    0    0    0 -0.00000000000E+00 -0.00000000000E+00 -0.50000000000E+03  0.50000000000E+03  0.00000000000E+00 0.  1.
        -11    1    1    2    0    0  0.17520711324E+02 -0.82503195429E+01  0.27269993902E+03  0.27338672213E+03  0.00000000000E+00 0.  1.
         11    1    1    2    0    0 -0.19407293727E+02 -0.46711609952E+00 -0.49932634883E+03  0.49970357601E+03  0.00000000000E+00 0.  1.
        -15    1    1    2    0    0  0.22083760999E+01  0.37284266449E+01  0.54294519806E+02  0.54496153077E+02  0.17770000000E+01 0.  1.
         15    1    1    2    0    0 -0.32179369741E+00  0.49890089975E+01  0.17233189000E+03  0.17241354878E+03  0.17770000000E+01 0.  1.
</event>
<event>
 6    1  0.6564965E-004  0.5050772E+03  0.7546771E-02  0.9388520E-01
        -11   -1    0    0    0    0  0.00000000000E+00  0.00000000000E+00  0.50000000000E+03  0.50000000000E+03  0.00000000000E+00 0. -1.
         11   -1    0    0    0    0 -0.00000000000E+00 -0.00000000000E+00 -0.50000000000E+03  0.50000000000E+03  0.00000000000E+00 0.  1.
        -11    1    1    2    0    0  0.13960981036E+02 -0.21616775791E+02  0.49425338687E+03  0.49492282673E+03  0.00000000000E+00 0. -1.
         11    1    1    2    0    0  0.83476604712E+01  0.76023257916E+01 -0.37201438581E+03  0.37218568221E+03  0.00000000000E+00 0.  1.
        -15    1    1    2    0    0  0.64620647939E+01 -0.11237420104E+02 -0.41613737626E+02  0.43622228051E+02  0.17770000000E+01 0.  1.
         15    1    1    2    0    0 -0.28770706302E+02  0.25251870104E+02 -0.80625263439E+02  0.89269263011E+02  0.17770000000E+01 0. -1.
</event>
<event>
 6    1  0.6564965E-004  0.5036805E+03  0.7546771E-02  0.9391612E-01
        -11   -1    0    0    0    0  0.00000000000E+00  0.00000000000E+00  0.50000000000E+03  0.50000000000E+03  0.00000000000E+00 0.  1.
         11   -1    0    0    0    0 -0.00000000000E+00 -0.00000000000E+00 -0.50000000000E+03  0.50000000000E+03  0.00000000000E+00 0. -1.
        -11    1    1    2    0    0  0.96154813534E+01  0.15386796317E+00  0.48036635593E+03  0.48046260736E+03  0.00000000000E+00 0.  1.
         11    1    1    2    0    0  0.23723299328E+01 -0.74656800659E+01 -0.49625769023E+03  0.49631951346E+03  0.00000000000E+00 0. -1.
        -15    1    1    2    0    0 -0.12583542719E+02  0.70084878413E+01  0.15583008083E+02  0.21294419905E+02  0.17770000000E+01 0.  1.
         15    1    1    2    0    0  0.59573143309E+00  0.30332426137E+00  0.30832620923E+00  0.19234592793E+01  0.17770000000E+01 0. -1.
</event>
<event>
 6    1  0.6564965E-004  0.5005954E+03  0.7546771E-02  0.9398478E-01
        -11   -1    0    0    0    0  0.00000000000E+00  0.00000000000E+00  0.50000000000E+03  0.50000000000E+03  0.00000000000E+00 0. -1.
         11   -1    0    0    0    0 -0.00000000000E+00 -0.00000000000E+00 -0.50000000000E+03  0.50000000000E+03  0.00000000000E+00 0. -1.
        -11    1    1    2    0    0  0.59214997490E+01  0.10406406558E+02  0.29171903988E+03  0.29196464801E+03  0.00000000000E+00 0. -1.
         11    1    1    2    0    0  0.23986579151E+01 -0.64006008721E+01 -0.49935781397E+03  0.49940459312E+03  0.00000000000E+00 0. -1.
        -15    1    1    2    0    0 -0.50483163030E+01  0.68220147866E+01  0.10421667628E+03  0.10457675998E+03  0.17770000000E+01 0. -1.
         15    1    1    2    0    0 -0.32718413611E+01 -0.10827820473E+02  0.10342209781E+03  0.10405399889E+03  0.17770000000E+01 0.  1.
</event>
<event>
 6    1  0.6564965E-004  0.4951985E+03  0.7546771E-02  0.9410618E-01
        -11   -1    0    0    0    0  0.00000000000E+00  0.00000000000E+00  0.50000000000E+03  0.50000000000E+03  0.00000000000E+00 0. -1.
         11   -1    0    0    0    0 -0.00000000000E+00 -0.00000000000E+00 -0.50000000000E+03  0.50000000000E+03  0.00000000000E+00 0.  1.
        -11    1    1    2    0    0  0.77361887862E+01  0.53537436377E+01 -0.20387485581E+01  0.96264055368E+01  0.00000000000E+00 0. -1.
         11    1    1    2    0    0 -0.88657025175E+01  0.61042195811E+01 -0.49400700191E+03  0.49412425574E+03  0.00000000000E+00 0.  1.
        -15    1    1    2    0    0  0.34922123131E+01 -0.22136428719E+01  0.14977514860E+03  0.14984274633E+03  0.17770000000E+01 0.  1.
         15    1    1    2    0    0 -0.23626985819E+01 -0.92443203469E+01  0.34627060187E+03  0.34640659239E+03  0.17770000000E+01 0. -1.
</event>
<event>
 6    1  0.6564965E-004  0.4885503E+03  0.7546771E-02  0.9425800E-01
        -11   -1    0    0    0    0  0.00000000000E+00  0.00000000000E+00  0.50000000000E+03  0.50000000000E+03  0.00000000000E+00 0. -1.
         11   -1    0    0    0    0 -0.00000000000E+00 -0.00000000000E+00 -0.50000000000E+03  0.50000000000E+03  0.00000000000E+00 0.  1.
        -11    1    1    2    0    0  0.72502618396E+01 -0.12385621095E+02  0.48402551769E+03  0.48423823856E+03  0.00000000000E+00 0. -1.
         11    1    1    2    0    0 -0.85935018351E+01 -0.23468529761E+01 -0.49293437825E+03  0.49301486514E+03  0.00000000000E+00 0.  1.
        -15    1    1    2    0    0  0.33197685348E+00  0.12062248746E+02  0.12747983316E+02  0.17643040017E+02  0.17770000000E+01 0. -1.
         15    1    1    2    0    0  0.10112631420E+01  0.26702253259E+01 -0.38391227580E+01  0.51038562857E+01  0.17770000000E+01 0.  1.
</event>
<event>
 6    1  0.6564965E-004  0.5012730E+03  0.7546771E-02  0.9396966E-01
        -11   -1    0    0    0    0  0.00000000000E+00  0.00000000000E+00  0.50000000000E+03  0.50000000000E+03  0.00000000000E+00 0. -1.
         11   -1    0    0    0    0 -0.00000000000E+00 -0.00000000000E+00 -0.50000000000E+03  0.50000000000E+03  0.00000000000E+00 0.  1.
        -11    1    1    2    0    0 -0.79857807627E+01 -0.25920869895E+01  0.49865632582E+03  0.49872700237E+03  0.00000000000E+00 0. -1.
         11    1    1    2    0    0 -0.28226345181E+01  0.66539041307E+01 -0.43625558229E+03  0.43631545330E+03  0.00000000000E+00 0.  1.
        -15    1    1    2    0    0  0.13509843678E+02 -0.21429357439E+01 -0.41818425789E+02  0.44034605872E+02  0.17770000000E+01 0.  1.
         15    1    1    2    0    0 -0.27014283970E+01 -0.19188813973E+01 -0.20582317742E+02  0.20922938461E+02  0.17770000000E+01 0.  1.
</event>
<event>
 6    1  0.6564965E-004  0.5001840E+03  0.7546771E-02  0.9399398E-01
        -11   -1    0    0    0    0  0.00000000000E+00  0.00000000000E+00  0.50000000000E+03  0.50000000000E+03  0.00000000000E+00 0. -1.
         11   -1    0    0    0    0 -0.00000000000E+00 -0.00000000000E+00 -0.50000000000E+03  0.50000000000E+03  0.00000000000E+00 0.  1.
        -11    1    1    2    0    0  0.89395194255E+01 -0.30059663995E+01  0.49972696486E+03  0.49981595638E+03  0.00000000000E+00 0. -1.
         11    1    1    2    0    0 -0.37250051198E+01 -0.30298085946E+01 -0.35290612367E+03  0.35293878722E+03  0.00000000000E+00 0.  1.
        -15    1    1    2    0    0 -0.23898391453E+01  0.34301876590E+01 -0.12053964238E+03  0.12062520729E+03  0.17770000000E+01 0. -1.
         15    1    1    2    0    0 -0.28246751604E+01  0.26055873351E+01 -0.26281198810E+02  0.26620049117E+02  0.17770000000E+01 0.  1.
</event>
<event>
 6    1  0.6564965E-004  0.5017965E+03  0.7546771E-02  0.9395799E-01
        -11   -1    0    0    0    0  0.00000000000E+00  0.00000000000E+00  0.50000000000E+03  0.50000000000E+03  0.00000000000E+00 0. -1.
         11   -1    0    0    0    0 -0.00000000000E+00 -0.00000000000E+00 -0.50000000000E+03  0.50000000000E+03  0.00000000000E+00 0. -1.
        -11    1    1    2    0    0 -0.36817700748E+01  0.80160446609E+01  0.49812543670E+03  0.49820353581E+03  0.00000000000E+00 0. -1.
         11    1    1    2    0    0  0.98319575690E+01 -0.36364440965E+01 -0.48458230937E+03  0.48469568357E+03  0.00000000000E+00 0. -1.
        -15    1    1    2    0    0 -0.56686031690E+01 -0.37188788712E+01 -0.57487688305E+01  0.90647225006E+01  0.17770000000E+01 0.  1.
         15    1    1    2    0    0 -0.48158432532E+00 -0.66072169325E+00 -0.77943585005E+01  0.80360581165E+01  0.17770000000E+01 0. -1.
</event>
<event>
 6    1  0.6564965E-004  0.5061661E+03  0.7546771E-02  0.9386117E-01
        -11   -1    0    0    0    0  0.00000000000E+00  0.00000000000E+00  0.50000000000E+03  0.50000000000E+03  0.00000000000E+00 0. -1.
         11   -1    0    0    0    0 -0.00000000000E+00 -0.00000000000E+00 -0.50000000000E+03  0.50000000000E+03  0.00000000000E+00 0.  1.
        -11    1    1    2    0    0 -0.81815528789E+01  0.15228071350E+02  0.48072789638E+03  0.48103860794E+03  0.00000000000E+00 0. -1.
         11    1    1    2    0    0  0.63847488148E+01  0.49866027819E+01 -0.49376744300E+03  0.49383389818E+03  0.00000000000E+00 0.  1.
        -15    1    1    2    0    0  0.20457725520E+00 -0.11684215212E+02  0.40186794443E+01  0.12484800777E+02  0.17770000000E+01 0. -1.
         15    1    1    2    0    0  0.15922268089E+01 -0.85304589207E+01  0.90208671684E+01  0.12642693110E+02  0.17770000000E+01 0.  1.
</event>
<event>
 6    1  0.6564965E-004  0.5102921E+03  0.7546771E-02  0.9377070E-01
        -11   -1    0    0    0    0  0.00000000000E+00  0.00000000000E+00  0.50000000000E+03  0.50000000000E+03  0.00000000000E+00 0.  1.
         11   -1    0    0    0    0 -0.00000000000E+00 -0.00000000000E+00 -0.50000000000E+03  0.50000000000E+03  0.00000000000E+00 0. -1.
        -11    1    1    2    0    0  0.45548128748E+02  0.57831950184E+01  0.25898570806E+03  0.26302409463E+03  0.00000000000E+00 0.  1.
         11    1    1    2    0    0  0.72622249015E+01 -0.16015328977E+01 -0.48965141664E+03  0.48970788704E+03  0.00000000000E+00 0. -1.
        -15    1    1    2    0    0 -0.52228293682E+02 -0.30279267924E+00  0.23524639427E+03  0.24098114053E+03  0.17770000000E+01 0.  1.
         15    1    1    2    0    0 -0.58205996795E+00 -0.38788694415E+01 -0.45806856973E+01  0.62868777949E+01  0.17770000000E+01 0. -1.
</event>
<event>
 6    1  0.6564965E-004  0.5009662E+03  0.7546771E-02  0.9397650E-01
        -11   -1    0    0    0    0  0.00000000000E+00  0.00000000000E+00  0.50000000000E+03  0.50000000000E+03  0.00000000000E+00 0.  1.
         11   -1    0    0    0    0 -0.00000000000E+00 -0.00000000000E+00 -0.50000000000E+03  0.50000000000E+03  0.00000000000E+00 0.  1.
        -11    1    1    2    0    0  0.16443433440E+02 -0.56663247418E+01  0.14648811828E+03  0.14751699067E+03  0.00000000000E+00 0.  1.
         11    1    1    2    0    0  0.34855020572E+01 -0.66131619828E+01 -0.49897777391E+03  0.49903376789E+03  0.00000000000E+00 0.  1.
        -15    1    1    2    0    0 -0.10995291997E+02  0.86741280193E+01  0.27192171937E+03  0.27228792874E+03  0.17770000000E+01 0.  1.
         15    1    1    2    0    0 -0.89336435008E+01  0.36053587053E+01  0.80567936260E+02  0.81161312704E+02  0.17770000000E+01 0. -1.
</event>
<event>
 6    1  0.6564965E-004  0.5000448E+03  0.7546771E-02  0.9399710E-01
        -11   -1    0    0    0    0  0.00000000000E+00  0.00000000000E+00  0.50000000000E+03  0.50000000000E+03  0.00000000000E+00 0.  1.
         11   -1    0    0    0    0 -0.00000000000E+00 -0.00000000000E+00 -0.50000000000E+03  0.50000000000E+03  0.00000000000E+00 0. -1.
        -11    1    1    2    0    0 -0.27614101885E+00  0.87210777569E+01  0.26034366941E+03  0.26048984559E+03  0.00000000000E+00 0.  1.
         11    1    1    2    0    0  0.42073110289E+01 -0.10631901737E+02 -0.49982446313E+03  0.49995523074E+03  0.00000000000E+00 0. -1.
        -15    1    1    2    0    0 -0.28114986770E+01  0.14091404977E+01  0.17692332427E+03  0.17696019496E+03  0.17770000000E+01 0. -1.
         15    1    1    2    0    0 -0.11196713330E+01  0.50168348242E+00  0.62557469448E+02  0.62594728716E+02  0.17770000000E+01 0. -1.
</event>
<event>
 6    1  0.6564965E-004  0.5026844E+03  0.7546771E-02  0.9393823E-01
        -11   -1    0    0    0    0  0.00000000000E+00  0.00000000000E+00  0.50000000000E+03  0.50000000000E+03  0.00000000000E+00 0.  1.
         11   -1    0    0    0    0 -0.00000000000E+00 -0.00000000000E+00 -0.50000000000E+03  0.50000000000E+03  0.00000000000E+00 0. -1.
        -11    1    1    2    0    0 -0.11406579631E+02  0.13441973473E+02  0.49700304933E+03  0.49731562186E+03  0.00000000000E+00 0.  1.
         11    1    1    2    0    0 -0.10494393584E+02 -0.44640566759E+01 -0.41277785646E+03  0.41293536889E+03  0.00000000000E+00 0. -1.
        -15    1    1    2    0    0  0.13131933583E+02 -0.96766080570E+01 -0.25372542302E+02  0.30216023150E+02  0.17770000000E+01 0. -1.
         15    1    1    2    0    0  0.87690396317E+01  0.69869125947E+00 -0.58852650571E+02  0.59532986098E+02  0.17770000000E+01 0.  1.
</event>
<event>
 6    1  0.6564965E-004  0.4871084E+03  0.7546771E-02  0.9429127E-01
        -11   -1    0    0    0    0  0.00000000000E+00  0.00000000000E+00  0.50000000000E+03  0.50000000000E+03  0.00000000000E+00 0.  1.
         11   -1    0    0    0    0 -0.00000000000E+00 -0.00000000000E+00 -0.50000000000E+03  0.50000000000E+03  0.00000000000E+00 0.  1.
        -11    1    1    2    0    0  0.22892282681E+02 -0.27761353772E+01  0.49246622820E+03  0.49300583106E+03  0.00000000000E+00 0.  1.
         11    1    1    2    0    0 -0.36215866362E+01 -0.78282236504E+01 -0.48144441569E+03  0.48152167383E+03  0.00000000000E+00 0.  1.
        -15    1    1    2    0    0 -0.13542824239E+02  0.56283861935E+01 -0.94079945569E+01  0.17514420061E+02  0.17770000000E+01 0.  1.
         15    1    1    2    0    0 -0.57278718064E+01  0.49759728340E+01 -0.16138179626E+01  0.79580750494E+01  0.17770000000E+01 0. -1.
</event>
<event>
 6    1  0.6564965E-004  0.5048744E+03  0.7546771E-02  0.9388968E-01
        -11   -1    0    0    0    0  0.00000000000E+00  0.00000000000E+00  0.50000000000E+03  0.50000000000E+03  0.00000000000E+00 0.  1.
         11   -1    0    0    0    0 -0.00000000000E+00 -0.00000000000E+00 -0.50000000000E+03  0.50000000000E+03  0.00000000000E+00 0.  1.
        -11    1    1    2    0    0 -0.19038903297E+02  0.19563582464E+01  0.46273495451E+03  0.46313059206E+03  0.00000000000E+00 0.  1.
         11    1    1    2    0    0 -0.48447910328E+01  0.53411456974E+01 -0.49507306118E+03  0.49512557574E+03  0.00000000000E+00 0.  1.
        -15    1    1    2    0    0  0.51774542044E+01 -0.48028909837E+01  0.70087052135E+01  0.10107100059E+02  0.17770000000E+01 0. -1.
         15    1    1    2    0    0  0.18706240125E+02 -0.24946129601E+01  0.25329401462E+02  0.31636732146E+02  0.17770000000E+01 0.  1.
</event>
<event>
 6    1  0.6564965E-004  0.5019341E+03  0.7546771E-02  0.9395492E-01
        -11   -1    0    0    0    0  0.00000000000E+00  0.00000000000E+00  0.50000000000E+03  0.50000000000E+03  0.00000000000E+00 0. -1.
         11   -1    0    0    0    0 -0.00000000000E+00 -0.00000000000E+00 -0.50000000000E+03  0.50000000000E+03  0.00000000000E+00 0. -1.
        -11    1    1    2    0    0 -0.10701342145E+02  0.98050553502E+01  0.41006480211E+03  0.41032158091E+03  0.00000000000E+00 0. -1.
         11    1    1    2    0    0 -0.54887342088E+01  0.55506027332E+01 -0.49800474325E+03  0.49806591903E+03  0.00000000000E+00 0. -1.
        -15    1    1    2    0    0  0.15590411890E+02 -0.12218053581E+02  0.55276105476E+02  0.58744764378E+02  0.17770000000E+01 0.  1.
         15    1    1    2    0    0  0.59966446346E+00 -0.31376045024E+01  0.32663835669E+02  0.32867735686E+02  0.17770000000E+01 0. -1.
</event>
<event>
 6    1  0.6564965E-004  0.5011866E+03  0.7546771E-02  0.9397159E-01
        -11   -1    0    0    0    0  0.00000000000E+00  0.00000000000E+00  0.50000000000E+03  0.50000000000E+03  0.00000000000E+00 0.  1.
         11   -1    0    0    0    0 -0.00000000000E+00 -0.00000000000E+00 -0.50000000000E+03  0.50000000000E+03  0.00000000000E+00 0.  1.
        -11    1    1    2    0    0  0.15375590331E+01  0.15276884671E+02  0.37882132076E+03  0.37913235203E+03  0.00000000000E+00 0.  1.
         11    1    1    2    0    0  0.62978781519E+01  0.27866447831E+01 -0.49876587760E+03  0.49881342135E+03  0.00000000000E+00 0.  1.
        -15    1    1    2    0    0 -0.11576347178E+01  0.75633603348E+00  0.72960249097E+01  0.76355661753E+01  0.17770000000E+01 0.  1.
         15    1    1    2    0    0 -0.66778024672E+01 -0.18819865488E+02  0.11264853193E+03  0.11441866044E+03  0.17770000000E+01 0. -1.
</event>
<event>
 6    1  0.6564965E-004  0.5002345E+03  0.7546771E-02  0.9399285E-01
        -11   -1    0    0    0    0  0.00000000000E+00  0.00000000000E+00  0.50000000000E+03  0.50000000000E+03  0.00000000000E+00 0.  1.
         11   -1    0    0    0    0 -0.00000000000E+00 -0.00000000000E+00 -0.50000000000E+03  0.50000000000E+03  0.00000000000E+00 0.  1.
        -11    1    1    2    0    0 -0.91576875038E+01 -0.38322702764E+01  0.31151296431E+03  0.31167110304E+03  0.00000000000E+00 0.  1.
         11    1    1    2    0    0  0.39560181192E+01 -0.55499527998E+01 -0.49971898708E+03  0.49976546310E+03  0.00000000000E+00 0.  1.
        -15    1    1    2    0    0  0.13315461210E+01  0.37016162618E+01  0.88316857388E+02  0.88422282293E+02  0.17770000000E+01 0. -1.
         15    1    1    2    0    0  0.38701232635E+01  0.56806068145E+01  0.99889165383E+02  0.10014115157E+03  0.17770000000E+01 0. -1.
</event>
<event>
 6    1  0.6564965E-004  0.5039502E+03  0.7546771E-02  0.9391014E-01
        -11   -1    0    0    0    0  0.00000000000E+00  0.00000000000E+00  0.50000000000E+03  0.50000000000E+03  0.00000000000E+00 0. -1.
         11   -1    0    0    0    0 -0.00000000000E+00 -0.00000000000E+00 -0.50000000000E+03  0.50000000000E+03  0.00000000000E+00 0. -1.
        -11    1    1    2    0    0  0.28949904566E+01  0.22954616758E+02  0.38525398089E+02  0.44938866231E+02  0.00000000000E+00 0. -1.
         11    1    1    2    0    0  0.81492129714E+01  0.20000441467E+01 -0.49597878761E+03  0.49604976324E+03  0.00000000000E+00 0. -1.
        -15    1    1    2    0    0 -0.13210983234E+02 -0.16343848531E+02  0.41801671159E+03  0.41854842056E+03  0.17770000000E+01 0. -1.
         15    1    1    2    0    0  0.21667798061E+01 -0.86108123731E+01  0.39436677935E+02  0.40462949967E+02  0.17770000000E+01 0.  1.
</event>
<event>
 6    1  0.6564965E-004  0.5002701E+03  0.7546771E-02  0.9399206E-01
        -11   -1    0    0    0    0  0.00000000000E+00  0.00000000000E+00  0.50000000000E+03  0.50000000000E+03  0.00000000000E+00 0. -1.
         11   -1    0    0    0    0 -0.00000000000E+00 -0.00000000000E+00 -0.50000000000E+03  0.50000000000E+03  0.00000000000E+00 0.  1.
        -11    1    1    2    0    0 -0.50715648642E+01 -0.10438037729E+01  0.36345606724E+03  0.36349294782E+03  0.00000000000E+00 0. -1.
         11    1    1    2    0    0  0.12413351322E+02 -0.23486734099E+01 -0.49957020549E+03  0.49972992483E+03  0.00000000000E+00 0.  1.
        -15    1    1    2    0    0 -0.46164115366E+01  0.26607431523E+00  0.11818999684E+03  0.11829376625E+03  0.17770000000E+01 0.  1.
         15    1    1    2    0    0 -0.27253749211E+01  0.31264028675E+01  0.17924141410E+02  0.18483361103E+02  0.17770000000E+01 0. -1.
</event>
<event>
 6    1  0.6564965E-004  0.5004159E+03  0.7546771E-02  0.9398880E-01
        -11   -1    0    0    0    0  0.00000000000E+00  0.00000000000E+00  0.50000000000E+03  0.50000000000E+03  0.00000000000E+00 0.  1.
         11   -1    0    0    0    0 -0.00000000000E+00 -0.00000000000E+00 -0.50000000000E+03  0.50000000000E+03  0.00000000000E+00 0.  1.
        -11    1    1    2    0    0  0.73988976072E+01 -0.81230373802E+01  0.49946328119E+03  0.49958412372E+03  0.00000000000E+00 0.  1.
         11    1    1    2    0    0 -0.90273365767E+01 -0.10113311170E+01 -0.42615977891E+03  0.42625658090E+03  0.00000000000E+00 0.  1.
        -15    1    1    2    0    0 -0.15375269171E+01  0.46558825800E+01 -0.27077911352E+02  0.27575573318E+02  0.17770000000E+01 0. -1.
         15    1    1    2    0    0  0.31659658866E+01  0.44784859173E+01 -0.46225590919E+02  0.46583722060E+02  0.17770000000E+01 0.  1.
</event>
<event>
 6    1  0.6564965E-004  0.5018220E+03  0.7546771E-02  0.9395742E-01
        -11   -1    0    0    0    0  0.00000000000E+00  0.00000000000E+00  0.50000000000E+03  0.50000000000E+03  0.00000000000E+00 0.  1.
         11   -1    0    0    0    0 -0.00000000000E+00 -0.00000000000E+00 -0.50000000000E+03  0.50000000000E+03  0.00000000000E+00 0.  1.
        -11    1    1    2    0    0  0.10674504349E+02 -0.19033882047E+02  0.42808995353E+03  0.42864582352E+03  0.00000000000E+00 0.  1.
         11    1    1    2    0    0 -0.80810134879E+01  0.37219889058E+00 -0.49811232640E+03  0.49817801138E+03  0.00000000000E+00 0.  1.
        -15    1    1    2    0    0  0.32079235139E+01  0.46980419907E+01  0.17191205787E+02  0.18194989893E+02  0.17770000000E+01 0. -1.
         15    1    1    2    0    0 -0.58014143750E+01  0.13963641166E+02  0.52831167079E+02  0.54981175208E+02  0.17770000000E+01 0.  1.
</event>
<event>
 6    1  0.6564965E-004  0.5010326E+03  0.7546771E-02  0.9397502E-01
        -11   -1    0    0    0    0  0.00000000000E+00  0.00000000000E+00  0.50000000000E+03  0.50000000000E+03  0.00000000000E+00 0. -1.
         11   -1    0    0    0    0 -0.00000000000E+00 -0.00000000000E+00 -0.50000000000E+03  0.50000000000E+03  0.00000000000E+00 0. -1.
        -11    1    1    2    0    0  0.10201216488E+02 -0.19751132396E+02  0.40855620478E+03  0.40916053635E+03  0.00000000000E+00 0. -1.
         11    1    1    2    0    0 -0.45991480342E+01  0.11410747535E+02 -0.49881568539E+03  0.49896737901E+03  0.00000000000E+00 0. -1.
        -15    1    1    2    0    0 -0.28685285595E+01 -0.75969508556E+00  0.60141182522E+02  0.60240560728E+02  0.17770000000E+01 0. -1.
         15    1    1    2    0    0 -0.27335398943E+01  0.91000799470E+01  0.30118298097E+02  0.31631523907E+02  0.17770000000E+01 0.  1.
</event>
<event>
 6    1  0.6564965E-004  0.5073010E+03  0.7546771E-02  0.9383620E-01
        -11   -1    0    0    0    0  0.00000000000E+00  0.00000000000E+00  0.50000000000E+03  0.50000000000E+03  0.00000000000E+00 0. -1.
         11   -1    0    0    0    0 -0.00000000000E+00 -0.00000000000E+00 -0.50000000000E+03  0.50000000000E+03  0.00000000000E+00 0.  1.
        -11    1    1    2    0    0 -0.20024927750E+02 -0.88241201053E+01  0.44746370976E+03  0.44799847587E+03  0.00000000000E+00 0. -1.
         11    1    1    2    0    0 -0.61915418644E+01 -0.30756131411E+01 -0.49265045381E+03  0.49269895902E+03  0.00000000000E+00 0.  1.
        -15    1    1    2    0    0 -0.24731080584E+01  0.26625905384E+01 -0.95897663397E+00  0.41572848144E+01  0.17770000000E+01 0.  1.
         15    1    1    2    0    0  0.28689577673E+02  0.92371427081E+01  0.46145720676E+02  0.55145280289E+02  0.17770000000E+01 0. -1.
</event>
<event>
 6    1  0.6564965E-004  0.5010272E+03  0.7546771E-02  0.9397514E-01
        -11   -1    0    0    0    0  0.00000000000E+00  0.00000000000E+00  0.50000000000E+03  0.50000000000E+03  0.00000000000E+00 0.  1.
         11   -1    0    0    0    0 -0.00000000000E+00 -0.00000000000E+00 -0.50000000000E+03  0.50000000000E+03  0.00000000000E+00 0. -1.
        -11    1    1    2    0    0  0.71129890806E+01 -0.23861868170E+02  0.49835115891E+03  0.49897280583E+03  0.00000000000E+00 0.  1.
         11    1    1    2    0    0  0.13945833998E+01  0.93796260552E+01 -0.29260595144E+03  0.29275956870E+03  0.00000000000E+00 0. -1.
        -15    1    1    2    0    0 -0.44963042039E-01 -0.79990666717E+01 -0.56532948677E+02  0.57123717529E+02  0.17770000000E+01 0. -1.
         15    1    1    2    0    0 -0.84626094384E+01  0.22481308787E+02 -0.14921225880E+03  0.15114390794E+03  0.17770000000E+01 0.  1.
</event>
<event>
 6    1  0.6564965E-004  0.5002764E+03  0.7546771E-02  0.9399191E-01
        -11   -1    0    0    0    0  0.00000000000E+00  0.00000000000E+00  0.50000000000E+03  0.50000000000E+03  0.00000000000E+00 0. -1.
         11   -1    0    0    0    0 -0.00000000000E+00 -0.00000000000E+00 -0.50000000000E+03  0.50000000000E+03  0.00000000000E+00 0. -1.
        -11    1    1    2    0    0 -0.63990225936E+01  0.15883726854E+01  0.26289018394E+03  0.26297284885E+03  0.00000000000E+00 0. -1.
         11    1    1    2    0    0 -0.40732424827E+01 -0.12399484396E+02 -0.49955311308E+03  0.49972357489E+03  0.00000000000E+00 0. -1.
        -15    1    1    2    0    0  0.64932142111E+01  0.13883922648E+01  0.78541231527E+02  0.78841437345E+02  0.17770000000E+01 0. -1.
         15    1    1    2    0    0  0.39790508652E+01  0.94227194454E+01  0.15812169761E+03  0.15846213892E+03  0.17770000000E+01 0.  1.
</event>
<event>
 6    1  0.6564965E-004  0.5029660E+03  0.7546771E-02  0.9393197E-01
        -11   -1    0    0    0    0  0.00000000000E+00  0.00000000000E+00  0.50000000000E+03  0.50000000000E+03  0.00000000000E+00 0.  1.
         11   -1    0    0    0    0 -0.00000000000E+00 -0.00000000000E+00 -0.50000000000E+03  0.50000000000E+03  0.00000000000E+00 0. -1.
        -11    1    1    2    0    0  0.34838476063E+02 -0.14457355943E+03  0.47426528991E+03  0.49703400157E+03  0.00000000000E+00 0.  1.
         11    1    1    2    0    0 -0.31690360078E+02  0.14147245375E+03 -0.35679444551E+03  0.38512466870E+03  0.00000000000E+00 0. -1.
        -15    1    1    2    0    0 -0.24374146985E+01  0.39603758159E+01 -0.35901688438E+02  0.36245200078E+02  0.17770000000E+01 0.  1.
         15    1    1    2    0    0 -0.71070128653E+00 -0.85927013623E+00 -0.81569155964E+02  0.81596129658E+02  0.17770000000E+01 0. -1.
</event>
<event>
 6    1  0.6564965E-004  0.5012179E+03  0.7546771E-02  0.9397089E-01
        -11   -1    0    0    0    0  0.00000000000E+00  0.00000000000E+00  0.50000000000E+03  0.50000000000E+03  0.00000000000E+00 0. -1.
         11   -1    0    0    0    0 -0.00000000000E+00 -0.00000000000E+00 -0.50000000000E+03  0.50000000000E+03  0.00000000000E+00 0. -1.
        -11    1    1    2    0    0  0.20693206585E+01 -0.42519630536E+01 -0.28834526815E+01  0.55385537069E+01  0.00000000000E+00 0. -1.
         11    1    1    2    0    0 -0.81166932590E+01 -0.76548733372E+01 -0.49555377250E+03  0.49567935123E+03  0.00000000000E+00 0. -1.
        -15    1    1    2    0    0 -0.35705100978E+01  0.15477200306E+01  0.12514351073E+03  0.12521661227E+03  0.17770000000E+01 0.  1.
         15    1    1    2    0    0  0.96178826982E+01  0.10359116360E+02  0.37329371445E+03  0.37356548280E+03  0.17770000000E+01 0. -1.
</event>
<event>
 6    1  0.6564965E-004  0.5024299E+03  0.7546771E-02  0.9394389E-01
        -11   -1    0    0    0    0  0.00000000000E+00  0.00000000000E+00  0.50000000000E+03  0.50000000000E+03  0.00000000000E+00 0.  1.
         11   -1    0    0    0    0 -0.00000000000E+00 -0.00000000000E+00 -0.50000000000E+03  0.50000000000E+03  0.00000000000E+00 0.  1.
        -11    1    1    2    0    0 -0.33490432346E+02 -0.31652979199E+01  0.49643168263E+03  0.49757013946E+03  0.00000000000E+00 0.  1.
         11    1    1    2    0    0 -0.33669163089E+01  0.49273703711E+01 -0.21937687376E+03  0.21945803208E+03  0.00000000000E+00 0.  1.
        -15    1    1    2    0    0 -0.37845658683E-02  0.35455791617E+01 -0.16155083693E+03  0.16159951048E+03  0.17770000000E+01 0. -1.
         15    1    1    2    0    0  0.36861133221E+02 -0.53076516130E+01 -0.11550397195E+03  0.12137231798E+03  0.17770000000E+01 0.  1.
</event>
<event>
 6    1  0.6564965E-004  0.4826642E+03  0.7546771E-02  0.9439458E-01
        -11   -1    0    0    0    0  0.00000000000E+00  0.00000000000E+00  0.50000000000E+03  0.50000000000E+03  0.00000000000E+00 0. -1.
         11   -1    0    0    0    0 -0.00000000000E+00 -0.00000000000E+00 -0.50000000000E+03  0.50000000000E+03  0.00000000000E+00 0.  1.
        -11    1    1    2    0    0  0.14696688670E+02 -0.10939681708E+02  0.48890336313E+03  0.48924653067E+03  0.00000000000E+00 0. -1.
         11    1    1    2    0    0  0.46206063158E+01 -0.64321129945E+01 -0.47644598240E+03  0.47651180072E+03  0.00000000000E+00 0.  1.
        -15    1    1    2    0    0 -0.63689937071E+01  0.11771514273E+02  0.23592171073E+01  0.13706066667E+02  0.17770000000E+01 0. -1.
         15    1    1    2    0    0 -0.12948301279E+02  0.56002804294E+01 -0.14816597832E+02  0.20535601945E+02  0.17770000000E+01 0.  1.
</event>
<event>
 6    1  0.6564965E-004  0.5044297E+03  0.7546771E-02  0.9389952E-01
        -11   -1    0    0    0    0  0.00000000000E+00  0.00000000000E+00  0.50000000000E+03  0.50000000000E+03  0.00000000000E+00 0.  1.
         11   -1    0    0    0    0 -0.00000000000E+00 -0.00000000000E+00 -0.50000000000E+03  0.50000000000E+03  0.00000000000E+00 0. -1.
        -11    1    1    2    0    0 -0.71600035706E+01 -0.35895243378E+02  0.11925333693E+03  0.12474410814E+03  0.00000000000E+00 0.  1.
         11    1    1    2    0    0  0.28445505543E+01  0.12109095729E+02 -0.49541418803E+03  0.49557031728E+03  0.00000000000E+00 0. -1.
        -15    1    1    2    0    0 -0.42590779477E+01 -0.11641831161E+02  0.15779913885E+03  0.15829528713E+03  0.17770000000E+01 0. -1.
         15    1    1    2    0    0  0.85745309640E+01  0.35427978811E+02  0.21836171226E+03  0.22139028744E+03  0.17770000000E+01 0.  1.
</event>
<event>
 6    1  0.6564965E-004  0.5038656E+03  0.7546771E-02  0.9391201E-01
        -11   -1    0    0    0    0  0.00000000000E+00  0.00000000000E+00  0.50000000000E+03  0.50000000000E+03  0.00000000000E+00 0. -1.
         11   -1    0    0    0    0 -0.00000000000E+00 -0.00000000000E+00 -0.50000000000E+03  0.50000000000E+03  0.00000000000E+00 0.  1.
        -11    1    1    2    0    0  0.39073426151E+02 -0.46575497152E+01  0.71238839017E+02  0.81384258828E+02  0.00000000000E+00 0. -1.
         11    1    1    2    0    0 -0.53392911753E+02  0.12206085487E+02 -0.49310197310E+03  0.49613440460E+03  0.00000000000E+00 0.  1.
        -15    1    1    2    0    0  0.11929573915E+02 -0.14154849482E+01  0.13715382007E+03  0.13769040061E+03  0.17770000000E+01 0.  1.
         15    1    1    2    0    0  0.23899116881E+01 -0.61330508237E+01  0.28470931401E+03  0.28479093596E+03  0.17770000000E+01 0. -1.
</event>
<event>
 6    1  0.6564965E-004  0.5027928E+03  0.7546771E-02  0.9393582E-01
        -11   -1    0    0    0    0  0.00000000000E+00  0.00000000000E+00  0.50000000000E+03  0.50000000000E+03  0.00000000000E+00 0.  1.
         11   -1    0    0    0    0 -0.00000000000E+00 -0.00000000000E+00 -0.50000000000E+03  0.50000000000E+03  0.00000000000E+00 0. -1.
        -11    1    1    2    0    0  0.21741060571E+02 -0.12124490537E+02  0.34600230619E+03  0.34689663140E+03  0.00000000000E+00 0.  1.
         11    1    1    2    0    0  0.54237279475E+01 -0.56081956454E+01 -0.49714594549E+03  0.49720715985E+03  0.00000000000E+00 0. -1.
        -15    1    1    2    0    0 -0.53468096967E+01  0.28217372229E+01  0.75254286639E+02  0.75517653310E+02  0.17770000000E+01 0. -1.
         15    1    1    2    0    0 -0.21817978822E+02  0.14910948960E+02  0.75889352662E+02  0.80378555444E+02  0.17770000000E+01 0.  1.
</event>
<event>
 6    1  0.8414467E-004  0.5001969E+03  0.7546771E-02  0.9399369E-01
        -11   -1    0    0    0    0  0.00000000000E+00  0.00000000000E+00  0.50000000000E+03  0.50000000000E+03  0.00000000000E+00 0.  1.
         11   -1    0    0    0    0 -0.00000000000E+00 -0.00000000000E+00 -0.50000000000E+03  0.50000000000E+03  0.00000000000E+00 0.  1.
        -11    1    1    2    0    0 -0.87154488136E+01  0.26696329780E+01  0.49971994724E+03  0.49980307287E+03  0.00000000000E+00 0.  1.
         11    1    1    2    0    0 -0.25522171535E+01  0.26452349716E+01 -0.19187839699E+03  0.19191360117E+03  0.00000000000E+00 0.  1.
        -15    1    1    2    0    0  0.16342049850E+00 -0.32815148435E+01 -0.14169336513E+03  0.14174259239E+03  0.17770000000E+01 0.  1.
         15    1    1    2    0    0  0.11104245469E+02 -0.20333531061E+01 -0.16614818512E+03  0.16654073357E+03  0.17770000000E+01 0. -1.
</event>
<event>
 6    1  0.6564965E-004  0.5042081E+03  0.7546771E-02  0.9390443E-01
        -11   -1    0    0    0    0  0.00000000000E+00  0.00000000000E+00  0.50000000000E+03  0.50000000000E+03  0.00000000000E+00 0.  1.
         11   -1    0    0    0    0 -0.00000000000E+00 -0.00000000000E+00 -0.50000000000E+03  0.50000000000E+03  0.00000000000E+00 0.  1.
        -11    1    1    2    0    0 -0.15619580969E+02 -0.36272403695E+02  0.39434919915E+03  0.39632177514E+03  0.00000000000E+00 0.  1.
         11    1    1    2    0    0  0.96469051641E+01  0.61889731865E+01 -0.49565942200E+03  0.49579192086E+03  0.00000000000E+00 0.  1.
        -15    1    1    2    0    0 -0.21098465111E+01  0.10568495499E+01  0.97697564683E+00  0.31113652447E+01  0.17770000000E+01 0.  1.
         15    1    1    2    0    0  0.80825223155E+01  0.29026580959E+02  0.10033324721E+03  0.10477493876E+03  0.17770000000E+01 0. -1.
</event>
<event>
 6    1  0.6564965E-004  0.4649203E+03  0.7546771E-02  0.9481917E-01
        -11   -1    0    0    0    0  0.00000000000E+00  0.00000000000E+00  0.50000000000E+03  0.50000000000E+03  0.00000000000E+00 0.  1.
         11   -1    0    0    0    0 -0.00000000000E+00 -0.00000000000E+00 -0.50000000000E+03  0.50000000000E+03  0.00000000000E+00 0.  1.
        -11    1    1    2    0    0  0.91878317637E+01  0.35916750264E+02  0.48233822772E+03  0.48376088631E+03  0.00000000000E+00 0.  1.
         11    1    1    2    0    0  0.92017834517E+01  0.18070227852E+02 -0.44800104311E+03  0.44845974243E+03  0.00000000000E+00 0.  1.
        -15    1    1    2    0    0 -0.23578942379E+01 -0.12295345816E+02 -0.13373099772E+02  0.18404692893E+02  0.17770000000E+01 0.  1.
         15    1    1    2    0    0 -0.16031720977E+02 -0.41691632301E+02 -0.20964084842E+02  0.49374678365E+02  0.17770000000E+01 0. -1.
</event>
<event>
 6    1  0.6564965E-004  0.5135848E+03  0.7546771E-02  0.9369915E-01
        -11   -1    0    0    0    0  0.00000000000E+00  0.00000000000E+00  0.50000000000E+03  0.50000000000E+03  0.00000000000E+00 0.  1.
         11   -1    0    0    0    0 -0.00000000000E+00 -0.00000000000E+00 -0.50000000000E+03  0.50000000000E+03  0.00000000000E+00 0. -1.
        -11    1    1    2    0    0 -0.88140723188E+02  0.40204182895E+02  0.47667032093E+03  0.48641521180E+03  0.00000000000E+00 0.  1.
         11    1    1    2    0    0  0.86003627734E+02  0.14066217269E+02 -0.10086774253E+03  0.13329960215E+03  0.00000000000E+00 0. -1.
        -15    1    1    2    0    0 -0.36345199762E+01 -0.34911093843E+02 -0.17731839674E+03  0.18076771216E+03  0.17770000000E+01 0.  1.
         15    1    1    2    0    0  0.57716154299E+01 -0.19359306321E+02 -0.19848418167E+03  0.19951747389E+03  0.17770000000E+01 0. -1.
</event>
<event>
 6    1  0.6564965E-004  0.5058911E+03  0.7546771E-02  0.9386724E-01
        -11   -1    0    0    0    0  0.00000000000E+00  0.00000000000E+00  0.50000000000E+03  0.50000000000E+03  0.00000000000E+00 0.  1.
         11   -1    0    0    0    0 -0.00000000000E+00 -0.00000000000E+00 -0.50000000000E+03  0.50000000000E+03  0.00000000000E+00 0.  1.
        -11    1    1    2    0    0 -0.25296420797E+01 -0.12976312599E+02  0.41601847302E+03  0.41622848734E+03  0.00000000000E+00 0.  1.
         11    1    1    2    0    0  0.84815596455E+00 -0.17790673570E+02 -0.49378781734E+03  0.49410893130E+03  0.00000000000E+00 0.  1.
        -15    1    1    2    0    0 -0.40290400113E+01  0.17660242708E+02  0.71795043209E+02  0.74066208856E+02  0.17770000000E+01 0. -1.
         15    1    1    2    0    0  0.57105261264E+01  0.13106743461E+02  0.59743011112E+01  0.15596372513E+02  0.17770000000E+01 0.  1.
</event>
<event>
 6    1  0.6564965E-004  0.5010269E+03  0.7546771E-02  0.9397515E-01
        -11   -1    0    0    0    0  0.00000000000E+00  0.00000000000E+00  0.50000000000E+03  0.50000000000E+03  0.00000000000E+00 0.  1.
         11   -1    0    0    0    0 -0.00000000000E+00 -0.00000000000E+00 -0.50000000000E+03  0.50000000000E+03  0.00000000000E+00 0. -1.
        -11    1    1    2    0    0 -0.13185922076E+01 -0.92199781661E+01  0.48165194803E+03  0.48174199082E+03  0.00000000000E+00 0.  1.
         11    1    1    2    0    0 -0.52062808057E+01  0.69684659614E+01 -0.49889724117E+03  0.49897306753E+03  0.00000000000E+00 0. -1.
        -15    1    1    2    0    0  0.18982548812E+01  0.12341565929E+01  0.10284446279E+02  0.10679610403E+02  0.17770000000E+01 0. -1.
         15    1    1    2    0    0  0.46266181321E+01  0.10173556119E+01  0.69608468611E+01  0.86053312431E+01  0.17770000000E+01 0.  1.
</event>
<event>
 6    1  0.6564965E-004  0.5059525E+03  0.7546771E-02  0.9386588E-01
        -11   -1    0    0    0    0  0.00000000000E+00  0.00000000000E+00  0.50000000000E+03  0.50000000000E+03  0.00000000000E+00 0.  1.
         11   -1    0    0    0    0 -0.00000000000E+00 -0.00000000000E+00 -0.50000000000E+03  0.50000000000E+03  0.00000000000E+00 0. -1.
        -11    1    1    2    0    0  0.38056590320E+01 -0.18137636742E+02  0.49369973669E+03  0.49404745412E+03  0.00000000000E+00 0.  1.
         11    1    1    2    0    0  0.42189560219E+01  0.71578714594E+01 -0.47596157220E+03  0.47603408798E+03  0.00000000000E+00 0. -1.
        -15    1    1    2    0    0 -0.26467780614E+01 -0.51732408284E+01 -0.13580482048E+01  0.62265462900E+01  0.17770000000E+01 0. -1.
         15    1    1    2    0    0 -0.53778369925E+01  0.16153006111E+02 -0.16380116292E+02  0.23691911613E+02  0.17770000000E+01 0.  1.
</event>
<event>
 6    1  0.6564965E-004  0.5008418E+03  0.7546771E-02  0.9397928E-01
        -11   -1    0    0    0    0  0.00000000000E+00  0.00000000000E+00  0.50000000000E+03  0.50000000000E+03  0.00000000000E+00 0.  1.
         11   -1    0    0    0    0 -0.00000000000E+00 -0.00000000000E+00 -0.50000000000E+03  0.50000000000E+03  0.00000000000E+00 0. -1.
        -11    1    1    2    0    0  0.20645682324E+02  0.15998926315E+02  0.49847435471E+03  0.49915818349E+03  0.00000000000E+00 0.  1.
         11    1    1    2    0    0 -0.13780715556E+01 -0.15225855304E+01 -0.13251503582E+03  0.13253094758E+03  0.00000000000E+00 0. -1.
        -15    1    1    2    0    0 -0.28769453792E+02 -0.13269434605E+02 -0.28929952204E+03  0.29103458652E+03  0.17770000000E+01 0. -1.
         15    1    1    2    0    0  0.95018430230E+01 -0.12069061803E+01 -0.76659796839E+02  0.77276282414E+02  0.17770000000E+01 0.  1.
</event>
<event>
 6    1  0.6564965E-004  0.5055172E+03  0.7546771E-02  0.9387548E-01
        -11   -1    0    0    0    0  0.00000000000E+00  0.00000000000E+00  0.50000000000E+03  0.50000000000E+03  0.00000000000E+00 0.  1.
         11   -1    0    0    0    0 -0.00000000000E+00 -0.00000000000E+00 -0.50000000000E+03  0.50000000000E+03  0.00000000000E+00 0.  1.
        -11    1    1    2    0    0  0.58706033207E+01 -0.10082802305E+02  0.48137776018E+03  0.48151913241E+03  0.00000000000E+00 0.  1.
         11    1    1    2    0    0 -0.19078385252E+01  0.81108630332E+01 -0.49441257304E+03  0.49448277859E+03  0.00000000000E+00 0.  1.
        -15    1    1    2    0    0  0.36174148246E+01 -0.51259298809E+01 -0.84230018159E+00  0.65748038566E+01  0.17770000000E+01 0. -1.
         15    1    1    2    0    0 -0.75801796202E+01  0.70978691526E+01  0.13877113042E+02  0.17423285137E+02  0.17770000000E+01 0.  1.
</event>
<event>
 6    1  0.6564965E-004  0.5010492E+03  0.7546771E-02  0.9397465E-01
        -11   -1    0    0    0    0  0.00000000000E+00  0.00000000000E+00  0.50000000000E+03  0.50000000000E+03  0.00000000000E+00 0.  1.
         11   -1    0    0    0    0 -0.00000000000E+00 -0.00000000000E+00 -0.50000000000E+03  0.50000000000E+03  0.00000000000E+00 0.  1.
        -11    1    1    2    0    0  0.61705039443E+01  0.11248295715E+01 -0.39207971180E+01  0.73968243546E+01  0.00000000000E+00 0.  1.
         11    1    1    2    0    0 -0.10447813731E+02 -0.41458769156E+01 -0.49352442486E+03  0.49365241116E+03  0.00000000000E+00 0.  1.
        -15    1    1    2    0    0  0.11392374124E+02 -0.13323224065E+02  0.14773257321E+03  0.14877958665E+03  0.17770000000E+01 0. -1.
         15    1    1    2    0    0 -0.71150643372E+01  0.16344271409E+02  0.34971264877E+03  0.35017117784E+03  0.17770000000E+01 0.  1.
</event>
<event>
 6    1  0.6564965E-004  0.5003519E+03  0.7546771E-02  0.9399023E-01
        -11   -1    0    0    0    0  0.00000000000E+00  0.00000000000E+00  0.50000000000E+03  0.50000000000E+03  0.00000000000E+00 0.  1.
         11   -1    0    0    0    0 -0.00000000000E+00 -0.00000000000E+00 -0.50000000000E+03  0.50000000000E+03  0.00000000000E+00 0.  1.
        -11    1    1    2    0    0 -0.10617722790E+02 -0.19401082989E+01  0.20844551025E+03  0.20872477285E+03  0.00000000000E+00 0.  1.
         11    1    1    2    0    0  0.91915236051E+01  0.61550897282E+01 -0.49952566814E+03  0.49964813856E+03  0.00000000000E+00 0.  1.
        -15    1    1    2    0    0 -0.24134927492E+01 -0.60611863896E+01  0.26823483072E+03  0.26832004224E+03  0.17770000000E+01 0.  1.
         15    1    1    2    0    0  0.38396919342E+01  0.18462049603E+01  0.22845327177E+02  0.23307046354E+02  0.17770000000E+01 0. -1.
</event>
<event>
 6    1  0.6564965E-004  0.5183921E+03  0.7546771E-02  0.9359571E-01
        -11   -1    0    0    0    0  0.00000000000E+00  0.00000000000E+00  0.50000000000E+03  0.50000000000E+03  0.00000000000E+00 0. -1.
         11   -1    0    0    0    0 -0.00000000000E+00 -0.00000000000E+00 -0.50000000000E+03  0.50000000000E+03  0.00000000000E+00 0.  1.
        -11    1    1    2    0    0 -0.11114287253E+02  0.14911648949E+02  0.46706494015E+03  0.46743506819E+03  0.00000000000E+00 0. -1.
         11    1    1    2    0    0  0.27597091101E+02 -0.29713576475E+02 -0.47989759150E+03  0.48160792601E+03  0.00000000000E+00 0.  1.
        -15    1    1    2    0    0 -0.86477016881E+01 -0.82281545089E+01 -0.11380780044E+02  0.16588102800E+02  0.17770000000E+01 0. -1.
         15    1    1    2    0    0 -0.78351021600E+01  0.23030082035E+02  0.24213431394E+02  0.34368902998E+02  0.17770000000E+01 0.  1.
</event>
<event>
 6    1  0.6564965E-004  0.5002352E+03  0.7546771E-02  0.9399284E-01
        -11   -1    0    0    0    0  0.00000000000E+00  0.00000000000E+00  0.50000000000E+03  0.50000000000E+03  0.00000000000E+00 0.  1.
         11   -1    0    0    0    0 -0.00000000000E+00 -0.00000000000E+00 -0.50000000000E+03  0.50000000000E+03  0.00000000000E+00 0.  1.
        -11    1    1    2    0    0  0.61482323104E+01  0.69285278942E+01  0.66255397681E+02  0.66899798065E+02  0.00000000000E+00 0.  1.
         11    1    1    2    0    0 -0.42373898847E+01 -0.21351201950E+02 -0.49929056081E+03  0.49976483811E+03  0.00000000000E+00 0.  1.
        -15    1    1    2    0    0 -0.82203131177E-01  0.64189546007E+00  0.32396071884E+02  0.32451224779E+02  0.17770000000E+01 0.  1.
         15    1    1    2    0    0 -0.18286392945E+01  0.13780778595E+02  0.40063909124E+03  0.40088413905E+03  0.17770000000E+01 0.  1.
</event>
<event>
 6    1  0.6564965E-004  0.5022305E+03  0.7546771E-02  0.9394832E-01
        -11   -1    0    0    0    0  0.00000000000E+00  0.00000000000E+00  0.50000000000E+03  0.50000000000E+03  0.00000000000E+00 0. -1.
         11   -1    0    0    0    0 -0.00000000000E+00 -0.00000000000E+00 -0.50000000000E+03  0.50000000000E+03  0.00000000000E+00 0.  1.
        -11    1    1    2    0    0  0.14294771626E+02  0.12332390467E+02  0.49741129782E+03  0.49776945221E+03  0.00000000000E+00 0. -1.
         11    1    1    2    0    0  0.10630780664E+02 -0.51716214080E+01 -0.40751629166E+03  0.40768773238E+03  0.00000000000E+00 0.  1.
        -15    1    1    2    0    0 -0.91867686996E+01 -0.90975087524E+01 -0.34140819040E+02  0.36550166051E+02  0.17770000000E+01 0. -1.
         15    1    1    2    0    0 -0.15738783591E+02  0.19367396937E+01 -0.55754187120E+02  0.57992649361E+02  0.17770000000E+01 0.  1.
</event>
<event>
 6    1  0.6564965E-004  0.5053753E+03  0.7546771E-02  0.9387862E-01
        -11   -1    0    0    0    0  0.00000000000E+00  0.00000000000E+00  0.50000000000E+03  0.50000000000E+03  0.00000000000E+00 0.  1.
         11   -1    0    0    0    0 -0.00000000000E+00 -0.00000000000E+00 -0.50000000000E+03  0.50000000000E+03  0.00000000000E+00 0. -1.
        -11    1    1    2    0    0  0.30867374193E+01 -0.20267132760E+02  0.46838814029E+03  0.46883657556E+03  0.00000000000E+00 0.  1.
         11    1    1    2    0    0 -0.75593438180E+01 -0.88696864191E+00 -0.49456611014E+03  0.49462467356E+03  0.00000000000E+00 0. -1.
        -15    1    1    2    0    0  0.16770112654E+01  0.59475728373E+01  0.41930957580E+00  0.64435657023E+01  0.17770000000E+01 0.  1.
         15    1    1    2    0    0  0.27955951332E+01  0.15206528565E+02  0.25758660269E+02  0.30095185180E+02  0.17770000000E+01 0. -1.
</event>
<event>
 6    1  0.6564965E-004  0.4869517E+03  0.7546771E-02  0.9429489E-01
        -11   -1    0    0    0    0  0.00000000000E+00  0.00000000000E+00  0.50000000000E+03  0.50000000000E+03  0.00000000000E+00 0. -1.
         11   -1    0    0    0    0 -0.00000000000E+00 -0.00000000000E+00 -0.50000000000E+03  0.50000000000E+03  0.00000000000E+00 0.  1.
        -11    1    1    2    0    0 -0.16946440064E+02  0.51942036344E+01  0.49156325020E+03  0.49188269997E+03  0.00000000000E+00 0. -1.
         11    1    1    2    0    0 -0.68638545674E+00  0.83245066881E+01 -0.48224635462E+03  0.48231868623E+03  0.00000000000E+00 0.  1.
        -15    1    1    2    0    0  0.62383919092E+00 -0.18563126977E+01  0.79476490675E+00  0.27612411022E+01  0.17770000000E+01 0. -1.
         15    1    1    2    0    0  0.17008986330E+02 -0.11662397625E+02 -0.10111660483E+02  0.23037372702E+02  0.17770000000E+01 0.  1.
</event>
<event>
 6    1  0.6564965E-004  0.5003810E+03  0.7546771E-02  0.9398958E-01
        -11   -1    0    0    0    0  0.00000000000E+00  0.00000000000E+00  0.50000000000E+03  0.50000000000E+03  0.00000000000E+00 0.  1.
         11   -1    0    0    0    0 -0.00000000000E+00 -0.00000000000E+00 -0.50000000000E+03  0.50000000000E+03  0.00000000000E+00 0.  1.
        -11    1    1    2    0    0  0.84370926388E+01  0.12817278013E+02  0.13583432901E+03  0.13669832510E+03  0.00000000000E+00 0.  1.
         11    1    1    2    0    0  0.16516102702E+00 -0.17467481121E+02 -0.49931350846E+03  0.49961897473E+03  0.00000000000E+00 0.  1.
        -15    1    1    2    0    0 -0.61076484597E+01  0.73845832025E+00  0.26593052405E+03  0.26600761275E+03  0.17770000000E+01 0.  1.
         15    1    1    2    0    0 -0.24946052061E+01  0.39117447883E+01  0.97548655405E+02  0.97675087421E+02  0.17770000000E+01 0. -1.
</event>
<event>
 6    1  0.6564965E-004  0.5002028E+03  0.7546771E-02  0.9399356E-01
        -11   -1    0    0    0    0  0.00000000000E+00  0.00000000000E+00  0.50000000000E+03  0.50000000000E+03  0.00000000000E+00 0.  1.
         11   -1    0    0    0    0 -0.00000000000E+00 -0.00000000000E+00 -0.50000000000E+03  0.50000000000E+03  0.00000000000E+00 0.  1.
        -11    1    1    2    0    0 -0.67728955305E+01 -0.49188800620E-01  0.12067115592E+03  0.12086108722E+03  0.00000000000E+00 0.  1.
         11    1    1    2    0    0  0.15336187367E+02  0.53080695398E+01 -0.49953361667E+03  0.49979716728E+03  0.00000000000E+00 0.  1.
        -15    1    1    2    0    0 -0.44154995837E+01 -0.70421142247E+01  0.34769516302E+03  0.34779903986E+03  0.17770000000E+01 0.  1.
         15    1    1    2    0    0 -0.41477922527E+01  0.17832334855E+01  0.31167297723E+02  0.31542705632E+02  0.17770000000E+01 0. -1.
</event>
<event>
 6    1  0.6564965E-004  0.5001234E+03  0.7546771E-02  0.9399534E-01
        -11   -1    0    0    0    0  0.00000000000E+00  0.00000000000E+00  0.50000000000E+03  0.50000000000E+03  0.00000000000E+00 0.  1.
         11   -1    0    0    0    0 -0.00000000000E+00 -0.00000000000E+00 -0.50000000000E+03  0.50000000000E+03  0.00000000000E+00 0. -1.
        -11    1    1    2    0    0 -0.96077591577E+01  0.14944990832E+01  0.49978197976E+03  0.49987655462E+03  0.00000000000E+00 0.  1.
         11    1    1    2    0    0  0.34976908034E+01  0.29914630725E+01 -0.16885057558E+03  0.16891329008E+03  0.00000000000E+00 0. -1.
        -15    1    1    2    0    0  0.45877669602E+00 -0.28158796638E+01 -0.25965088721E+02  0.26181734389E+02  0.17770000000E+01 0. -1.
         15    1    1    2    0    0  0.56512916583E+01 -0.16700824919E+01 -0.30496631546E+03  0.30502842091E+03  0.17770000000E+01 0. -1.
</event>
<event>
 6    1  0.6564965E-004  0.5004311E+03  0.7546771E-02  0.9398846E-01
        -11   -1    0    0    0    0  0.00000000000E+00  0.00000000000E+00  0.50000000000E+03  0.50000000000E+03  0.00000000000E+00 0. -1.
         11   -1    0    0    0    0 -0.00000000000E+00 -0.00000000000E+00 -0.50000000000E+03  0.50000000000E+03  0.00000000000E+00 0.  1.
        -11    1    1    2    0    0  0.87593634513E+01  0.14162630640E+02  0.17990211232E+03  0.18067118357E+03  0.00000000000E+00 0. -1.
         11    1    1    2    0    0 -0.12264187026E+02 -0.47958455019E+01 -0.49939528248E+03  0.49956887271E+03  0.00000000000E+00 0.  1.
        -15    1    1    2    0    0  0.14259516059E+01 -0.35863354654E+01  0.22972608719E+03  0.22976537599E+03  0.17770000000E+01 0. -1.
         15    1    1    2    0    0  0.20788719684E+01 -0.57804496723E+01  0.89767082969E+02  0.89994567729E+02  0.17770000000E+01 0.  1.
</event>
<event>
 6    1  0.6564965E-004  0.4883190E+03  0.7546771E-02  0.9426333E-01
        -11   -1    0    0    0    0  0.00000000000E+00  0.00000000000E+00  0.50000000000E+03  0.50000000000E+03  0.00000000000E+00 0. -1.
         11   -1    0    0    0    0 -0.00000000000E+00 -0.00000000000E+00 -0.50000000000E+03  0.50000000000E+03  0.00000000000E+00 0. -1.
        -11    1    1    2    0    0 -0.52739871402E+01  0.11367230396E+02  0.48599027409E+03  0.48615180281E+03  0.00000000000E+00 0. -1.
         11    1    1    2    0    0  0.29362572505E+01  0.97661289082E+01 -0.49062267881E+03  0.49072865399E+03  0.00000000000E+00 0. -1.
        -15    1    1    2    0    0  0.21832610632E+01 -0.15992094359E+02  0.63161524068E+01  0.17423123173E+02  0.17770000000E+01 0. -1.
         15    1    1    2    0    0  0.15446882647E+00 -0.51412649447E+01 -0.16837476873E+01  0.56964200271E+01  0.17770000000E+01 0.  1.
</event>
<event>
 6    1  0.6564965E-004  0.5013395E+03  0.7546771E-02  0.9396817E-01
        -11   -1    0    0    0    0  0.00000000000E+00  0.00000000000E+00  0.50000000000E+03  0.50000000000E+03  0.00000000000E+00 0.  1.
         11   -1    0    0    0    0 -0.00000000000E+00 -0.00000000000E+00 -0.50000000000E+03  0.50000000000E+03  0.00000000000E+00 0.  1.
        -11    1    1    2    0    0 -0.23527069151E+02 -0.67391082892E+01  0.49805955376E+03  0.49866046330E+03  0.00000000000E+00 0.  1.
         11    1    1    2    0    0 -0.22633043010E+01  0.52051996857E+01 -0.36891081233E+03  0.36895447430E+03  0.00000000000E+00 0.  1.
        -15    1    1    2    0    0  0.20536541904E+02 -0.29295424873E+01 -0.11005884311E+03  0.11201088540E+03  0.17770000000E+01 0.  1.
         15    1    1    2    0    0  0.52538315483E+01  0.44634510907E+01 -0.19089898318E+02  0.20374176998E+02  0.17770000000E+01 0. -1.
</event>
<event>
 6    1  0.6564965E-004  0.5019685E+03  0.7546771E-02  0.9395416E-01
        -11   -1    0    0    0    0  0.00000000000E+00  0.00000000000E+00  0.50000000000E+03  0.50000000000E+03  0.00000000000E+00 0. -1.
         11   -1    0    0    0    0 -0.00000000000E+00 -0.00000000000E+00 -0.50000000000E+03  0.50000000000E+03  0.00000000000E+00 0. -1.
        -11    1    1    2    0    0  0.68912116976E+02 -0.28230676261E+02  0.30022533277E+03  0.30932361918E+03  0.00000000000E+00 0. -1.
         11    1    1    2    0    0 -0.64813885632E+02  0.32581519569E+02 -0.49271994313E+03  0.49803146241E+03  0.00000000000E+00 0. -1.
        -15    1    1    2    0    0 -0.29197747685E+01 -0.42737198606E+01  0.13627510044E+03  0.13638493500E+03  0.17770000000E+01 0.  1.
         15    1    1    2    0    0 -0.11784565754E+01 -0.77123446480E-01  0.56219509926E+02  0.56259983410E+02  0.17770000000E+01 0.  1.
</event>
<event>
 6    1  0.6564965E-004  0.5095530E+03  0.7546771E-02  0.9378684E-01
        -11   -1    0    0    0    0  0.00000000000E+00  0.00000000000E+00  0.50000000000E+03  0.50000000000E+03  0.00000000000E+00 0.  1.
         11   -1    0    0    0    0 -0.00000000000E+00 -0.00000000000E+00 -0.50000000000E+03  0.50000000000E+03  0.00000000000E+00 0.  1.
        -11    1    1    2    0    0  0.22952626037E+02 -0.87213191007E+01  0.40783008623E+03  0.40856855445E+03  0.00000000000E+00 0.  1.
         11    1    1    2    0    0  0.35424048121E+00  0.69597197744E+01 -0.49039751291E+03  0.49044702452E+03  0.00000000000E+00 0.  1.
        -15    1    1    2    0    0  0.30019665504E+01  0.35909725235E+01  0.72542472095E+02  0.72715025088E+02  0.17770000000E+01 0.  1.
         15    1    1    2    0    0 -0.26308833069E+02 -0.18293731971E+01  0.10024954585E+02  0.28269395946E+02  0.17770000000E+01 0. -1.
</event>
<event>
 6    1  0.6564965E-004  0.5020371E+03  0.7546771E-02  0.9395263E-01
        -11   -1    0    0    0    0  0.00000000000E+00  0.00000000000E+00  0.50000000000E+03  0.50000000000E+03  0.00000000000E+00 0.  1.
         11   -1    0    0    0    0 -0.00000000000E+00 -0.00000000000E+00 -0.50000000000E+03  0.50000000000E+03  0.00000000000E+00 0.  1.
        -11    1    1    2    0    0  0.95771371193E+01 -0.82348589607E+01  0.46794143848E+03  0.46811187157E+03  0.00000000000E+00 0.  1.
         11    1    1    2    0    0  0.19457890068E+01  0.69152653700E+01 -0.49791105564E+03  0.49796287644E+03  0.00000000000E+00 0.  1.
        -15    1    1    2    0    0 -0.36145353306E+01 -0.27018659301E+01  0.19468739432E+02  0.20063760595E+02  0.17770000000E+01 0. -1.
         15    1    1    2    0    0 -0.79083907956E+01  0.40214595207E+01  0.10500877719E+02  0.13861491388E+02  0.17770000000E+01 0.  1.
</event>
<event>
 6    1  0.6564965E-004  0.5012934E+03  0.7546771E-02  0.9396920E-01
        -11   -1    0    0    0    0  0.00000000000E+00  0.00000000000E+00  0.50000000000E+03  0.50000000000E+03  0.00000000000E+00 0.  1.
         11   -1    0    0    0    0 -0.00000000000E+00 -0.00000000000E+00 -0.50000000000E+03  0.50000000000E+03  0.00000000000E+00 0. -1.
        -11    1    1    2    0    0  0.34901956578E+01  0.12455351364E+02  0.38052504969E+03  0.38074483671E+03  0.00000000000E+00 0.  1.
         11    1    1    2    0    0  0.47937075265E+01  0.47568694999E+01 -0.49866087515E+03  0.49870660297E+03  0.00000000000E+00 0. -1.
        -15    1    1    2    0    0 -0.10161684467E+02 -0.16918760892E+02  0.83662455143E+02  0.85977139001E+02  0.17770000000E+01 0. -1.
         15    1    1    2    0    0  0.18777812830E+01 -0.29345997191E+00  0.34473370321E+02  0.34571421312E+02  0.17770000000E+01 0.  1.
</event>
<event>
 6    1  0.6564965E-004  0.5050368E+03  0.7546771E-02  0.9388609E-01
        -11   -1    0    0    0    0  0.00000000000E+00  0.00000000000E+00  0.50000000000E+03  0.50000000000E+03  0.00000000000E+00 0. -1.
         11   -1    0    0    0    0 -0.00000000000E+00 -0.00000000000E+00 -0.50000000000E+03  0.50000000000E+03  0.00000000000E+00 0.  1.
        -11    1    1    2    0    0  0.14111794133E+02  0.10148557949E+02  0.49465787560E+03  0.49496318031E+03  0.00000000000E+00 0. -1.
         11    1    1    2    0    0 -0.11019082413E+02  0.78270410835E+01 -0.48074758123E+03  0.48093754232E+03  0.00000000000E+00 0.  1.
        -15    1    1    2    0    0 -0.21340429876E+01 -0.14710735700E+02 -0.77934795457E+01  0.16877675691E+02  0.17770000000E+01 0.  1.
         15    1    1    2    0    0 -0.95866873290E+00 -0.32648633328E+01 -0.61168148258E+01  0.72216016876E+01  0.17770000000E+01 0. -1.
</event>
<event>
 6    1  0.6564965E-004  0.5023374E+03  0.7546771E-02  0.9394595E-01
        -11   -1    0    0    0    0  0.00000000000E+00  0.00000000000E+00  0.50000000000E+03  0.50000000000E+03  0.00000000000E+00 0.  1.
         11   -1    0    0    0    0 -0.00000000000E+00 -0.00000000000E+00 -0.50000000000E+03  0.50000000000E+03  0.00000000000E+00 0. -1.
        -11    1    1    2    0    0 -0.20000273164E+02  0.37077969829E+02  0.19113330515E+03  0.19572104412E+03  0.00000000000E+00 0.  1.
         11    1    1    2    0    0  0.37336157594E+02 -0.12409694846E+02 -0.49610492615E+03  0.49766262361E+03  0.00000000000E+00 0. -1.
        -15    1    1    2    0    0 -0.23865253396E+01 -0.44000849078E+00  0.40289201646E+02  0.40401319396E+02  0.17770000000E+01 0. -1.
         15    1    1    2    0    0 -0.14949359090E+02 -0.24228266492E+02  0.26468241935E+03  0.26621501287E+03  0.17770000000E+01 0.  1.
</event>
<event>
 6    1  0.6564965E-004  0.5020694E+03  0.7546771E-02  0.9395191E-01
        -11   -1    0    0    0    0  0.00000000000E+00  0.00000000000E+00  0.50000000000E+03  0.50000000000E+03  0.00000000000E+00 0. -1.
         11   -1    0    0    0    0 -0.00000000000E+00 -0.00000000000E+00 -0.50000000000E+03  0.50000000000E+03  0.00000000000E+00 0. -1.
        -11    1    1    2    0    0 -0.81635809002E+01  0.60311520714E+01  0.48189375532E+03  0.48200063305E+03  0.00000000000E+00 0. -1.
         11    1    1    2    0    0  0.78473365565E+01  0.23867588357E+01 -0.49786299733E+03  0.49793055883E+03  0.00000000000E+00 0. -1.
        -15    1    1    2    0    0 -0.67189959552E+00 -0.49518959590E+01  0.15035243392E+02  0.15943305665E+02  0.17770000000E+01 0.  1.
         15    1    1    2    0    0  0.98814393918E+00 -0.34660149481E+01  0.93399861475E+00  0.41255024515E+01  0.17770000000E+01 0. -1.
</event>
<event>
 6    1  0.6564965E-004  0.5216445E+03  0.7546771E-02  0.9352640E-01
        -11   -1    0    0    0    0  0.00000000000E+00  0.00000000000E+00  0.50000000000E+03  0.50000000000E+03  0.00000000000E+00 0. -1.
         11   -1    0    0    0    0 -0.00000000000E+00 -0.00000000000E+00 -0.50000000000E+03  0.50000000000E+03  0.00000000000E+00 0.  1.
        -11    1    1    2    0    0 -0.93989412690E+02 -0.37328953202E+02  0.73359579746E+02  0.12493633733E+03  0.00000000000E+00 0. -1.
         11    1    1    2    0    0  0.56757719566E+02  0.12452842385E+03 -0.45836148676E+03  0.47835553684E+03  0.00000000000E+00 0.  1.
        -15    1    1    2    0    0  0.23303023466E+01 -0.57997808841E+01  0.39490589804E+02  0.40021646385E+02  0.17770000000E+01 0.  1.
         15    1    1    2    0    0  0.34901390777E+02 -0.81399689767E+02  0.34551131721E+03  0.35668647945E+03  0.17770000000E+01 0. -1.
</event>
<event>
 6    1  0.6564965E-004  0.5025266E+03  0.7546771E-02  0.9394174E-01
        -11   -1    0    0    0    0  0.00000000000E+00  0.00000000000E+00  0.50000000000E+03  0.50000000000E+03  0.00000000000E+00 0. -1.
         11   -1    0    0    0    0 -0.00000000000E+00 -0.00000000000E+00 -0.50000000000E+03  0.50000000000E+03  0.00000000000E+00 0.  1.
        -11    1    1    2    0    0  0.15375174365E+01 -0.14235835565E+02  0.47925231090E+03  0.47946616197E+03  0.00000000000E+00 0. -1.
         11    1    1    2    0    0  0.59132227324E+01  0.66229177225E+01 -0.49739414485E+03  0.49747338077E+03  0.00000000000E+00 0.  1.
        -15    1    1    2    0    0 -0.86621290322E+01  0.72659515888E+01  0.12181308551E+02  0.16714321370E+02  0.17770000000E+01 0. -1.
         15    1    1    2    0    0  0.12113888633E+01  0.34696625368E+00  0.59605254071E+01  0.63461358864E+01  0.17770000000E+01 0.  1.
</event>
<event>
 6    1  0.6564965E-004  0.5005063E+03  0.7546771E-02  0.9398678E-01
        -11   -1    0    0    0    0  0.00000000000E+00  0.00000000000E+00  0.50000000000E+03  0.50000000000E+03  0.00000000000E+00 0.  1.
         11   -1    0    0    0    0 -0.00000000000E+00 -0.00000000000E+00 -0.50000000000E+03  0.50000000000E+03  0.00000000000E+00 0.  1.
        -11    1    1    2    0    0 -0.75567164631E+00 -0.51747510880E+01  0.15371106341E+02  0.16236378864E+02  0.00000000000E+00 0.  1.
         11    1    1    2    0    0 -0.66776260362E+01  0.66282881592E+01 -0.49940511093E+03  0.49949373341E+03  0.00000000000E+00 0.  1.
        -15    1    1    2    0    0  0.20501961186E+01 -0.64546818927E+01  0.16861962329E+03  0.16876492915E+03  0.17770000000E+01 0. -1.
         15    1    1    2    0    0  0.53831015639E+01  0.50011448214E+01  0.31541438130E+03  0.31550495858E+03  0.17770000000E+01 0.  1.
</event>
<event>
 6    1  0.6564965E-004  0.4906658E+03  0.7546771E-02  0.9420941E-01
        -11   -1    0    0    0    0  0.00000000000E+00  0.00000000000E+00  0.50000000000E+03  0.50000000000E+03  0.00000000000E+00 0.  1.
         11   -1    0    0    0    0 -0.00000000000E+00 -0.00000000000E+00 -0.50000000000E+03  0.50000000000E+03  0.00000000000E+00 0.  1.
        -11    1    1    2    0    0 -0.33978673016E+01 -0.14249648916E+02  0.49341156272E+03  0.49362897831E+03  0.00000000000E+00 0.  1.
         11    1    1    2    0    0 -0.86728234379E+01  0.37073711903E+01 -0.48775857827E+03  0.48784976493E+03  0.00000000000E+00 0.  1.
        -15    1    1    2    0    0  0.15564861536E+01 -0.34364277874E+00 -0.53533033530E+00  0.24464355854E+01  0.17770000000E+01 0. -1.
         15    1    1    2    0    0  0.10514204586E+02  0.10885920505E+02 -0.51176541203E+01  0.16074821181E+02  0.17770000000E+01 0.  1.
</event>
<event>
 6    1  0.6564965E-004  0.5106975E+03  0.7546771E-02  0.9376186E-01
        -11   -1    0    0    0    0  0.00000000000E+00  0.00000000000E+00  0.50000000000E+03  0.50000000000E+03  0.00000000000E+00 0.  1.
         11   -1    0    0    0    0 -0.00000000000E+00 -0.00000000000E+00 -0.50000000000E+03  0.50000000000E+03  0.00000000000E+00 0. -1.
        -11    1    1    2    0    0 -0.28273878768E+01 -0.47056135378E+02  0.38820979016E+03  0.39106152352E+03  0.00000000000E+00 0.  1.
         11    1    1    2    0    0  0.23854938799E+02 -0.74386180871E+01 -0.48866406771E+03  0.48930252627E+03  0.00000000000E+00 0. -1.
        -15    1    1    2    0    0 -0.19265594979E+02  0.16675497513E+02  0.28225858303E+02  0.38066943312E+02  0.17770000000E+01 0. -1.
         15    1    1    2    0    0 -0.17619559432E+01  0.37819255953E+02  0.72228419252E+02  0.81569006898E+02  0.17770000000E+01 0.  1.
</event>
<event>
 6    1  0.6564965E-004  0.4861437E+03  0.7546771E-02  0.9431359E-01
        -11   -1    0    0    0    0  0.00000000000E+00  0.00000000000E+00  0.50000000000E+03  0.50000000000E+03  0.00000000000E+00 0. -1.
         11   -1    0    0    0    0 -0.00000000000E+00 -0.00000000000E+00 -0.50000000000E+03  0.50000000000E+03  0.00000000000E+00 0. -1.
        -11    1    1    2    0    0  0.10463146753E+02  0.90922498150E+01  0.48445545503E+03  0.48465372624E+03  0.00000000000E+00 0. -1.
         11    1    1    2    0    0  0.92245568804E+01  0.45430764681E+00 -0.48779819772E+03  0.48788562240E+03  0.00000000000E+00 0. -1.
        -15    1    1    2    0    0 -0.68389923887E+01 -0.77793899634E+00 -0.59356946177E+01  0.92610585556E+01  0.17770000000E+01 0. -1.
         15    1    1    2    0    0 -0.12848711244E+02 -0.87686184654E+01  0.92784373114E+01  0.18199592808E+02  0.17770000000E+01 0.  1.
</event>
<event>
 6    1  0.6564965E-004  0.5011118E+03  0.7546771E-02  0.9397325E-01
        -11   -1    0    0    0    0  0.00000000000E+00  0.00000000000E+00  0.50000000000E+03  0.50000000000E+03  0.00000000000E+00 0. -1.
         11   -1    0    0    0    0 -0.00000000000E+00 -0.00000000000E+00 -0.50000000000E+03  0.50000000000E+03  0.00000000000E+00 0.  1.
        -11    1    1    2    0    0 -0.83014692777E+01 -0.15318272819E+02  0.36356668451E+03  0.36398392541E+03  0.00000000000E+00 0. -1.
         11    1    1    2    0    0  0.18182557313E+01  0.12661375238E+02 -0.49872418630E+03  0.49888819436E+03  0.00000000000E+00 0.  1.
        -15    1    1    2    0    0  0.37608796219E+01 -0.69151839928E+01  0.20585037331E+02  0.22110302488E+02  0.17770000000E+01 0.  1.
         15    1    1    2    0    0  0.27223339246E+01  0.95720815736E+01  0.11457246446E+03  0.11501757774E+03  0.17770000000E+01 0. -1.
</event>
<event>
 6    1  0.6564965E-004  0.5010643E+03  0.7546771E-02  0.9397431E-01
        -11   -1    0    0    0    0  0.00000000000E+00  0.00000000000E+00  0.50000000000E+03  0.50000000000E+03  0.00000000000E+00 0.  1.
         11   -1    0    0    0    0 -0.00000000000E+00 -0.00000000000E+00 -0.50000000000E+03  0.50000000000E+03  0.00000000000E+00 0. -1.
        -11    1    1    2    0    0 -0.79337307355E+01  0.12264746402E+02  0.49872179602E+03  0.49893566510E+03  0.00000000000E+00 0.  1.
         11    1    1    2    0    0  0.77829243437E+01  0.66938647260E+01 -0.38950941745E+03  0.38964466892E+03  0.00000000000E+00 0. -1.
        -15    1    1    2    0    0 -0.11153052175E+01 -0.39324295325E+01 -0.53180407188E+02  0.53366856244E+02  0.17770000000E+01 0. -1.
         15    1    1    2    0    0  0.12661116092E+01 -0.15026181596E+02 -0.56031971383E+02  0.58052809734E+02  0.17770000000E+01 0.  1.
</event>
<event>
 6    1  0.6564965E-004  0.5029526E+03  0.7546771E-02  0.9393227E-01
        -11   -1    0    0    0    0  0.00000000000E+00  0.00000000000E+00  0.50000000000E+03  0.50000000000E+03  0.00000000000E+00 0.  1.
         11   -1    0    0    0    0 -0.00000000000E+00 -0.00000000000E+00 -0.50000000000E+03  0.50000000000E+03  0.00000000000E+00 0. -1.
        -11    1    1    2    0    0  0.13364941945E+02  0.72106839816E+01  0.49681532909E+03  0.49704736883E+03  0.00000000000E+00 0.  1.
         11    1    1    2    0    0 -0.51247365504E+01 -0.11342860429E+02 -0.45234548461E+03  0.45251669677E+03  0.00000000000E+00 0. -1.
        -15    1    1    2    0    0  0.47490238579E+01  0.77398872885E+01 -0.25253697791E+02  0.26895465491E+02  0.17770000000E+01 0. -1.
         15    1    1    2    0    0 -0.12989229252E+02 -0.36077108415E+01 -0.19216146688E+02  0.23540468912E+02  0.17770000000E+01 0.  1.
</event>
<event>
 6    1  0.6564965E-004  0.5012317E+03  0.7546771E-02  0.9397058E-01
        -11   -1    0    0    0    0  0.00000000000E+00  0.00000000000E+00  0.50000000000E+03  0.50000000000E+03  0.00000000000E+00 0. -1.
         11   -1    0    0    0    0 -0.00000000000E+00 -0.00000000000E+00 -0.50000000000E+03  0.50000000000E+03  0.00000000000E+00 0. -1.
        -11    1    1    2    0    0  0.16413216126E+02  0.13324188551E+02  0.49832008762E+03  0.49876832036E+03  0.00000000000E+00 0. -1.
         11    1    1    2    0    0 -0.32764864689E+01  0.45463117886E+01 -0.40188992580E+03  0.40192899469E+03  0.00000000000E+00 0. -1.
        -15    1    1    2    0    0 -0.67739556610E+01 -0.40546629539E+01 -0.41286096187E+02  0.42071679719E+02  0.17770000000E+01 0.  1.
         15    1    1    2    0    0 -0.63627739963E+01 -0.13815837386E+02 -0.55144065635E+02  0.57231005228E+02  0.17770000000E+01 0. -1.
</event>
<event>
 6    1  0.6564965E-004  0.5035657E+03  0.7546771E-02  0.9391866E-01
        -11   -1    0    0    0    0  0.00000000000E+00  0.00000000000E+00  0.50000000000E+03  0.50000000000E+03  0.00000000000E+00 0. -1.
         11   -1    0    0    0    0 -0.00000000000E+00 -0.00000000000E+00 -0.50000000000E+03  0.50000000000E+03  0.00000000000E+00 0.  1.
        -11    1    1    2    0    0 -0.15930731854E+02 -0.47635104728E+02  0.49388671273E+03  0.49643426194E+03  0.00000000000E+00 0. -1.
         11    1    1    2    0    0 -0.54663635703E+01  0.48714964830E+01 -0.30891734842E+03  0.30900411125E+03  0.00000000000E+00 0.  1.
        -15    1    1    2    0    0  0.73113453200E+01  0.44309345632E+02 -0.15462958819E+03  0.16102869667E+03  0.17770000000E+01 0.  1.
         15    1    1    2    0    0  0.14085750104E+02 -0.15457373862E+01 -0.30339776117E+02  0.33532930142E+02  0.17770000000E+01 0. -1.
</event>
<event>
 6    1  0.6564965E-004  0.5068185E+03  0.7546771E-02  0.9384681E-01
        -11   -1    0    0    0    0  0.00000000000E+00  0.00000000000E+00  0.50000000000E+03  0.50000000000E+03  0.00000000000E+00 0. -1.
         11   -1    0    0    0    0 -0.00000000000E+00 -0.00000000000E+00 -0.50000000000E+03  0.50000000000E+03  0.00000000000E+00 0. -1.
        -11    1    1    2    0    0  0.70734384435E+02 -0.26267839778E+01  0.48807549689E+03  0.49318145119E+03  0.00000000000E+00 0. -1.
         11    1    1    2    0    0  0.10466065839E+02 -0.90054819750E+01 -0.23348348640E+03  0.23389137578E+03  0.00000000000E+00 0. -1.
        -15    1    1    2    0    0 -0.64715599527E+02 -0.13487880544E+02 -0.14671702796E+03  0.16093189791E+03  0.17770000000E+01 0. -1.
         15    1    1    2    0    0 -0.16484850746E+02  0.25120146496E+02 -0.10787498253E+03  0.11199527512E+03  0.17770000000E+01 0.  1.
</event>
<event>
 6    1  0.6564965E-004  0.5006365E+03  0.7546771E-02  0.9398387E-01
        -11   -1    0    0    0    0  0.00000000000E+00  0.00000000000E+00  0.50000000000E+03  0.50000000000E+03  0.00000000000E+00 0.  1.
         11   -1    0    0    0    0 -0.00000000000E+00 -0.00000000000E+00 -0.50000000000E+03  0.50000000000E+03  0.00000000000E+00 0. -1.
        -11    1    1    2    0    0 -0.50464240560E+01  0.12478190325E+02  0.49918201857E+03  0.49936345410E+03  0.00000000000E+00 0.  1.
         11    1    1    2    0    0 -0.52410100351E+01  0.47346239066E+01 -0.28529478792E+03  0.28538220138E+03  0.00000000000E+00 0. -1.
        -15    1    1    2    0    0  0.48080827825E+01 -0.15787490997E+01 -0.21970096663E+02  0.22615326332E+02  0.17770000000E+01 0. -1.
         15    1    1    2    0    0  0.54793513086E+01 -0.15634065132E+02 -0.19191713398E+03  0.19263901819E+03  0.17770000000E+01 0.  1.
</event>
<event>
 6    1  0.6564965E-004  0.5050535E+03  0.7546771E-02  0.9388573E-01
        -11   -1    0    0    0    0  0.00000000000E+00  0.00000000000E+00  0.50000000000E+03  0.50000000000E+03  0.00000000000E+00 0.  1.
         11   -1    0    0    0    0 -0.00000000000E+00 -0.00000000000E+00 -0.50000000000E+03  0.50000000000E+03  0.00000000000E+00 0.  1.
        -11    1    1    2    0    0  0.57085847862E+01  0.31790342460E+02  0.40171699153E+03  0.40301334357E+03  0.00000000000E+00 0.  1.
         11    1    1    2    0    0  0.17347979216E+02 -0.18682740377E+01 -0.49463884115E+03  0.49494648803E+03  0.00000000000E+00 0.  1.
        -15    1    1    2    0    0 -0.81402182939E+01 -0.11303989247E+02  0.58232780297E+02  0.59902068052E+02  0.17770000000E+01 0. -1.
         15    1    1    2    0    0 -0.14916345708E+02 -0.18618079175E+02  0.34689069330E+02  0.42138100354E+02  0.17770000000E+01 0.  1.
</event>
<event>
 6    1  0.6564965E-004  0.5048631E+03  0.7546771E-02  0.9388993E-01
        -11   -1    0    0    0    0  0.00000000000E+00  0.00000000000E+00  0.50000000000E+03  0.50000000000E+03  0.00000000000E+00 0.  1.
         11   -1    0    0    0    0 -0.00000000000E+00 -0.00000000000E+00 -0.50000000000E+03  0.50000000000E+03  0.00000000000E+00 0. -1.
        -11    1    1    2    0    0  0.86010974703E+01 -0.10895174140E+02  0.48319751424E+03  0.48339685711E+03  0.00000000000E+00 0.  1.
         11    1    1    2    0    0  0.60824567587E+01  0.30925177908E+01 -0.49508986204E+03  0.49513688152E+03  0.00000000000E+00 0. -1.
        -15    1    1    2    0    0 -0.87054177548E+01  0.56876224609E+01  0.10183348153E+02  0.14662593773E+02  0.17770000000E+01 0.  1.
         15    1    1    2    0    0 -0.59781364741E+01  0.21150338880E+01  0.17089996483E+01  0.68036676027E+01  0.17770000000E+01 0. -1.
</event>
<event>
 6    1  0.6564965E-004  0.5001202E+03  0.7546771E-02  0.9399541E-01
        -11   -1    0    0    0    0  0.00000000000E+00  0.00000000000E+00  0.50000000000E+03  0.50000000000E+03  0.00000000000E+00 0.  1.
         11   -1    0    0    0    0 -0.00000000000E+00 -0.00000000000E+00 -0.50000000000E+03  0.50000000000E+03  0.00000000000E+00 0.  1.
        -11    1    1    2    0    0  0.11639044438E+01 -0.12197134649E+02  0.29630205589E+03  0.29655527831E+03  0.00000000000E+00 0.  1.
         11    1    1    2    0    0 -0.26479365336E+01  0.12157798384E+02 -0.49972492970E+03  0.49987981455E+03  0.00000000000E+00 0.  1.
        -15    1    1    2    0    0 -0.40349879360E+00 -0.19455503790E+01  0.31967037491E+02  0.32077986104E+02  0.17770000000E+01 0.  1.
         15    1    1    2    0    0  0.18875308834E+01  0.19848866445E+01  0.17145583632E+03  0.17148692103E+03  0.17770000000E+01 0.  1.
</event>
<event>
 6    1  0.6564965E-004  0.5017478E+03  0.7546771E-02  0.9395907E-01
        -11   -1    0    0    0    0  0.00000000000E+00  0.00000000000E+00  0.50000000000E+03  0.50000000000E+03  0.00000000000E+00 0.  1.
         11   -1    0    0    0    0 -0.00000000000E+00 -0.00000000000E+00 -0.50000000000E+03  0.50000000000E+03  0.00000000000E+00 0.  1.
        -11    1    1    2    0    0 -0.16341875947E+02  0.12132841608E+02  0.35225915880E+03  0.35284667735E+03  0.00000000000E+00 0.  1.
         11    1    1    2    0    0 -0.96067464301E+00  0.10090395860E+02 -0.49814908727E+03  0.49825219732E+03  0.00000000000E+00 0.  1.
        -15    1    1    2    0    0  0.17311438226E+02 -0.18597382325E+02  0.11776101508E+03  0.12048386997E+03  0.17770000000E+01 0.  1.
         15    1    1    2    0    0 -0.88876355673E-02 -0.36258551426E+01  0.28128913393E+02  0.28417255360E+02  0.17770000000E+01 0. -1.
</event>
<event>
 6    1  0.6564965E-004  0.5023915E+03  0.7546771E-02  0.9394474E-01
        -11   -1    0    0    0    0  0.00000000000E+00  0.00000000000E+00  0.50000000000E+03  0.50000000000E+03  0.00000000000E+00 0. -1.
         11   -1    0    0    0    0 -0.00000000000E+00 -0.00000000000E+00 -0.50000000000E+03  0.50000000000E+03  0.00000000000E+00 0.  1.
        -11    1    1    2    0    0 -0.82940574434E+01  0.56487175096E+01  0.49750728822E+03  0.49760848187E+03  0.00000000000E+00 0. -1.
         11    1    1    2    0    0  0.35605563367E+01  0.78266181723E+01 -0.47124324504E+03  0.47132168368E+03  0.00000000000E+00 0.  1.
        -15    1    1    2    0    0  0.62148576923E+01 -0.95129294964E+01 -0.14959998380E+02  0.18870070595E+02  0.17770000000E+01 0.  1.
         15    1    1    2    0    0 -0.14813565856E+01 -0.39624061855E+01 -0.11304044802E+02  0.12199763850E+02  0.17770000000E+01 0. -1.
</event>
<event>
 6    1  0.6564965E-004  0.5035414E+03  0.7546771E-02  0.9391920E-01
        -11   -1    0    0    0    0  0.00000000000E+00  0.00000000000E+00  0.50000000000E+03  0.50000000000E+03  0.00000000000E+00 0. -1.
         11   -1    0    0    0    0 -0.00000000000E+00 -0.00000000000E+00 -0.50000000000E+03  0.50000000000E+03  0.00000000000E+00 0. -1.
        -11    1    1    2    0    0  0.89205945481E+01 -0.14811154464E+02  0.49615747486E+03  0.49645864597E+03  0.00000000000E+00 0. -1.
         11    1    1    2    0    0 -0.72194923596E+01  0.25555370669E+01 -0.48560511713E+03  0.48566550384E+03  0.00000000000E+00 0. -1.
        -15    1    1    2    0    0 -0.36422782138E+00  0.16073677321E+01  0.38037732214E+00  0.24533056962E+01  0.17770000000E+01 0.  1.
         15    1    1    2    0    0 -0.13368743671E+01  0.10648249665E+02 -0.10932735052E+02  0.15422544496E+02  0.17770000000E+01 0. -1.
</event>
<event>
 6    1  0.6564965E-004  0.5012273E+03  0.7546771E-02  0.9397068E-01
        -11   -1    0    0    0    0  0.00000000000E+00  0.00000000000E+00  0.50000000000E+03  0.50000000000E+03  0.00000000000E+00 0.  1.
         11   -1    0    0    0    0 -0.00000000000E+00 -0.00000000000E+00 -0.50000000000E+03  0.50000000000E+03  0.00000000000E+00 0.  1.
        -11    1    1    2    0    0 -0.70108671387E+01  0.83311662780E+01  0.19237070350E+03  0.19267861364E+03  0.00000000000E+00 0.  1.
         11    1    1    2    0    0 -0.41245653240E+01 -0.63378945558E+01 -0.49871532658E+03  0.49877265153E+03  0.00000000000E+00 0.  1.
        -15    1    1    2    0    0  0.82950356564E+01  0.15892187762E+01  0.30160312870E+03  0.30172659512E+03  0.17770000000E+01 0.  1.
         15    1    1    2    0    0  0.28403968063E+01 -0.35824904984E+01  0.47414943874E+01  0.68221397094E+01  0.17770000000E+01 0. -1.
</event>
<event>
 6    1  0.1168743E-003  0.5000806E+03  0.7546771E-02  0.9399629E-01
        -11   -1    0    0    0    0  0.00000000000E+00  0.00000000000E+00  0.50000000000E+03  0.50000000000E+03  0.00000000000E+00 0.  1.
         11   -1    0    0    0    0 -0.00000000000E+00 -0.00000000000E+00 -0.50000000000E+03  0.50000000000E+03  0.00000000000E+00 0.  1.
        -11    1    1    2    0    0  0.14446816056E+02  0.52851982605E+01  0.49968270671E+03  0.49991944471E+03  0.00000000000E+00 0.  1.
         11    1    1    2    0    0 -0.13363145580E+02 -0.58480099376E+01 -0.34390831503E+03  0.34421752138E+03  0.00000000000E+00 0.  1.
        -15    1    1    2    0    0  0.95704629172E+00 -0.82704422366E+00 -0.73764042281E+02  0.73796284475E+02  0.17770000000E+01 0. -1.
         15    1    1    2    0    0 -0.20407167685E+01  0.13898559008E+01 -0.82010349401E+02  0.82066749432E+02  0.17770000000E+01 0.  1.
</event>
<event>
 6    1  0.6564965E-004  0.5026544E+03  0.7546771E-02  0.9393890E-01
        -11   -1    0    0    0    0  0.00000000000E+00  0.00000000000E+00  0.50000000000E+03  0.50000000000E+03  0.00000000000E+00 0. -1.
         11   -1    0    0    0    0 -0.00000000000E+00 -0.00000000000E+00 -0.50000000000E+03  0.50000000000E+03  0.00000000000E+00 0.  1.
        -11    1    1    2    0    0 -0.56308209365E+01  0.53013345725E+01  0.47439175163E+03  0.47445478637E+03  0.00000000000E+00 0. -1.
         11    1    1    2    0    0 -0.36346184339E+00  0.72600710514E+01 -0.49729244401E+03  0.49734556961E+03  0.00000000000E+00 0.  1.
        -15    1    1    2    0    0  0.72609751839E+01 -0.75899207985E+01  0.17833415998E+02  0.20772989999E+02  0.17770000000E+01 0.  1.
         15    1    1    2    0    0 -0.12666924040E+01 -0.49714848254E+01  0.50672763817E+01  0.74266540207E+01  0.17770000000E+01 0. -1.
</event>
<event>
 6    1  0.6564965E-004  0.5035432E+03  0.7546771E-02  0.9391916E-01
        -11   -1    0    0    0    0  0.00000000000E+00  0.00000000000E+00  0.50000000000E+03  0.50000000000E+03  0.00000000000E+00 0. -1.
         11   -1    0    0    0    0 -0.00000000000E+00 -0.00000000000E+00 -0.50000000000E+03  0.50000000000E+03  0.00000000000E+00 0.  1.
        -11    1    1    2    0    0 -0.21614926681E+02  0.10696252578E+01  0.38822468847E+03  0.38882741401E+03  0.00000000000E+00 0. -1.
         11    1    1    2    0    0 -0.21418889018E+01 -0.78353346464E+01 -0.49639037206E+03  0.49645682756E+03  0.00000000000E+00 0.  1.
        -15    1    1    2    0    0  0.67741972720E+01 -0.93185255286E+00  0.26424042931E+01  0.75430847343E+01  0.17770000000E+01 0. -1.
         15    1    1    2    0    0  0.16982618311E+02  0.76975619414E+01  0.10552327930E+03  0.10717267370E+03  0.17770000000E+01 0.  1.
</event>
<event>
 6    1  0.6564965E-004  0.5097416E+03  0.7546771E-02  0.9378272E-01
        -11   -1    0    0    0    0  0.00000000000E+00  0.00000000000E+00  0.50000000000E+03  0.50000000000E+03  0.00000000000E+00 0. -1.
         11   -1    0    0    0    0 -0.00000000000E+00 -0.00000000000E+00 -0.50000000000E+03  0.50000000000E+03  0.00000000000E+00 0. -1.
        -11    1    1    2    0    0  0.22764188558E+02 -0.10876101655E+02  0.48960882849E+03  0.49025840412E+03  0.00000000000E+00 0. -1.
         11    1    1    2    0    0  0.16254012318E+02  0.46316606400E+01 -0.45113788186E+03  0.45145435389E+03  0.00000000000E+00 0. -1.
        -15    1    1    2    0    0 -0.11187772147E+02  0.29465057177E+01 -0.23987122688E+02  0.26690596198E+02  0.17770000000E+01 0. -1.
         15    1    1    2    0    0 -0.27830428729E+02  0.32979352975E+01 -0.14483823948E+02  0.31596645798E+02  0.17770000000E+01 0.  1.
</event>
<event>
 6    1  0.6564965E-004  0.5000737E+03  0.7546771E-02  0.9399645E-01
        -11   -1    0    0    0    0  0.00000000000E+00  0.00000000000E+00  0.50000000000E+03  0.50000000000E+03  0.00000000000E+00 0. -1.
         11   -1    0    0    0    0 -0.00000000000E+00 -0.00000000000E+00 -0.50000000000E+03  0.50000000000E+03  0.00000000000E+00 0. -1.
        -11    1    1    2    0    0  0.54635598688E+01  0.45363387891E+01  0.12623909036E+03  0.12643866810E+03  0.00000000000E+00 0. -1.
         11    1    1    2    0    0 -0.89170591258E+01 -0.89855984424E+01 -0.49976599779E+03  0.49992630203E+03  0.00000000000E+00 0. -1.
        -15    1    1    2    0    0  0.13407608190E+01  0.54655953979E+01  0.27879724708E+03  0.27885970143E+03  0.17770000000E+01 0. -1.
         15    1    1    2    0    0  0.21127384381E+01 -0.10163357447E+01  0.94729660348E+02  0.94775328439E+02  0.17770000000E+01 0.  1.
</event>
<event>
 6    1  0.6564965E-004  0.5020158E+03  0.7546771E-02  0.9395310E-01
        -11   -1    0    0    0    0  0.00000000000E+00  0.00000000000E+00  0.50000000000E+03  0.50000000000E+03  0.00000000000E+00 0.  1.
         11   -1    0    0    0    0 -0.00000000000E+00 -0.00000000000E+00 -0.50000000000E+03  0.50000000000E+03  0.00000000000E+00 0. -1.
        -11    1    1    2    0    0  0.82028003878E+01  0.19050472689E+02  0.49755204304E+03  0.49798417844E+03  0.00000000000E+00 0.  1.
         11    1    1    2    0    0  0.51842879063E+01 -0.21249151734E+01 -0.39065315519E+03  0.39069333212E+03  0.00000000000E+00 0. -1.
        -15    1    1    2    0    0 -0.49632006619E+01 -0.20651406446E+02 -0.65767871223E+02  0.69135262806E+02  0.17770000000E+01 0.  1.
         15    1    1    2    0    0 -0.84238876322E+01  0.37258489298E+01 -0.41131016627E+02  0.42187226632E+02  0.17770000000E+01 0. -1.
</event>
<event>
 6    1  0.6564965E-004  0.4645855E+03  0.7546771E-02  0.9482737E-01
        -11   -1    0    0    0    0  0.00000000000E+00  0.00000000000E+00  0.50000000000E+03  0.50000000000E+03  0.00000000000E+00 0. -1.
         11   -1    0    0    0    0 -0.00000000000E+00 -0.00000000000E+00 -0.50000000000E+03  0.50000000000E+03  0.00000000000E+00 0. -1.
        -11    1    1    2    0    0  0.69368893112E+02  0.15440566376E+02 -0.83135638934E+01  0.71551168867E+02  0.00000000000E+00 0. -1.
         11    1    1    2    0    0 -0.23563774011E+02 -0.16654439434E+02 -0.45676785661E+03  0.45767837685E+03  0.00000000000E+00 0. -1.
        -15    1    1    2    0    0  0.12795643425E+02 -0.95985772428E+00  0.12459139886E+03  0.12526302015E+03  0.17770000000E+01 0.  1.
         15    1    1    2    0    0 -0.58600762526E+02  0.21737307828E+01  0.34049002165E+03  0.34550743414E+03  0.17770000000E+01 0. -1.
</event>
<event>
 6    1  0.6564965E-004  0.5002853E+03  0.7546771E-02  0.9399172E-01
        -11   -1    0    0    0    0  0.00000000000E+00  0.00000000000E+00  0.50000000000E+03  0.50000000000E+03  0.00000000000E+00 0. -1.
         11   -1    0    0    0    0 -0.00000000000E+00 -0.00000000000E+00 -0.50000000000E+03  0.50000000000E+03  0.00000000000E+00 0.  1.
        -11    1    1    2    0    0  0.22089835782E+00 -0.95932258504E+01  0.49962256935E+03  0.49971470919E+03  0.00000000000E+00 0. -1.
         11    1    1    2    0    0 -0.51151419859E+01  0.39292498910E+01 -0.41291027420E+03  0.41296064973E+03  0.00000000000E+00 0.  1.
        -15    1    1    2    0    0  0.31562938718E+01  0.31692263648E+01 -0.22172846634E+02  0.22689183406E+02  0.17770000000E+01 0.  1.
         15    1    1    2    0    0  0.17379497562E+01  0.24947495946E+01 -0.64539448518E+02  0.64635457675E+02  0.17770000000E+01 0. -1.
</event>
<event>
 6    1  0.6564965E-004  0.5068443E+03  0.7546771E-02  0.9384624E-01
        -11   -1    0    0    0    0  0.00000000000E+00  0.00000000000E+00  0.50000000000E+03  0.50000000000E+03  0.00000000000E+00 0.  1.
         11   -1    0    0    0    0 -0.00000000000E+00 -0.00000000000E+00 -0.50000000000E+03  0.50000000000E+03  0.00000000000E+00 0. -1.
        -11    1    1    2    0    0  0.51961705179E+01 -0.17222348435E+02  0.49282750188E+03  0.49315571180E+03  0.00000000000E+00 0.  1.
         11    1    1    2    0    0 -0.15576208286E+01 -0.14134874454E+02 -0.44126883017E+03  0.44149790638E+03  0.00000000000E+00 0. -1.
        -15    1    1    2    0    0  0.76664373278E+00  0.92049487556E+01 -0.37548180618E+02  0.38708428293E+02  0.17770000000E+01 0.  1.
         15    1    1    2    0    0 -0.44051934220E+01  0.22152274134E+02 -0.14010491090E+02  0.26637953525E+02  0.17770000000E+01 0. -1.
</event>
<event>
 6    1  0.6564965E-004  0.5011105E+03  0.7546771E-02  0.9397328E-01
        -11   -1    0    0    0    0  0.00000000000E+00  0.00000000000E+00  0.50000000000E+03  0.50000000000E+03  0.00000000000E+00 0.  1.
         11   -1    0    0    0    0 -0.00000000000E+00 -0.00000000000E+00 -0.50000000000E+03  0.50000000000E+03  0.00000000000E+00 0.  1.
        -11    1    1    2    0    0 -0.99805757747E+01  0.71876251523E+01  0.10863278364E+03  0.10932682896E+03  0.00000000000E+00 0.  1.
         11    1    1    2    0    0  0.87073841312E+01  0.82265164514E+01 -0.49874566465E+03  0.49888949890E+03  0.00000000000E+00 0.  1.
        -15    1    1    2    0    0 -0.58897886921E+01 -0.56224964228E+00  0.13965290362E+02  0.15270651571E+02  0.17770000000E+01 0. -1.
         15    1    1    2    0    0  0.71629803357E+01 -0.14851891961E+02  0.37614759064E+03  0.37651302057E+03  0.17770000000E+01 0.  1.
</event>
<event>
 6    1  0.6564965E-004  0.5021569E+03  0.7546771E-02  0.9394996E-01
        -11   -1    0    0    0    0  0.00000000000E+00  0.00000000000E+00  0.50000000000E+03  0.50000000000E+03  0.00000000000E+00 0.  1.
         11   -1    0    0    0    0 -0.00000000000E+00 -0.00000000000E+00 -0.50000000000E+03  0.50000000000E+03  0.00000000000E+00 0.  1.
        -11    1    1    2    0    0 -0.50476417286E+01  0.13622490179E+02  0.42341826777E+03  0.42366741722E+03  0.00000000000E+00 0.  1.
         11    1    1    2    0    0  0.34492722630E+01  0.83299492881E+01 -0.49776143932E+03  0.49784308372E+03  0.00000000000E+00 0.  1.
        -15    1    1    2    0    0  0.49380199878E+01 -0.72648354388E+01  0.17548689129E+02  0.19704722645E+02  0.17770000000E+01 0. -1.
         15    1    1    2    0    0 -0.33396505222E+01 -0.14687604028E+02  0.56794482411E+02  0.58784776422E+02  0.17770000000E+01 0.  1.
</event>
<event>
 6    1  0.6564965E-004  0.5029966E+03  0.7546771E-02  0.9393130E-01
        -11   -1    0    0    0    0  0.00000000000E+00  0.00000000000E+00  0.50000000000E+03  0.50000000000E+03  0.00000000000E+00 0.  1.
         11   -1    0    0    0    0 -0.00000000000E+00 -0.00000000000E+00 -0.50000000000E+03  0.50000000000E+03  0.00000000000E+00 0. -1.
        -11    1    1    2    0    0  0.51054335110E+01  0.82021744046E+01  0.47656141804E+03  0.47665933986E+03  0.00000000000E+00 0.  1.
         11    1    1    2    0    0 -0.60279317029E+01 -0.43902804733E+01 -0.49694750066E+03  0.49700344962E+03  0.00000000000E+00 0. -1.
        -15    1    1    2    0    0  0.55185339644E+01 -0.24848725383E+01  0.20274276404E+02  0.21232824149E+02  0.17770000000E+01 0.  1.
         15    1    1    2    0    0 -0.45960357726E+01 -0.13270213929E+01  0.11180621347E+00  0.51043863715E+01  0.17770000000E+01 0. -1.
</event>
<event>
 6    1  0.6564965E-004  0.4768147E+03  0.7546771E-02  0.9453237E-01
        -11   -1    0    0    0    0  0.00000000000E+00  0.00000000000E+00  0.50000000000E+03  0.50000000000E+03  0.00000000000E+00 0.  1.
         11   -1    0    0    0    0 -0.00000000000E+00 -0.00000000000E+00 -0.50000000000E+03  0.50000000000E+03  0.00000000000E+00 0. -1.
        -11    1    1    2    0    0  0.27467694279E+01  0.29680657672E+02  0.48400581907E+03  0.48492279702E+03  0.00000000000E+00 0.  1.
         11    1    1    2    0    0  0.91745472581E+01  0.84154306231E+01 -0.46948704122E+03  0.46965207725E+03  0.00000000000E+00 0. -1.
        -15    1    1    2    0    0 -0.15632491907E+02 -0.32245960210E+02 -0.12480387294E+02  0.37988084304E+02  0.17770000000E+01 0.  1.
         15    1    1    2    0    0  0.37111752213E+01 -0.58501280850E+01 -0.20383905501E+01  0.74370414257E+01  0.17770000000E+01 0. -1.
</event>
<event>
 6    1  0.6564965E-004  0.5082435E+03  0.7546771E-02  0.9381551E-01
        -11   -1    0    0    0    0  0.00000000000E+00  0.00000000000E+00  0.50000000000E+03  0.50000000000E+03  0.00000000000E+00 0. -1.
         11   -1    0    0    0    0 -0.00000000000E+00 -0.00000000000E+00 -0.50000000000E+03  0.50000000000E+03  0.00000000000E+00 0. -1.
        -11    1    1    2    0    0 -0.38383467468E+02  0.17394797578E+02  0.48994757147E+03  0.49175653768E+03  0.00000000000E+00 0. -1.
         11    1    1    2    0    0 -0.44624236594E+01  0.85670868958E+01 -0.42753741115E+03  0.42764652008E+03  0.00000000000E+00 0. -1.
        -15    1    1    2    0    0  0.39834828646E+02 -0.25039660635E+02 -0.55372623487E+02  0.72684821928E+02  0.17770000000E+01 0.  1.
         15    1    1    2    0    0  0.30110624813E+01 -0.92222383950E+00 -0.70375368355E+01  0.79121203092E+01  0.17770000000E+01 0. -1.
</event>
<event>
 6    1  0.6564965E-004  0.5203345E+03  0.7546771E-02  0.9355425E-01
        -11   -1    0    0    0    0  0.00000000000E+00  0.00000000000E+00  0.50000000000E+03  0.50000000000E+03  0.00000000000E+00 0.  1.
         11   -1    0    0    0    0 -0.00000000000E+00 -0.00000000000E+00 -0.50000000000E+03  0.50000000000E+03  0.00000000000E+00 0.  1.
        -11    1    1    2    0    0  0.22574566731E+02  0.19470715713E+02  0.47873825194E+03  0.47966554359E+03  0.00000000000E+00 0.  1.
         11    1    1    2    0    0  0.21453110602E+01 -0.57986858836E+01 -0.44860392210E+03  0.44864652683E+03  0.00000000000E+00 0.  1.
        -15    1    1    2    0    0 -0.29166025566E+02  0.76654563679E+01 -0.37913948404E+02  0.48477226419E+02  0.17770000000E+01 0.  1.
         15    1    1    2    0    0  0.44461477749E+01 -0.21337486198E+02  0.77796185627E+01  0.23210703162E+02  0.17770000000E+01 0. -1.
</event>
<event>
 6    1  0.6564965E-004  0.5001306E+03  0.7546771E-02  0.9399518E-01
        -11   -1    0    0    0    0  0.00000000000E+00  0.00000000000E+00  0.50000000000E+03  0.50000000000E+03  0.00000000000E+00 0. -1.
         11   -1    0    0    0    0 -0.00000000000E+00 -0.00000000000E+00 -0.50000000000E+03  0.50000000000E+03  0.00000000000E+00 0.  1.
        -11    1    1    2    0    0 -0.36775026407E+01  0.23034434640E+01  0.51281294447E+02  0.51464560987E+02  0.00000000000E+00 0. -1.
         11    1    1    2    0    0  0.28008272031E+01  0.64022620608E+01 -0.49982057861E+03  0.49986942734E+03  0.00000000000E+00 0.  1.
        -15    1    1    2    0    0  0.19486174268E+01 -0.50483249392E+01  0.33585397936E+03  0.33590227131E+03  0.17770000000E+01 0. -1.
         15    1    1    2    0    0 -0.10719419891E+01 -0.36573805855E+01  0.11268530480E+03  0.11276374036E+03  0.17770000000E+01 0.  1.
</event>
<event>
 6    1  0.6564965E-004  0.4907084E+03  0.7546771E-02  0.9420844E-01
        -11   -1    0    0    0    0  0.00000000000E+00  0.00000000000E+00  0.50000000000E+03  0.50000000000E+03  0.00000000000E+00 0. -1.
         11   -1    0    0    0    0 -0.00000000000E+00 -0.00000000000E+00 -0.50000000000E+03  0.50000000000E+03  0.00000000000E+00 0.  1.
        -11    1    1    2    0    0 -0.15382977668E+02 -0.93900073254E+00  0.49157823059E+03  0.49181975816E+03  0.00000000000E+00 0. -1.
         11    1    1    2    0    0  0.57653955675E+01 -0.95271860434E+01 -0.48957536539E+03  0.48970199658E+03  0.00000000000E+00 0.  1.
        -15    1    1    2    0    0  0.73946543558E+01  0.74165986672E+01  0.38431646270E+01  0.11296658452E+02  0.17770000000E+01 0.  1.
         15    1    1    2    0    0  0.22229277446E+01  0.30495881088E+01 -0.58460298242E+01  0.71815868091E+01  0.17770000000E+01 0. -1.
</event>
<event>
 6    1  0.6564965E-004  0.5028432E+03  0.7546771E-02  0.9393470E-01
        -11   -1    0    0    0    0  0.00000000000E+00  0.00000000000E+00  0.50000000000E+03  0.50000000000E+03  0.00000000000E+00 0.  1.
         11   -1    0    0    0    0 -0.00000000000E+00 -0.00000000000E+00 -0.50000000000E+03  0.50000000000E+03  0.00000000000E+00 0.  1.
        -11    1    1    2    0    0  0.12345167681E+02  0.69326627435E+01  0.49695514433E+03  0.49715679665E+03  0.00000000000E+00 0.  1.
         11    1    1    2    0    0  0.15468242662E+01  0.77019641836E+01 -0.45816454657E+03  0.45823188960E+03  0.00000000000E+00 0.  1.
        -15    1    1    2    0    0 -0.11688125648E+02 -0.11827317225E+02 -0.23720275066E+02  0.29022523876E+02  0.17770000000E+01 0.  1.
         15    1    1    2    0    0 -0.22038662987E+01 -0.28073097016E+01 -0.15070322696E+02  0.15588789869E+02  0.17770000000E+01 0. -1.
</event>
<event>
 6    1  0.6564965E-004  0.5028679E+03  0.7546771E-02  0.9393415E-01
        -11   -1    0    0    0    0  0.00000000000E+00  0.00000000000E+00  0.50000000000E+03  0.50000000000E+03  0.00000000000E+00 0.  1.
         11   -1    0    0    0    0 -0.00000000000E+00 -0.00000000000E+00 -0.50000000000E+03  0.50000000000E+03  0.00000000000E+00 0.  1.
        -11    1    1    2    0    0  0.72904730797E+02  0.28417869847E+01  0.49174906826E+03  0.49713209679E+03  0.00000000000E+00 0.  1.
         11    1    1    2    0    0 -0.30586779330E+01  0.30958851443E+00 -0.19998083768E+03  0.20000446694E+03  0.00000000000E+00 0.  1.
        -15    1    1    2    0    0 -0.93483343118E+00 -0.17073975596E+01  0.40341794103E+00  0.26663823817E+01  0.17770000000E+01 0.  1.
         15    1    1    2    0    0 -0.68911219433E+02 -0.14439779396E+01 -0.29217164852E+03  0.30019705389E+03  0.17770000000E+01 0. -1.
</event>
<event>
 6    1  0.6564965E-004  0.5003316E+03  0.7546771E-02  0.9399068E-01
        -11   -1    0    0    0    0  0.00000000000E+00  0.00000000000E+00  0.50000000000E+03  0.50000000000E+03  0.00000000000E+00 0. -1.
         11   -1    0    0    0    0 -0.00000000000E+00 -0.00000000000E+00 -0.50000000000E+03  0.50000000000E+03  0.00000000000E+00 0. -1.
        -11    1    1    2    0    0  0.15130424968E+01  0.47203752756E+01  0.35166592636E+03  0.35170086011E+03  0.00000000000E+00 0. -1.
         11    1    1    2    0    0  0.80685176433E+01  0.21847230536E+01 -0.49959844874E+03  0.49966837400E+03  0.00000000000E+00 0. -1.
        -15    1    1    2    0    0 -0.20651835105E+01  0.12243797540E+01  0.42104303873E+02  0.42210119904E+02  0.17770000000E+01 0. -1.
         15    1    1    2    0    0 -0.75163766296E+01 -0.81294780833E+01  0.10582821851E+03  0.10642064599E+03  0.17770000000E+01 0.  1.
</event>
<event>
 6    1  0.6564965E-004  0.5004624E+03  0.7546771E-02  0.9398776E-01
        -11   -1    0    0    0    0  0.00000000000E+00  0.00000000000E+00  0.50000000000E+03  0.50000000000E+03  0.00000000000E+00 0.  1.
         11   -1    0    0    0    0 -0.00000000000E+00 -0.00000000000E+00 -0.50000000000E+03  0.50000000000E+03  0.00000000000E+00 0.  1.
        -11    1    1    2    0    0 -0.59932998112E+01  0.17308394638E+02  0.32949502678E+03  0.33000374671E+03  0.00000000000E+00 0.  1.
         11    1    1    2    0    0  0.78547509965E+01 -0.11007899802E+02 -0.49935455186E+03  0.49953762564E+03  0.00000000000E+00 0.  1.
        -15    1    1    2    0    0  0.29917941863E+00  0.31671701135E+01  0.74590721291E+02  0.74679675325E+02  0.17770000000E+01 0. -1.
         15    1    1    2    0    0 -0.21606306039E+01 -0.94676649495E+01  0.95268803785E+02  0.95778952321E+02  0.17770000000E+01 0.  1.
</event>
<event>
 6    1  0.6564965E-004  0.5077070E+03  0.7546771E-02  0.9382728E-01
        -11   -1    0    0    0    0  0.00000000000E+00  0.00000000000E+00  0.50000000000E+03  0.50000000000E+03  0.00000000000E+00 0. -1.
         11   -1    0    0    0    0 -0.00000000000E+00 -0.00000000000E+00 -0.50000000000E+03  0.50000000000E+03  0.00000000000E+00 0.  1.
        -11    1    1    2    0    0  0.18704689088E+02  0.51127515287E+01  0.49191096639E+03  0.49229300673E+03  0.00000000000E+00 0. -1.
         11    1    1    2    0    0  0.15656604179E+02 -0.56792354079E+01 -0.43559473552E+03  0.43591301493E+03  0.00000000000E+00 0.  1.
        -15    1    1    2    0    0 -0.32656158852E+02  0.80903709031E+01 -0.32956739959E+02  0.47129430827E+02  0.17770000000E+01 0.  1.
         15    1    1    2    0    0 -0.17051344148E+01 -0.75238870239E+01 -0.23359490911E+02  0.24664547511E+02  0.17770000000E+01 0. -1.
</event>
<event>
 6    1  0.6564965E-004  0.4904436E+03  0.7546771E-02  0.9421450E-01
        -11   -1    0    0    0    0  0.00000000000E+00  0.00000000000E+00  0.50000000000E+03  0.50000000000E+03  0.00000000000E+00 0.  1.
         11   -1    0    0    0    0 -0.00000000000E+00 -0.00000000000E+00 -0.50000000000E+03  0.50000000000E+03  0.00000000000E+00 0.  1.
        -11    1    1    2    0    0  0.99732460022E+01 -0.11288925790E+02  0.48765384971E+03  0.48788644438E+03  0.00000000000E+00 0.  1.
         11    1    1    2    0    0  0.56073639154E+01  0.51423432251E+01 -0.49310023310E+03  0.49315892582E+03  0.00000000000E+00 0.  1.
        -15    1    1    2    0    0 -0.11406068156E+02  0.53242510159E+01  0.64207998444E+01  0.14241855191E+02  0.17770000000E+01 0. -1.
         15    1    1    2    0    0 -0.41745417619E+01  0.82233154892E+00 -0.97441644509E+00  0.47127746081E+01  0.17770000000E+01 0.  1.
</event>
<event>
 6    1  0.6564965E-004  0.5006336E+03  0.7546771E-02  0.9398393E-01
        -11   -1    0    0    0    0  0.00000000000E+00  0.00000000000E+00  0.50000000000E+03  0.50000000000E+03  0.00000000000E+00 0. -1.
         11   -1    0    0    0    0 -0.00000000000E+00 -0.00000000000E+00 -0.50000000000E+03  0.50000000000E+03  0.00000000000E+00 0.  1.
        -11    1    1    2    0    0  0.10042639315E+02  0.47384956289E+01  0.49924290757E+03  0.49936638724E+03  0.00000000000E+00 0. -1.
         11    1    1    2    0    0 -0.27104713684E+01  0.56528057135E+01 -0.40855889694E+03  0.40860699105E+03  0.00000000000E+00 0.  1.
        -15    1    1    2    0    0  0.11985722150E+01 -0.22278127322E+01 -0.31418728716E+02  0.31570460372E+02  0.17770000000E+01 0.  1.
         15    1    1    2    0    0 -0.85307401620E+01 -0.81634886102E+01 -0.59265281913E+02  0.60456161334E+02  0.17770000000E+01 0.  1.
</event>
<event>
 6    1  0.6564965E-004  0.5047415E+03  0.7546771E-02  0.9389262E-01
        -11   -1    0    0    0    0  0.00000000000E+00  0.00000000000E+00  0.50000000000E+03  0.50000000000E+03  0.00000000000E+00 0.  1.
         11   -1    0    0    0    0 -0.00000000000E+00 -0.00000000000E+00 -0.50000000000E+03  0.50000000000E+03  0.00000000000E+00 0. -1.
        -11    1    1    2    0    0  0.33724243008E+02  0.72948423029E+01  0.30342467790E+03  0.30538021293E+03  0.00000000000E+00 0.  1.
         11    1    1    2    0    0  0.23906507512E+01  0.19964232520E+02 -0.49485019497E+03  0.49525851962E+03  0.00000000000E+00 0. -1.
        -15    1    1    2    0    0 -0.12454258293E+02  0.45800461025E+01  0.26092574566E+02  0.29326874167E+02  0.17770000000E+01 0. -1.
         15    1    1    2    0    0 -0.23660635467E+02 -0.31839120925E+02  0.16533294251E+03  0.17003439329E+03  0.17770000000E+01 0.  1.
</event>
<event>
 6    1  0.9072219E-004  0.5000462E+03  0.7546771E-02  0.9399706E-01
        -11   -1    0    0    0    0  0.00000000000E+00  0.00000000000E+00  0.50000000000E+03  0.50000000000E+03  0.00000000000E+00 0. -1.
         11   -1    0    0    0    0 -0.00000000000E+00 -0.00000000000E+00 -0.50000000000E+03  0.50000000000E+03  0.00000000000E+00 0.  1.
        -11    1    1    2    0    0  0.10053186883E+02 -0.84513050590E+01  0.49978131243E+03  0.49995384924E+03  0.00000000000E+00 0. -1.
         11    1    1    2    0    0 -0.51361554875E+01  0.45658029906E+00 -0.10364931385E+03  0.10377749669E+03  0.00000000000E+00 0.  1.
        -15    1    1    2    0    0 -0.35596029148E+01  0.36787184111E+01 -0.23931315831E+03  0.23937449574E+03  0.17770000000E+01 0.  1.
         15    1    1    2    0    0 -0.13574284811E+01  0.43160063489E+01 -0.15681884027E+03  0.15689415832E+03  0.17770000000E+01 0.  1.
</event>
<event>
 6    1  0.6564965E-004  0.5001284E+03  0.7546771E-02  0.9399522E-01
        -11   -1    0    0    0    0  0.00000000000E+00  0.00000000000E+00  0.50000000000E+03  0.50000000000E+03  0.00000000000E+00 0.  1.
         11   -1    0    0    0    0 -0.00000000000E+00 -0.00000000000E+00 -0.50000000000E+03  0.50000000000E+03  0.00000000000E+00 0. -1.
        -11    1    1    2    0    0  0.18956004215E+01 -0.12302463539E+02  0.23880414708E+03  0.23912834330E+03  0.00000000000E+00 0.  1.
         11    1    1    2    0    0  0.33461821012E+01  0.11822952106E+02 -0.49972051065E+03  0.49987155140E+03  0.00000000000E+00 0. -1.
        -15    1    1    2    0    0 -0.15467322970E+01 -0.22361728669E+00  0.11555107583E+03  0.11557530550E+03  0.17770000000E+01 0.  1.
         15    1    1    2    0    0 -0.36950502257E+01  0.70312871952E+00  0.14536528774E+03  0.14542479980E+03  0.17770000000E+01 0.  1.
</event>
<event>
 6    1  0.6564965E-004  0.4650348E+03  0.7546771E-02  0.9481636E-01
        -11   -1    0    0    0    0  0.00000000000E+00  0.00000000000E+00  0.50000000000E+03  0.50000000000E+03  0.00000000000E+00 0. -1.
         11   -1    0    0    0    0 -0.00000000000E+00 -0.00000000000E+00 -0.50000000000E+03  0.50000000000E+03  0.00000000000E+00 0. -1.
        -11    1    1    2    0    0  0.32778422888E+01  0.57753379815E+02  0.36500845282E+02  0.68399625996E+02  0.00000000000E+00 0. -1.
         11    1    1    2    0    0 -0.50222554102E+02 -0.24946099033E+02 -0.48006727804E+03  0.48333136070E+03  0.00000000000E+00 0. -1.
        -15    1    1    2    0    0  0.53094429498E+01 -0.12924000467E+02  0.19085217419E+03  0.19137118408E+03  0.17770000000E+01 0.  1.
         15    1    1    2    0    0  0.41635268863E+02 -0.19883280315E+02  0.25271425856E+03  0.25689782922E+03  0.17770000000E+01 0. -1.
</event>
<event>
 6    1  0.6564965E-004  0.4720666E+03  0.7546771E-02  0.9464578E-01
        -11   -1    0    0    0    0  0.00000000000E+00  0.00000000000E+00  0.50000000000E+03  0.50000000000E+03  0.00000000000E+00 0. -1.
         11   -1    0    0    0    0 -0.00000000000E+00 -0.00000000000E+00 -0.50000000000E+03  0.50000000000E+03  0.00000000000E+00 0.  1.
        -11    1    1    2    0    0 -0.25495840676E+02 -0.99130738057E+01  0.47542063609E+03  0.47620698037E+03  0.00000000000E+00 0. -1.
         11    1    1    2    0    0 -0.17247748708E+02 -0.12400366399E+02 -0.46869930834E+03  0.46918045096E+03  0.00000000000E+00 0.  1.
        -15    1    1    2    0    0  0.25674577994E+02  0.23928964603E+02  0.21867948462E+01  0.35209645026E+02  0.17770000000E+01 0.  1.
         15    1    1    2    0    0  0.17069011390E+02 -0.16155243979E+01 -0.89081226001E+01  0.19402923650E+02  0.17770000000E+01 0. -1.
</event>
<event>
 6    1  0.6564965E-004  0.5000442E+03  0.7546771E-02  0.9399711E-01
        -11   -1    0    0    0    0  0.00000000000E+00  0.00000000000E+00  0.50000000000E+03  0.50000000000E+03  0.00000000000E+00 0. -1.
         11   -1    0    0    0    0 -0.00000000000E+00 -0.00000000000E+00 -0.50000000000E+03  0.50000000000E+03  0.00000000000E+00 0.  1.
        -11    1    1    2    0    0 -0.58576721482E+00 -0.50201419434E+00  0.11701091579E+02  0.11726495027E+02  0.00000000000E+00 0. -1.
         11    1    1    2    0    0  0.48695396195E+01 -0.51783189733E+01 -0.49990531459E+03  0.49995584901E+03  0.00000000000E+00 0.  1.
        -15    1    1    2    0    0 -0.84015158908E-01  0.56727211147E+01  0.26149044416E+03  0.26155801830E+03  0.17770000000E+01 0.  1.
         15    1    1    2    0    0 -0.41997572457E+01  0.76120530005E-02  0.22671377886E+03  0.22675963766E+03  0.17770000000E+01 0. -1.
</event>
<event>
 6    1  0.6564965E-004  0.5013179E+03  0.7546771E-02  0.9396866E-01
        -11   -1    0    0    0    0  0.00000000000E+00  0.00000000000E+00  0.50000000000E+03  0.50000000000E+03  0.00000000000E+00 0. -1.
         11   -1    0    0    0    0 -0.00000000000E+00 -0.00000000000E+00 -0.50000000000E+03  0.50000000000E+03  0.00000000000E+00 0. -1.
        -11    1    1    2    0    0  0.11114759961E+02 -0.10267797726E+02  0.37723739970E+03  0.37754075447E+03  0.00000000000E+00 0. -1.
         11    1    1    2    0    0  0.35042548355E+01 -0.60758054202E+01 -0.49863273469E+03  0.49868206236E+03  0.00000000000E+00 0. -1.
        -15    1    1    2    0    0 -0.17838644978E+01  0.11891310376E+00  0.56876490961E+01  0.62212051978E+01  0.17770000000E+01 0.  1.
         15    1    1    2    0    0 -0.12835150298E+02  0.16224690042E+02  0.11570768590E+03  0.11755597797E+03  0.17770000000E+01 0. -1.
</event>
<event>
 6    1  0.6564965E-004  0.5001641E+03  0.7546771E-02  0.9399443E-01
        -11   -1    0    0    0    0  0.00000000000E+00  0.00000000000E+00  0.50000000000E+03  0.50000000000E+03  0.00000000000E+00 0. -1.
         11   -1    0    0    0    0 -0.00000000000E+00 -0.00000000000E+00 -0.50000000000E+03  0.50000000000E+03  0.00000000000E+00 0.  1.
        -11    1    1    2    0    0 -0.76715501097E+01  0.55896208999E+01  0.49974572772E+03  0.49983586198E+03  0.00000000000E+00 0. -1.
         11    1    1    2    0    0  0.45291627005E+01 -0.23261621872E+01 -0.36971743652E+03  0.36975249453E+03  0.00000000000E+00 0.  1.
        -15    1    1    2    0    0  0.14651822161E+01 -0.33804334709E+01 -0.23368245012E+02  0.23723547233E+02  0.17770000000E+01 0. -1.
         15    1    1    2    0    0  0.16772051930E+01  0.11697475826E+00 -0.10666004619E+03  0.10668809625E+03  0.17770000000E+01 0.  1.
</event>
<event>
 6    1  0.6564965E-004  0.5020030E+03  0.7546771E-02  0.9395339E-01
        -11   -1    0    0    0    0  0.00000000000E+00  0.00000000000E+00  0.50000000000E+03  0.50000000000E+03  0.00000000000E+00 0.  1.
         11   -1    0    0    0    0 -0.00000000000E+00 -0.00000000000E+00 -0.50000000000E+03  0.50000000000E+03  0.00000000000E+00 0. -1.
        -11    1    1    2    0    0  0.90050881840E+01  0.10273454933E+02  0.46855977215E+03  0.46875888852E+03  0.00000000000E+00 0.  1.
         11    1    1    2    0    0 -0.70169045856E+01 -0.25974997554E+01 -0.49794083027E+03  0.49799704257E+03  0.00000000000E+00 0. -1.
        -15    1    1    2    0    0  0.37252127137E+01  0.16620831707E+01  0.77888899500E+01  0.89701876169E+01  0.17770000000E+01 0.  1.
         15    1    1    2    0    0 -0.57133963121E+01 -0.93380383479E+01  0.21592168172E+02  0.24273881292E+02  0.17770000000E+01 0. -1.
</event>
<event>
 6    1  0.6564965E-004  0.5001197E+03  0.7546771E-02  0.9399542E-01
        -11   -1    0    0    0    0  0.00000000000E+00  0.00000000000E+00  0.50000000000E+03  0.50000000000E+03  0.00000000000E+00 0. -1.
         11   -1    0    0    0    0 -0.00000000000E+00 -0.00000000000E+00 -0.50000000000E+03  0.50000000000E+03  0.00000000000E+00 0. -1.
        -11    1    1    2    0    0 -0.51083368607E+01 -0.23395584771E+02  0.49930639333E+03  0.49988030859E+03  0.00000000000E+00 0. -1.
         11    1    1    2    0    0 -0.91849928983E+00  0.15075628975E+02 -0.35745436315E+03  0.35777330807E+03  0.00000000000E+00 0. -1.
        -15    1    1    2    0    0  0.43579850868E+01  0.29112141596E+01 -0.50605060409E+02  0.50906748766E+02  0.17770000000E+01 0. -1.
         15    1    1    2    0    0  0.16688510637E+01  0.54087416367E+01 -0.91246969769E+02  0.91439634574E+02  0.17770000000E+01 0.  1.
</event>
<event>
 6    1  0.6564965E-004  0.5006814E+03  0.7546771E-02  0.9398286E-01
        -11   -1    0    0    0    0  0.00000000000E+00  0.00000000000E+00  0.50000000000E+03  0.50000000000E+03  0.00000000000E+00 0. -1.
         11   -1    0    0    0    0 -0.00000000000E+00 -0.00000000000E+00 -0.50000000000E+03  0.50000000000E+03  0.00000000000E+00 0. -1.
        -11    1    1    2    0    0  0.81317573206E+01  0.10227603932E+00  0.49925233195E+03  0.49931856254E+03  0.00000000000E+00 0. -1.
         11    1    1    2    0    0 -0.44026594533E+01 -0.49493985353E+01 -0.39429019739E+03  0.39434583770E+03  0.00000000000E+00 0. -1.
        -15    1    1    2    0    0  0.45146497862E+01  0.68247484025E+01 -0.51764227554E+02  0.52437126511E+02  0.17770000000E+01 0.  1.
         15    1    1    2    0    0 -0.82437476535E+01 -0.19776259065E+01 -0.53197907010E+02  0.53898473252E+02  0.17770000000E+01 0.  1.
</event>
<event>
 6    1  0.6966534E-004  0.5001229E+03  0.7546771E-02  0.9399535E-01
        -11   -1    0    0    0    0  0.00000000000E+00  0.00000000000E+00  0.50000000000E+03  0.50000000000E+03  0.00000000000E+00 0. -1.
         11   -1    0    0    0    0 -0.00000000000E+00 -0.00000000000E+00 -0.50000000000E+03  0.50000000000E+03  0.00000000000E+00 0. -1.
        -11    1    1    2    0    0 -0.79330588089E+01  0.12107046748E+02  0.49966746434E+03  0.49987707381E+03  0.00000000000E+00 0. -1.
         11    1    1    2    0    0 -0.12118370486E+01 -0.22492775820E+01 -0.14345398715E+03  0.14347673759E+03  0.00000000000E+00 0. -1.
        -15    1    1    2    0    0  0.48346602184E+01 -0.11627629181E+01 -0.22514179469E+03  0.22520371090E+03  0.17770000000E+01 0. -1.
         15    1    1    2    0    0  0.43102356391E+01 -0.86950062475E+01 -0.13107168250E+03  0.13144247771E+03  0.17770000000E+01 0. -1.
</event>
<event>
 6    1  0.6564965E-004  0.5032501E+03  0.7546771E-02  0.9392567E-01
        -11   -1    0    0    0    0  0.00000000000E+00  0.00000000000E+00  0.50000000000E+03  0.50000000000E+03  0.00000000000E+00 0.  1.
         11   -1    0    0    0    0 -0.00000000000E+00 -0.00000000000E+00 -0.50000000000E+03  0.50000000000E+03  0.00000000000E+00 0. -1.
        -11    1    1    2    0    0 -0.91906860060E+00  0.12543916812E+02  0.49659067117E+03  0.49674992625E+03  0.00000000000E+00 0.  1.
         11    1    1    2    0    0 -0.77894957464E+01 -0.32907010561E+01 -0.47871420240E+03  0.47878888096E+03  0.00000000000E+00 0. -1.
        -15    1    1    2    0    0  0.27351877790E+01  0.19996078702E+01 -0.44117477970E+01  0.58396002813E+01  0.17770000000E+01 0. -1.
         15    1    1    2    0    0  0.59733765680E+01 -0.11252823626E+02 -0.13464720979E+02  0.18621592500E+02  0.17770000000E+01 0. -1.
</event>
<event>
 6    1  0.6564965E-004  0.5064660E+03  0.7546771E-02  0.9385457E-01
        -11   -1    0    0    0    0  0.00000000000E+00  0.00000000000E+00  0.50000000000E+03  0.50000000000E+03  0.00000000000E+00 0.  1.
         11   -1    0    0    0    0 -0.00000000000E+00 -0.00000000000E+00 -0.50000000000E+03  0.50000000000E+03  0.00000000000E+00 0. -1.
        -11    1    1    2    0    0 -0.18622593799E+02  0.65137039748E+01  0.45905220338E+03  0.45947595668E+03  0.00000000000E+00 0.  1.
         11    1    1    2    0    0 -0.97133228184E+01 -0.21547883187E+01 -0.49343365451E+03  0.49353395339E+03  0.00000000000E+00 0. -1.
        -15    1    1    2    0    0  0.29239784983E+02 -0.30390724401E+01  0.32991773956E+02  0.44224607007E+02  0.17770000000E+01 0.  1.
         15    1    1    2    0    0 -0.90386836602E+00 -0.13198432160E+01  0.13896771719E+01  0.27654829198E+01  0.17770000000E+01 0. -1.
</event>
<event>
 6    1  0.6564965E-004  0.5005957E+03  0.7546771E-02  0.9398478E-01
        -11   -1    0    0    0    0  0.00000000000E+00  0.00000000000E+00  0.50000000000E+03  0.50000000000E+03  0.00000000000E+00 0. -1.
         11   -1    0    0    0    0 -0.00000000000E+00 -0.00000000000E+00 -0.50000000000E+03  0.50000000000E+03  0.00000000000E+00 0. -1.
        -11    1    1    2    0    0 -0.83845255293E+01  0.10134866708E+02  0.49923104043E+03  0.49940429265E+03  0.00000000000E+00 0. -1.
         11    1    1    2    0    0 -0.27138029603E+01 -0.83511150024E+01 -0.42273577593E+03  0.42282696472E+03  0.00000000000E+00 0. -1.
        -15    1    1    2    0    0  0.66142128271E+01 -0.13966735830E+01 -0.63813528952E+02  0.64195192302E+02  0.17770000000E+01 0. -1.
         15    1    1    2    0    0  0.44841156624E+01 -0.38707812276E+00 -0.12681735549E+02  0.13573550320E+02  0.17770000000E+01 0.  1.
</event>
<event>
 6    1  0.9001664E-004  0.5000720E+03  0.7546771E-02  0.9399649E-01
        -11   -1    0    0    0    0  0.00000000000E+00  0.00000000000E+00  0.50000000000E+03  0.50000000000E+03  0.00000000000E+00 0.  1.
         11   -1    0    0    0    0 -0.00000000000E+00 -0.00000000000E+00 -0.50000000000E+03  0.50000000000E+03  0.00000000000E+00 0. -1.
        -11    1    1    2    0    0 -0.10088652808E+02  0.75893571997E+01  0.49976861160E+03  0.49992803922E+03  0.00000000000E+00 0.  1.
         11    1    1    2    0    0  0.18363552479E+00  0.16917780110E+01 -0.63533656312E+02  0.63556441996E+02  0.00000000000E+00 0. -1.
        -15    1    1    2    0    0  0.84017874618E+01 -0.46694951872E+01 -0.21746509476E+03  0.21768467881E+03  0.17770000000E+01 0.  1.
         15    1    1    2    0    0  0.15032298213E+01 -0.46116400235E+01 -0.21876986052E+03  0.21883083998E+03  0.17770000000E+01 0. -1.
</event>
<event>
 6    1  0.6564965E-004  0.5047900E+03  0.7546771E-02  0.9389155E-01
        -11   -1    0    0    0    0  0.00000000000E+00  0.00000000000E+00  0.50000000000E+03  0.50000000000E+03  0.00000000000E+00 0.  1.
         11   -1    0    0    0    0 -0.00000000000E+00 -0.00000000000E+00 -0.50000000000E+03  0.50000000000E+03  0.00000000000E+00 0. -1.
        -11    1    1    2    0    0  0.40145456589E+01  0.10289554440E+03  0.24313740575E+03  0.26404432906E+03  0.00000000000E+00 0.  1.
         11    1    1    2    0    0 -0.96264598911E+01 -0.10669028887E+03 -0.48348471123E+03  0.49521000845E+03  0.00000000000E+00 0. -1.
        -15    1    1    2    0    0 -0.24333921326E+01 -0.80388957361E+00  0.25303917876E+02  0.25495364767E+02  0.17770000000E+01 0.  1.
         15    1    1    2    0    0  0.80453063648E+01  0.45986340430E+01  0.21504338760E+03  0.21525029772E+03  0.17770000000E+01 0.  1.
</event>
<event>
 6    1  0.6564965E-004  0.5001296E+03  0.7546771E-02  0.9399520E-01
        -11   -1    0    0    0    0  0.00000000000E+00  0.00000000000E+00  0.50000000000E+03  0.50000000000E+03  0.00000000000E+00 0.  1.
         11   -1    0    0    0    0 -0.00000000000E+00 -0.00000000000E+00 -0.50000000000E+03  0.50000000000E+03  0.00000000000E+00 0. -1.
        -11    1    1    2    0    0  0.14292147154E+01  0.41310861611E+01  0.66933546478E+02  0.67076137125E+02  0.00000000000E+00 0.  1.
         11    1    1    2    0    0 -0.72807965812E+01  0.46069150350E+01 -0.49979615037E+03  0.49987040880E+03  0.00000000000E+00 0. -1.
        -15    1    1    2    0    0  0.17722965307E+00  0.50045619888E+00  0.70005931895E+02  0.70030494046E+02  0.17770000000E+01 0. -1.
         15    1    1    2    0    0  0.56743522128E+01 -0.92384573950E+01  0.36285667200E+03  0.36302296003E+03  0.17770000000E+01 0.  1.
</event>
<event>
 6    1  0.6564965E-004  0.5007054E+03  0.7546771E-02  0.9398233E-01
        -11   -1    0    0    0    0  0.00000000000E+00  0.00000000000E+00  0.50000000000E+03  0.50000000000E+03  0.00000000000E+00 0.  1.
         11   -1    0    0    0    0 -0.00000000000E+00 -0.00000000000E+00 -0.50000000000E+03  0.50000000000E+03  0.00000000000E+00 0. -1.
        -11    1    1    2    0    0 -0.27421067486E+02 -0.34743740799E+02  0.30546257682E+03  0.30865260133E+03  0.00000000000E+00 0.  1.
         11    1    1    2    0    0  0.34946773194E+02  0.38755761202E+02 -0.49656002047E+03  0.49929464238E+03  0.00000000000E+00 0. -1.
        -15    1    1    2    0    0 -0.92153532887E+01  0.27085669094E+01  0.62716352563E+02  0.63472495450E+02  0.17770000000E+01 0.  1.
         15    1    1    2    0    0  0.16896475810E+01 -0.67205873117E+01  0.12838109108E+03  0.12858026084E+03  0.17770000000E+01 0. -1.
</event>
<event>
 6    1  0.6564965E-004  0.5013386E+03  0.7546771E-02  0.9396819E-01
        -11   -1    0    0    0    0  0.00000000000E+00  0.00000000000E+00  0.50000000000E+03  0.50000000000E+03  0.00000000000E+00 0.  1.
         11   -1    0    0    0    0 -0.00000000000E+00 -0.00000000000E+00 -0.50000000000E+03  0.50000000000E+03  0.00000000000E+00 0.  1.
        -11    1    1    2    0    0 -0.15747279087E+02 -0.15939634992E+02  0.49815774878E+03  0.49866139958E+03  0.00000000000E+00 0.  1.
         11    1    1    2    0    0 -0.59558736900E+01  0.79507819070E+00 -0.29694106140E+03  0.29700184936E+03  0.00000000000E+00 0.  1.
        -15    1    1    2    0    0  0.14466952057E+02 -0.20072758818E+01 -0.12483984901E+03  0.12570388812E+03  0.17770000000E+01 0.  1.
         15    1    1    2    0    0  0.72362007196E+01  0.17151832683E+02 -0.76376838372E+02  0.78632862939E+02  0.17770000000E+01 0. -1.
</event>
<event>
 6    1  0.6564965E-004  0.5056651E+03  0.7546771E-02  0.9387222E-01
        -11   -1    0    0    0    0  0.00000000000E+00  0.00000000000E+00  0.50000000000E+03  0.50000000000E+03  0.00000000000E+00 0.  1.
         11   -1    0    0    0    0 -0.00000000000E+00 -0.00000000000E+00 -0.50000000000E+03  0.50000000000E+03  0.00000000000E+00 0. -1.
        -11    1    1    2    0    0  0.49978864781E+02 -0.20377525723E+02  0.49137956090E+03  0.49433491010E+03  0.00000000000E+00 0.  1.
         11    1    1    2    0    0  0.40978001038E+01  0.15569425045E+01 -0.28522468037E+03  0.28525836417E+03  0.00000000000E+00 0. -1.
        -15    1    1    2    0    0 -0.32662635174E+01 -0.88845802674E+01 -0.91066653691E+02  0.91574545521E+02  0.17770000000E+01 0. -1.
         15    1    1    2    0    0 -0.50810401368E+02  0.27705163486E+02 -0.11508822684E+03  0.12883218020E+03  0.17770000000E+01 0.  1.
</event>
<event>
 6    1  0.6564965E-004  0.5005639E+03  0.7546771E-02  0.9398549E-01
        -11   -1    0    0    0    0  0.00000000000E+00  0.00000000000E+00  0.50000000000E+03  0.50000000000E+03  0.00000000000E+00 0. -1.
         11   -1    0    0    0    0 -0.00000000000E+00 -0.00000000000E+00 -0.50000000000E+03  0.50000000000E+03  0.00000000000E+00 0. -1.
        -11    1    1    2    0    0 -0.67754602758E+01  0.45275405660E+01  0.49936957348E+03  0.49943605837E+03  0.00000000000E+00 0. -1.
         11    1    1    2    0    0  0.97342727830E+00  0.11121169317E+02 -0.33779231662E+03  0.33797674052E+03  0.00000000000E+00 0. -1.
        -15    1    1    2    0    0  0.58253623478E+01 -0.13157102013E+02 -0.11514291886E+03  0.11605211619E+03  0.17770000000E+01 0.  1.
         15    1    1    2    0    0 -0.23329350360E-01 -0.24916078703E+01 -0.46434337998E+02  0.46535084919E+02  0.17770000000E+01 0. -1.
</event>
<event>
 6    1  0.6564965E-004  0.4926940E+03  0.7546771E-02  0.9416307E-01
        -11   -1    0    0    0    0  0.00000000000E+00  0.00000000000E+00  0.50000000000E+03  0.50000000000E+03  0.00000000000E+00 0.  1.
         11   -1    0    0    0    0 -0.00000000000E+00 -0.00000000000E+00 -0.50000000000E+03  0.50000000000E+03  0.00000000000E+00 0. -1.
        -11    1    1    2    0    0  0.18243050454E+01 -0.10691828580E+02  0.49070203705E+03  0.49082189484E+03  0.00000000000E+00 0.  1.
         11    1    1    2    0    0 -0.10991601895E+02  0.37175797881E+01 -0.49450468292E+03  0.49464079608E+03  0.00000000000E+00 0. -1.
        -15    1    1    2    0    0  0.88234645707E+01  0.75793870159E+01  0.20458140446E+01  0.11943354582E+02  0.17770000000E+01 0.  1.
         15    1    1    2    0    0  0.34383227879E+00 -0.60513822363E+00  0.17568318288E+01  0.25939545062E+01  0.17770000000E+01 0. -1.
</event>
<event>
 6    1  0.6564965E-004  0.5070773E+03  0.7546771E-02  0.9384112E-01
        -11   -1    0    0    0    0  0.00000000000E+00  0.00000000000E+00  0.50000000000E+03  0.50000000000E+03  0.00000000000E+00 0. -1.
         11   -1    0    0    0    0 -0.00000000000E+00 -0.00000000000E+00 -0.50000000000E+03  0.50000000000E+03  0.00000000000E+00 0. -1.
        -11    1    1    2    0    0 -0.38245731294E+02  0.17733504944E+02  0.49111668815E+03  0.49292272674E+03  0.00000000000E+00 0. -1.
         11    1    1    2    0    0  0.27944965912E+01  0.77349353497E+01 -0.42995945312E+03  0.43003810269E+03  0.00000000000E+00 0. -1.
        -15    1    1    2    0    0  0.10258659965E+02 -0.16318170124E+02 -0.19528492140E+02  0.27496227282E+02  0.17770000000E+01 0.  1.
         15    1    1    2    0    0  0.25192574737E+02 -0.91502701695E+01 -0.41628742889E+02  0.49542943288E+02  0.17770000000E+01 0. -1.
</event>
<event>
 6    1  0.6564965E-004  0.4635181E+03  0.7546771E-02  0.9485358E-01
        -11   -1    0    0    0    0  0.00000000000E+00  0.00000000000E+00  0.50000000000E+03  0.50000000000E+03  0.00000000000E+00 0.  1.
         11   -1    0    0    0    0 -0.00000000000E+00 -0.00000000000E+00 -0.50000000000E+03  0.50000000000E+03  0.00000000000E+00 0.  1.
        -11    1    1    2    0    0  0.22480365509E+02 -0.48108456455E+02  0.46409939223E+03  0.46712743046E+03  0.00000000000E+00 0.  1.
         11    1    1    2    0    0  0.69044639911E+01 -0.47026237284E+01 -0.46180384224E+03  0.46187939443E+03  0.00000000000E+00 0.  1.
        -15    1    1    2    0    0  0.86120651710E+01  0.14570081911E+02 -0.61383102892E+00  0.17029077219E+02  0.17770000000E+01 0. -1.
         15    1    1    2    0    0 -0.37996894671E+02  0.38240998272E+02 -0.16817189626E+01  0.53964097891E+02  0.17770000000E+01 0.  1.
</event>
<event>
 6    1  0.6564965E-004  0.5006463E+03  0.7546771E-02  0.9398365E-01
        -11   -1    0    0    0    0  0.00000000000E+00  0.00000000000E+00  0.50000000000E+03  0.50000000000E+03  0.00000000000E+00 0. -1.
         11   -1    0    0    0    0 -0.00000000000E+00 -0.00000000000E+00 -0.50000000000E+03  0.50000000000E+03  0.00000000000E+00 0. -1.
        -11    1    1    2    0    0 -0.12184707465E+02  0.64455298387E+01  0.25354253127E+03  0.25391696894E+03  0.00000000000E+00 0. -1.
         11    1    1    2    0    0  0.40205712981E+01  0.74622897480E+01 -0.49928178015E+03  0.49935372909E+03  0.00000000000E+00 0. -1.
        -15    1    1    2    0    0  0.11655447960E+01 -0.11861510965E+01  0.13572382370E+03  0.13574564265E+03  0.17770000000E+01 0.  1.
         15    1    1    2    0    0  0.69985913712E+01 -0.12721668490E+02  0.11001542518E+03  0.11098365933E+03  0.17770000000E+01 0. -1.
</event>
<event>
 6    1  0.6564965E-004  0.5001363E+03  0.7546771E-02  0.9399505E-01
        -11   -1    0    0    0    0  0.00000000000E+00  0.00000000000E+00  0.50000000000E+03  0.50000000000E+03  0.00000000000E+00 0. -1.
         11   -1    0    0    0    0 -0.00000000000E+00 -0.00000000000E+00 -0.50000000000E+03  0.50000000000E+03  0.00000000000E+00 0.  1.
        -11    1    1    2    0    0  0.94558807335E+01 -0.10371673564E+01  0.35861310177E+03  0.35873924536E+03  0.00000000000E+00 0. -1.
         11    1    1    2    0    0 -0.91478339494E+01  0.51041322997E+01 -0.49975393888E+03  0.49986371589E+03  0.00000000000E+00 0.  1.
        -15    1    1    2    0    0  0.53464599552E+00 -0.30556054840E+01  0.12942160563E+03  0.12947097089E+03  0.17770000000E+01 0.  1.
         15    1    1    2    0    0 -0.84269277971E+00 -0.10113594594E+01  0.11719231484E+02  0.11926067862E+02  0.17770000000E+01 0. -1.
</event>
<event>
 6    1  0.6564965E-004  0.5001395E+03  0.7546771E-02  0.9399498E-01
        -11   -1    0    0    0    0  0.00000000000E+00  0.00000000000E+00  0.50000000000E+03  0.50000000000E+03  0.00000000000E+00 0. -1.
         11   -1    0    0    0    0 -0.00000000000E+00 -0.00000000000E+00 -0.50000000000E+03  0.50000000000E+03  0.00000000000E+00 0.  1.
        -11    1    1    2    0    0  0.84640429860E+01 -0.53646886013E+01  0.49976000991E+03  0.49986046795E+03  0.00000000000E+00 0. -1.
         11    1    1    2    0    0 -0.60403033466E+01 -0.38401818436E+01 -0.23716129223E+03  0.23726927907E+03  0.00000000000E+00 0.  1.
        -15    1    1    2    0    0 -0.39202661147E+01  0.63845715482E+01 -0.13515067911E+03  0.13536984536E+03  0.17770000000E+01 0. -1.
         15    1    1    2    0    0  0.14965264753E+01  0.28202988967E+01 -0.12744803858E+03  0.12750040762E+03  0.17770000000E+01 0.  1.
</event>
<event>
 6    1  0.6564965E-004  0.4970326E+03  0.7546771E-02  0.9406474E-01
        -11   -1    0    0    0    0  0.00000000000E+00  0.00000000000E+00  0.50000000000E+03  0.50000000000E+03  0.00000000000E+00 0.  1.
         11   -1    0    0    0    0 -0.00000000000E+00 -0.00000000000E+00 -0.50000000000E+03  0.50000000000E+03  0.00000000000E+00 0.  1.
        -11    1    1    2    0    0 -0.17890789952E+01  0.10806283579E+01  0.56331475715E+01  0.60084035201E+01  0.00000000000E+00 0.  1.
         11    1    1    2    0    0  0.43794393186E+01 -0.87602465562E+01 -0.49968495547E+03  0.49978092814E+03  0.00000000000E+00 0.  1.
        -15    1    1    2    0    0 -0.52836453835E+01  0.21958018579E+01  0.19858087606E+03  0.19867123727E+03  0.17770000000E+01 0. -1.
         15    1    1    2    0    0  0.26932850600E+01  0.54838163405E+01  0.29547093184E+03  0.29553943107E+03  0.17770000000E+01 0.  1.
</event>
<event>
 6    1  0.6564965E-004  0.5007286E+03  0.7546771E-02  0.9398181E-01
        -11   -1    0    0    0    0  0.00000000000E+00  0.00000000000E+00  0.50000000000E+03  0.50000000000E+03  0.00000000000E+00 0.  1.
         11   -1    0    0    0    0 -0.00000000000E+00 -0.00000000000E+00 -0.50000000000E+03  0.50000000000E+03  0.00000000000E+00 0. -1.
        -11    1    1    2    0    0  0.14106093294E+02 -0.36081222968E+01  0.63142421496E+02  0.64799427520E+02  0.00000000000E+00 0.  1.
         11    1    1    2    0    0 -0.31452116435E+02  0.20270884997E+02 -0.49786728073E+03  0.49927144284E+03  0.00000000000E+00 0. -1.
        -15    1    1    2    0    0  0.18594763361E+02 -0.39189465088E+01  0.29035575178E+03  0.29098237693E+03  0.17770000000E+01 0.  1.
         15    1    1    2    0    0 -0.12487402201E+01 -0.12743816191E+02  0.14436910746E+03  0.14494675271E+03  0.17770000000E+01 0. -1.
</event>
<event>
 6    1  0.6631816E-004  0.5001041E+03  0.7546771E-02  0.9399577E-01
        -11   -1    0    0    0    0  0.00000000000E+00  0.00000000000E+00  0.50000000000E+03  0.50000000000E+03  0.00000000000E+00 0. -1.
         11   -1    0    0    0    0 -0.00000000000E+00 -0.00000000000E+00 -0.50000000000E+03  0.50000000000E+03  0.00000000000E+00 0. -1.
        -11    1    1    2    0    0  0.15387321613E+02 -0.41671837972E+01  0.49964165625E+03  0.49989590891E+03  0.00000000000E+00 0. -1.
         11    1    1    2    0    0 -0.99111312983E+01  0.77008376207E+01 -0.22945969346E+03  0.22980270743E+03  0.00000000000E+00 0. -1.
        -15    1    1    2    0    0 -0.49949304257E+01 -0.21774755617E+01 -0.20060727855E+03  0.20068913440E+03  0.17770000000E+01 0. -1.
         15    1    1    2    0    0 -0.48125988930E+00 -0.13561782618E+01 -0.69574684238E+02  0.69612249255E+02  0.17770000000E+01 0. -1.
</event>
<event>
 6    1  0.6564965E-004  0.5148224E+03  0.7546771E-02  0.9367241E-01
        -11   -1    0    0    0    0  0.00000000000E+00  0.00000000000E+00  0.50000000000E+03  0.50000000000E+03  0.00000000000E+00 0. -1.
         11   -1    0    0    0    0 -0.00000000000E+00 -0.00000000000E+00 -0.50000000000E+03  0.50000000000E+03  0.00000000000E+00 0. -1.
        -11    1    1    2    0    0 -0.17551407532E+02  0.59892031430E+02  0.48114676018E+03  0.48517760889E+03  0.00000000000E+00 0. -1.
         11    1    1    2    0    0  0.80168304336E+01 -0.48996181838E+01 -0.41476294893E+03  0.41486935249E+03  0.00000000000E+00 0. -1.
        -15    1    1    2    0    0  0.27276136160E+02 -0.24731104636E+02 -0.47340481022E+02  0.59999116766E+02  0.17770000000E+01 0. -1.
         15    1    1    2    0    0 -0.17741559062E+02 -0.30261308611E+02 -0.19043330220E+02  0.39953921856E+02  0.17770000000E+01 0.  1.
</event>
<event>
 6    1  0.6564965E-004  0.5004367E+03  0.7546771E-02  0.9398833E-01
        -11   -1    0    0    0    0  0.00000000000E+00  0.00000000000E+00  0.50000000000E+03  0.50000000000E+03  0.00000000000E+00 0. -1.
         11   -1    0    0    0    0 -0.00000000000E+00 -0.00000000000E+00 -0.50000000000E+03  0.50000000000E+03  0.00000000000E+00 0.  1.
        -11    1    1    2    0    0  0.11862677692E+02  0.51411495798E+01  0.49939600576E+03  0.49956333443E+03  0.00000000000E+00 0. -1.
         11    1    1    2    0    0 -0.65906411869E+00  0.42673008791E+01 -0.24953337633E+03  0.24957073171E+03  0.00000000000E+00 0.  1.
        -15    1    1    2    0    0 -0.13994395541E+02 -0.30791734564E+01 -0.13205688405E+03  0.13284390378E+03  0.17770000000E+01 0.  1.
         15    1    1    2    0    0  0.27907819685E+01 -0.63292770025E+01 -0.11780574538E+03  0.11802203008E+03  0.17770000000E+01 0. -1.
</event>
<event>
 6    1  0.6564965E-004  0.5001616E+03  0.7546771E-02  0.9399448E-01
        -11   -1    0    0    0    0  0.00000000000E+00  0.00000000000E+00  0.50000000000E+03  0.50000000000E+03  0.00000000000E+00 0. -1.
         11   -1    0    0    0    0 -0.00000000000E+00 -0.00000000000E+00 -0.50000000000E+03  0.50000000000E+03  0.00000000000E+00 0.  1.
        -11    1    1    2    0    0  0.28184042115E+02 -0.56549874932E+02  0.43682883971E+03  0.44137474303E+03  0.00000000000E+00 0. -1.
         11    1    1    2    0    0 -0.29181396048E+02  0.62218371828E+02 -0.49509166684E+03  0.49983841213E+03  0.00000000000E+00 0.  1.
        -15    1    1    2    0    0 -0.92407303195E+00 -0.38824195546E+01  0.25536040624E+02  0.25907029786E+02  0.17770000000E+01 0. -1.
         15    1    1    2    0    0  0.19214269652E+01 -0.17860773414E+01  0.32726786505E+02  0.32879815051E+02  0.17770000000E+01 0. -1.
</event>
<event>
 6    1  0.1521061E-003  0.5001178E+03  0.7546771E-02  0.9399546E-01
        -11   -1    0    0    0    0  0.00000000000E+00  0.00000000000E+00  0.50000000000E+03  0.50000000000E+03  0.00000000000E+00 0. -1.
         11   -1    0    0    0    0 -0.00000000000E+00 -0.00000000000E+00 -0.50000000000E+03  0.50000000000E+03  0.00000000000E+00 0.  1.
        -11    1    1    2    0    0 -0.59430577351E+01 -0.41521279551E+01  0.49982965647E+03  0.49988223172E+03  0.00000000000E+00 0. -1.
         11    1    1    2    0    0 -0.29686697113E+01  0.24406711328E+01 -0.25005947145E+03  0.25008900244E+03  0.00000000000E+00 0.  1.
        -15    1    1    2    0    0  0.35544467336E+01  0.34729117760E+01 -0.14001461344E+03  0.14011404252E+03  0.17770000000E+01 0.  1.
         15    1    1    2    0    0  0.53572807129E+01 -0.17614549537E+01 -0.10975557158E+03  0.10991472332E+03  0.17770000000E+01 0. -1.
</event>
<event>
 6    1  0.6564965E-004  0.5066296E+03  0.7546771E-02  0.9385097E-01
        -11   -1    0    0    0    0  0.00000000000E+00  0.00000000000E+00  0.50000000000E+03  0.50000000000E+03  0.00000000000E+00 0. -1.
         11   -1    0    0    0    0 -0.00000000000E+00 -0.00000000000E+00 -0.50000000000E+03  0.50000000000E+03  0.00000000000E+00 0. -1.
        -11    1    1    2    0    0  0.11278869315E+02  0.17486837280E+01  0.48483489653E+03  0.48496922343E+03  0.00000000000E+00 0. -1.
         11    1    1    2    0    0 -0.68080070434E+00 -0.66640251615E+01 -0.49332496319E+03  0.49337044098E+03  0.00000000000E+00 0. -1.
        -15    1    1    2    0    0 -0.47574216987E+01  0.37618748716E+01  0.12679176631E+02  0.14167004369E+02  0.17770000000E+01 0. -1.
         15    1    1    2    0    0 -0.58406469120E+01  0.11534665619E+01 -0.41891099668E+01  0.74933312201E+01  0.17770000000E+01 0.  1.
</event>
<event>
 6    1  0.6564965E-004  0.4581992E+03  0.7546771E-02  0.9498529E-01
        -11   -1    0    0    0    0  0.00000000000E+00  0.00000000000E+00  0.50000000000E+03  0.50000000000E+03  0.00000000000E+00 0.  1.
         11   -1    0    0    0    0 -0.00000000000E+00 -0.00000000000E+00 -0.50000000000E+03  0.50000000000E+03  0.00000000000E+00 0.  1.
        -11    1    1    2    0    0  0.44823859516E+02 -0.59954944935E+01  0.46141003400E+03  0.46362090528E+03  0.00000000000E+00 0.  1.
         11    1    1    2    0    0 -0.68543863416E+01  0.15101208424E+01 -0.45355399863E+03  0.45360830322E+03  0.00000000000E+00 0.  1.
        -15    1    1    2    0    0 -0.45908496445E+02  0.13513111975E+01  0.22509400963E+02  0.51178579000E+02  0.17770000000E+01 0.  1.
         15    1    1    2    0    0  0.79390232701E+01  0.31340624536E+01 -0.30365436329E+02  0.31592212496E+02  0.17770000000E+01 0. -1.
</event>
<event>
 6    1  0.6564965E-004  0.5003683E+03  0.7546771E-02  0.9398986E-01
        -11   -1    0    0    0    0  0.00000000000E+00  0.00000000000E+00  0.50000000000E+03  0.50000000000E+03  0.00000000000E+00 0.  1.
         11   -1    0    0    0    0 -0.00000000000E+00 -0.00000000000E+00 -0.50000000000E+03  0.50000000000E+03  0.00000000000E+00 0.  1.
        -11    1    1    2    0    0  0.26332230909E+01  0.96464209871E+01  0.20879847214E+03  0.20903776996E+03  0.00000000000E+00 0.  1.
         11    1    1    2    0    0 -0.32279406808E+01  0.61269949911E+01 -0.49958370380E+03  0.49963170112E+03  0.00000000000E+00 0.  1.
        -15    1    1    2    0    0 -0.30385930461E+01 -0.54758753601E+01  0.85540585457E+02  0.85787923089E+02  0.17770000000E+01 0. -1.
         15    1    1    2    0    0  0.36333106361E+01 -0.10297540618E+02  0.20524464620E+03  0.20554260583E+03  0.17770000000E+01 0.  1.
</event>
<event>
 6    1  0.6564965E-004  0.5021177E+03  0.7546771E-02  0.9395084E-01
        -11   -1    0    0    0    0  0.00000000000E+00  0.00000000000E+00  0.50000000000E+03  0.50000000000E+03  0.00000000000E+00 0.  1.
         11   -1    0    0    0    0 -0.00000000000E+00 -0.00000000000E+00 -0.50000000000E+03  0.50000000000E+03  0.00000000000E+00 0. -1.
        -11    1    1    2    0    0 -0.41470622979E+02  0.41220257535E+02  0.49443687877E+03  0.49788226448E+03  0.00000000000E+00 0.  1.
         11    1    1    2    0    0 -0.18143855489E+00 -0.43903108602E+02 -0.24414276517E+03  0.24805887537E+03  0.00000000000E+00 0. -1.
        -15    1    1    2    0    0  0.11544600135E+02 -0.74338181644E+00 -0.10347623104E+03  0.10413605777E+03  0.17770000000E+01 0. -1.
         15    1    1    2    0    0  0.30107461398E+02  0.34262328834E+01 -0.14681788255E+03  0.14992280237E+03  0.17770000000E+01 0.  1.
</event>
<event>
 6    1  0.6564965E-004  0.5002118E+03  0.7546771E-02  0.9399336E-01
        -11   -1    0    0    0    0  0.00000000000E+00  0.00000000000E+00  0.50000000000E+03  0.50000000000E+03  0.00000000000E+00 0. -1.
         11   -1    0    0    0    0 -0.00000000000E+00 -0.00000000000E+00 -0.50000000000E+03  0.50000000000E+03  0.00000000000E+00 0.  1.
        -11    1    1    2    0    0 -0.50264210100E+01  0.15395552926E+02  0.36991105150E+03  0.37026541019E+03  0.00000000000E+00 0. -1.
         11    1    1    2    0    0  0.73927836479E+01 -0.94883902377E+01 -0.49964339615E+03  0.49978816124E+03  0.00000000000E+00 0.  1.
        -15    1    1    2    0    0 -0.35673318556E+00 -0.25452697051E+01  0.48883556230E+02  0.48983318131E+02  0.17770000000E+01 0. -1.
         15    1    1    2    0    0 -0.20096294524E+01 -0.33618929830E+01  0.80848788414E+02  0.80963110439E+02  0.17770000000E+01 0. -1.
</event>
<event>
 6    1  0.8729676E-004  0.5003019E+03  0.7546771E-02  0.9399134E-01
        -11   -1    0    0    0    0  0.00000000000E+00  0.00000000000E+00  0.50000000000E+03  0.50000000000E+03  0.00000000000E+00 0.  1.
         11   -1    0    0    0    0 -0.00000000000E+00 -0.00000000000E+00 -0.50000000000E+03  0.50000000000E+03  0.00000000000E+00 0.  1.
        -11    1    1    2    0    0 -0.69694880326E+01 -0.13251075176E+02  0.49947371169E+03  0.49969806226E+03  0.00000000000E+00 0.  1.
         11    1    1    2    0    0  0.36785975269E+01  0.11992851309E+02 -0.10200722081E+03  0.10277564721E+03  0.00000000000E+00 0.  1.
        -15    1    1    2    0    0  0.85222801083E+00  0.28275568494E+01 -0.17681339257E+03  0.17684698157E+03  0.17770000000E+01 0.  1.
         15    1    1    2    0    0  0.24386624949E+01 -0.15693329824E+01 -0.22065309831E+03  0.22067930896E+03  0.17770000000E+01 0. -1.
</event>
<event>
 6    1  0.6564965E-004  0.5002857E+03  0.7546771E-02  0.9399171E-01
        -11   -1    0    0    0    0  0.00000000000E+00  0.00000000000E+00  0.50000000000E+03  0.50000000000E+03  0.00000000000E+00 0. -1.
         11   -1    0    0    0    0 -0.00000000000E+00 -0.00000000000E+00 -0.50000000000E+03  0.50000000000E+03  0.00000000000E+00 0.  1.
        -11    1    1    2    0    0 -0.51267881400E+01 -0.26196979497E+01  0.31127039200E+02  0.31655005028E+02  0.00000000000E+00 0. -1.
         11    1    1    2    0    0  0.53548486924E+01 -0.69853215418E+01 -0.49963681287E+03  0.49971433229E+03  0.00000000000E+00 0.  1.
        -15    1    1    2    0    0 -0.60526795409E+00  0.24355220159E+01  0.17911406466E+03  0.17914045887E+03  0.17770000000E+01 0. -1.
         15    1    1    2    0    0  0.37720740166E+00  0.71694974756E+01  0.28939570901E+03  0.28949020381E+03  0.17770000000E+01 0. -1.
</event>
<event>
 6    1  0.6564965E-004  0.5001200E+03  0.7546771E-02  0.9399541E-01
        -11   -1    0    0    0    0  0.00000000000E+00  0.00000000000E+00  0.50000000000E+03  0.50000000000E+03  0.00000000000E+00 0. -1.
         11   -1    0    0    0    0 -0.00000000000E+00 -0.00000000000E+00 -0.50000000000E+03  0.50000000000E+03  0.00000000000E+00 0. -1.
        -11    1    1    2    0    0  0.11135679576E+02  0.43327661104E+01  0.12570255178E+03  0.12626918763E+03  0.00000000000E+00 0. -1.
         11    1    1    2    0    0 -0.22952637430E+02 -0.68072909126E+01 -0.49930632059E+03  0.49987995014E+03  0.00000000000E+00 0. -1.
        -15    1    1    2    0    0  0.79468778877E+00  0.10698431033E+01  0.45491121540E+02  0.45545317662E+02  0.17770000000E+01 0. -1.
         15    1    1    2    0    0  0.11022270066E+02  0.14046816989E+01  0.32811264727E+03  0.32830554457E+03  0.17770000000E+01 0. -1.
</event>
<event>
 6    1  0.6564965E-004  0.5134250E+03  0.7546771E-02  0.9370261E-01
        -11   -1    0    0    0    0  0.00000000000E+00  0.00000000000E+00  0.50000000000E+03  0.50000000000E+03  0.00000000000E+00 0. -1.
         11   -1    0    0    0    0 -0.00000000000E+00 -0.00000000000E+00 -0.50000000000E+03  0.50000000000E+03  0.00000000000E+00 0.  1.
        -11    1    1    2    0    0  0.14546946000E+02 -0.54917464638E+02  0.48324698502E+03  0.48657495834E+03  0.00000000000E+00 0. -1.
         11    1    1    2    0    0  0.19935285191E+02  0.10902440559E+02 -0.42278401569E+03  0.42339414583E+03  0.00000000000E+00 0.  1.
        -15    1    1    2    0    0 -0.12142660149E+02  0.29236451783E+02 -0.10655848968E+02  0.33450248946E+02  0.17770000000E+01 0. -1.
         15    1    1    2    0    0 -0.22339571042E+02  0.14778572297E+02 -0.49807120360E+02  0.56580646877E+02  0.17770000000E+01 0.  1.
</event>
<event>
 6    1  0.6564965E-004  0.5002716E+03  0.7546771E-02  0.9399202E-01
        -11   -1    0    0    0    0  0.00000000000E+00  0.00000000000E+00  0.50000000000E+03  0.50000000000E+03  0.00000000000E+00 0.  1.
         11   -1    0    0    0    0 -0.00000000000E+00 -0.00000000000E+00 -0.50000000000E+03  0.50000000000E+03  0.00000000000E+00 0. -1.
        -11    1    1    2    0    0  0.16738279775E+02  0.12740039138E+02  0.49928545420E+03  0.49972836960E+03  0.00000000000E+00 0.  1.
         11    1    1    2    0    0 -0.12935190616E+02 -0.10120339892E+02 -0.43726599393E+03  0.43757432498E+03  0.00000000000E+00 0. -1.
        -15    1    1    2    0    0 -0.53371239956E+01 -0.36276067136E-01 -0.42123057732E+02  0.42497010838E+02  0.17770000000E+01 0. -1.
         15    1    1    2    0    0  0.15340348362E+01 -0.25834231786E+01 -0.19896402535E+02  0.20200294578E+02  0.17770000000E+01 0. -1.
</event>
<event>
 6    1  0.6564965E-004  0.5019719E+03  0.7546771E-02  0.9395408E-01
        -11   -1    0    0    0    0  0.00000000000E+00  0.00000000000E+00  0.50000000000E+03  0.50000000000E+03  0.00000000000E+00 0.  1.
         11   -1    0    0    0    0 -0.00000000000E+00 -0.00000000000E+00 -0.50000000000E+03  0.50000000000E+03  0.00000000000E+00 0. -1.
        -11    1    1    2    0    0  0.13706828657E+02  0.68572835228E+00  0.49783894636E+03  0.49802807540E+03  0.00000000000E+00 0.  1.
         11    1    1    2    0    0 -0.58051619959E+01  0.46060143312E+01 -0.47744774170E+03  0.47750524743E+03  0.00000000000E+00 0. -1.
        -15    1    1    2    0    0  0.12294685797E+01 -0.16764113443E+01 -0.85701552806E+01  0.89959567872E+01  0.17770000000E+01 0. -1.
         15    1    1    2    0    0 -0.91311352411E+01 -0.36153313392E+01 -0.11821049385E+02  0.15470720379E+02  0.17770000000E+01 0.  1.
</event>
<event>
 6    1  0.6564965E-004  0.5016554E+03  0.7546771E-02  0.9396113E-01
        -11   -1    0    0    0    0  0.00000000000E+00  0.00000000000E+00  0.50000000000E+03  0.50000000000E+03  0.00000000000E+00 0.  1.
         11   -1    0    0    0    0 -0.00000000000E+00 -0.00000000000E+00 -0.50000000000E+03  0.50000000000E+03  0.00000000000E+00 0.  1.
        -11    1    1    2    0    0  0.46369511106E+01 -0.93316743276E+01  0.25749630545E+02  0.27778137709E+02  0.00000000000E+00 0.  1.
         11    1    1    2    0    0  0.14991773621E+02  0.11823050805E+02 -0.49797866997E+03  0.49834455305E+03  0.00000000000E+00 0.  1.
        -15    1    1    2    0    0  0.86689238872E-01 -0.90469334006E+01  0.32990057916E+03  0.33002939926E+03  0.17770000000E+01 0.  1.
         15    1    1    2    0    0 -0.19715413971E+02  0.65555569234E+01  0.14232846026E+03  0.14384790998E+03  0.17770000000E+01 0. -1.
</event>
<event>
 6    1  0.6564965E-004  0.5001240E+03  0.7546771E-02  0.9399532E-01
        -11   -1    0    0    0    0  0.00000000000E+00  0.00000000000E+00  0.50000000000E+03  0.50000000000E+03  0.00000000000E+00 0. -1.
         11   -1    0    0    0    0 -0.00000000000E+00 -0.00000000000E+00 -0.50000000000E+03  0.50000000000E+03  0.00000000000E+00 0. -1.
        -11    1    1    2    0    0  0.46222290133E+01 -0.13414709096E+02  0.49967458556E+03  0.49987599550E+03  0.00000000000E+00 0. -1.
         11    1    1    2    0    0 -0.97363467330E+01  0.79981978484E+01 -0.29738844695E+03  0.29765526368E+03  0.00000000000E+00 0. -1.
        -15    1    1    2    0    0  0.38172092609E+01  0.31600719041E+01 -0.14551861198E+03  0.14561380877E+03  0.17770000000E+01 0. -1.
         15    1    1    2    0    0  0.12969084588E+01  0.22564393438E+01 -0.56767526625E+02  0.56854932048E+02  0.17770000000E+01 0. -1.
</event>
<event>
 6    1  0.6564965E-004  0.4878865E+03  0.7546771E-02  0.9427330E-01
        -11   -1    0    0    0    0  0.00000000000E+00  0.00000000000E+00  0.50000000000E+03  0.50000000000E+03  0.00000000000E+00 0. -1.
         11   -1    0    0    0    0 -0.00000000000E+00 -0.00000000000E+00 -0.50000000000E+03  0.50000000000E+03  0.00000000000E+00 0. -1.
        -11    1    1    2    0    0 -0.14718488567E+02  0.10607415501E+02  0.48287813120E+03  0.48321883321E+03  0.00000000000E+00 0. -1.
         11    1    1    2    0    0  0.50299264160E+01  0.66104936531E+01 -0.49273384928E+03  0.49280386059E+03  0.00000000000E+00 0. -1.
        -15    1    1    2    0    0  0.10694653672E+02 -0.15594909818E+02  0.97907268279E+01  0.21368034308E+02  0.17770000000E+01 0. -1.
         15    1    1    2    0    0 -0.10060915209E+01 -0.16229993364E+01  0.64991243324E-01  0.26092719015E+01  0.17770000000E+01 0.  1.
</event>
<event>
 6    1  0.6564965E-004  0.5021970E+03  0.7546771E-02  0.9394907E-01
        -11   -1    0    0    0    0  0.00000000000E+00  0.00000000000E+00  0.50000000000E+03  0.50000000000E+03  0.00000000000E+00 0. -1.
         11   -1    0    0    0    0 -0.00000000000E+00 -0.00000000000E+00 -0.50000000000E+03  0.50000000000E+03  0.00000000000E+00 0. -1.
        -11    1    1    2    0    0 -0.22405030682E+02  0.91028789763E+01  0.37824922419E+03  0.37902153422E+03  0.00000000000E+00 0. -1.
         11    1    1    2    0    0 -0.50136191640E+01 -0.12430736141E+02 -0.49762248850E+03  0.49780297371E+03  0.00000000000E+00 0. -1.
        -15    1    1    2    0    0  0.23006468530E+02 -0.15871526484E+01  0.82885670761E+02  0.86052360771E+02  0.17770000000E+01 0. -1.
         15    1    1    2    0    0  0.44121813166E+01  0.49150098135E+01  0.36487593548E+02  0.37123131298E+02  0.17770000000E+01 0.  1.
</event>
<event>
 6    1  0.6564965E-004  0.5021149E+03  0.7546771E-02  0.9395090E-01
        -11   -1    0    0    0    0  0.00000000000E+00  0.00000000000E+00  0.50000000000E+03  0.50000000000E+03  0.00000000000E+00 0.  1.
         11   -1    0    0    0    0 -0.00000000000E+00 -0.00000000000E+00 -0.50000000000E+03  0.50000000000E+03  0.00000000000E+00 0.  1.
        -11    1    1    2    0    0 -0.73295008511E+01  0.45879016894E+01  0.49780998294E+03  0.49788507664E+03  0.00000000000E+00 0.  1.
         11    1    1    2    0    0  0.46841266918E+01  0.97484328472E+01 -0.46995172629E+03  0.47007616194E+03  0.00000000000E+00 0.  1.
        -15    1    1    2    0    0  0.25963702080E+00 -0.57645568107E+01 -0.16043341795E+02  0.17141880631E+02  0.17770000000E+01 0. -1.
         15    1    1    2    0    0  0.23857371386E+01 -0.85717777259E+01 -0.11814914860E+02  0.14896880788E+02  0.17770000000E+01 0.  1.
</event>
<event>
 6    1  0.6564965E-004  0.5074127E+03  0.7546771E-02  0.9383374E-01
        -11   -1    0    0    0    0  0.00000000000E+00  0.00000000000E+00  0.50000000000E+03  0.50000000000E+03  0.00000000000E+00 0.  1.
         11   -1    0    0    0    0 -0.00000000000E+00 -0.00000000000E+00 -0.50000000000E+03  0.50000000000E+03  0.00000000000E+00 0. -1.
        -11    1    1    2    0    0 -0.45292729952E+02  0.77848495624E+02  0.48428336849E+03  0.49258725182E+03  0.00000000000E+00 0.  1.
         11    1    1    2    0    0  0.29825189260E+01  0.57999584981E+01 -0.28119754143E+03  0.28127316303E+03  0.00000000000E+00 0. -1.
        -15    1    1    2    0    0  0.72484640714E+01 -0.34279165511E+02 -0.46541389189E+02  0.58282587933E+02  0.17770000000E+01 0.  1.
         15    1    1    2    0    0  0.35061746955E+02 -0.49369288611E+02 -0.15654443787E+03  0.16785699722E+03  0.17770000000E+01 0. -1.
</event>
<event>
 6    1  0.6564965E-004  0.5044582E+03  0.7546771E-02  0.9389889E-01
        -11   -1    0    0    0    0  0.00000000000E+00  0.00000000000E+00  0.50000000000E+03  0.50000000000E+03  0.00000000000E+00 0. -1.
         11   -1    0    0    0    0 -0.00000000000E+00 -0.00000000000E+00 -0.50000000000E+03  0.50000000000E+03  0.00000000000E+00 0.  1.
        -11    1    1    2    0    0 -0.14340443244E+02 -0.82149520706E+01  0.48231809264E+03  0.48260115648E+03  0.00000000000E+00 0. -1.
         11    1    1    2    0    0  0.49551817869E+01 -0.50277650438E+01 -0.49549153130E+03  0.49554181442E+03  0.00000000000E+00 0.  1.
        -15    1    1    2    0    0  0.52533698703E+01  0.64672455275E+01  0.34769644384E+01  0.92016395502E+01  0.17770000000E+01 0.  1.
         15    1    1    2    0    0  0.41318915870E+01  0.67754715869E+01  0.96964742216E+01  0.12655389549E+02  0.17770000000E+01 0. -1.
</event>
<event>
 6    1  0.6564965E-004  0.5001525E+03  0.7546771E-02  0.9399469E-01
        -11   -1    0    0    0    0  0.00000000000E+00  0.00000000000E+00  0.50000000000E+03  0.50000000000E+03  0.00000000000E+00 0. -1.
         11   -1    0    0    0    0 -0.00000000000E+00 -0.00000000000E+00 -0.50000000000E+03  0.50000000000E+03  0.00000000000E+00 0. -1.
        -11    1    1    2    0    0  0.12685719151E+02  0.24288565602E+02  0.49909583907E+03  0.49984749521E+03  0.00000000000E+00 0. -1.
         11    1    1    2    0    0  0.11359861179E-01  0.14955594557E+01 -0.69716607744E+01  0.71302791731E+01  0.00000000000E+00 0. -1.
        -15    1    1    2    0    0 -0.19559034463E+01 -0.10534177702E+02 -0.15769356441E+03  0.15806711374E+03  0.17770000000E+01 0. -1.
         15    1    1    2    0    0 -0.10741175566E+02 -0.15249947357E+02 -0.33443061388E+03  0.33495511188E+03  0.17770000000E+01 0.  1.
</event>
<event>
 6    1  0.9606562E-004  0.5001632E+03  0.7546771E-02  0.9399445E-01
        -11   -1    0    0    0    0  0.00000000000E+00  0.00000000000E+00  0.50000000000E+03  0.50000000000E+03  0.00000000000E+00 0. -1.
         11   -1    0    0    0    0 -0.00000000000E+00 -0.00000000000E+00 -0.50000000000E+03  0.50000000000E+03  0.00000000000E+00 0. -1.
        -11    1    1    2    0    0  0.66609008405E+01  0.55694389160E+01  0.49976133479E+03  0.49983675135E+03  0.00000000000E+00 0. -1.
         11    1    1    2    0    0  0.30421731297E+01  0.19796810434E+01 -0.21945065058E+03  0.21948066429E+03  0.00000000000E+00 0. -1.
        -15    1    1    2    0    0 -0.59039259847E+01 -0.74665265791E+01 -0.15533694199E+03  0.15563845488E+03  0.17770000000E+01 0. -1.
         15    1    1    2    0    0 -0.37991479855E+01 -0.82593380311E-01 -0.12497374221E+03  0.12504412948E+03  0.17770000000E+01 0.  1.
</event>
<event>
 6    1  0.6564965E-004  0.5010829E+03  0.7546771E-02  0.9397390E-01
        -11   -1    0    0    0    0  0.00000000000E+00  0.00000000000E+00  0.50000000000E+03  0.50000000000E+03  0.00000000000E+00 0.  1.
         11   -1    0    0    0    0 -0.00000000000E+00 -0.00000000000E+00 -0.50000000000E+03  0.50000000000E+03  0.00000000000E+00 0. -1.
        -11    1    1    2    0    0 -0.28631724183E+01 -0.99154074464E+01  0.40379738885E+03  0.40392925656E+03  0.00000000000E+00 0.  1.
         11    1    1    2    0    0  0.27767829444E+01 -0.76564557614E+01 -0.49885066170E+03  0.49891714193E+03  0.00000000000E+00 0. -1.
        -15    1    1    2    0    0  0.82993214300E+00  0.15166311473E+02  0.89548375005E+02  0.90844785135E+02  0.17770000000E+01 0.  1.
         15    1    1    2    0    0 -0.74354266912E+00  0.24055517352E+01  0.55048978410E+01  0.63088163780E+01  0.17770000000E+01 0. -1.
</event>
<event>
 6    1  0.6564965E-004  0.5001647E+03  0.7546771E-02  0.9399441E-01
        -11   -1    0    0    0    0  0.00000000000E+00  0.00000000000E+00  0.50000000000E+03  0.50000000000E+03  0.00000000000E+00 0. -1.
         11   -1    0    0    0    0 -0.00000000000E+00 -0.00000000000E+00 -0.50000000000E+03  0.50000000000E+03  0.00000000000E+00 0.  1.
        -11    1    1    2    0    0 -0.44004608570E+01  0.14839693953E+01  0.11103000295E+03  0.11112707940E+03  0.00000000000E+00 0. -1.
         11    1    1    2    0    0  0.20610366396E+01  0.90972997583E+01 -0.49974822377E+03  0.49983526876E+03  0.00000000000E+00 0.  1.
        -15    1    1    2    0    0 -0.30098779515E+01 -0.38301531335E+00  0.14309304641E+03  0.14313624183E+03  0.17770000000E+01 0. -1.
         15    1    1    2    0    0  0.53493021689E+01 -0.10198253840E+02  0.24562517441E+03  0.24590141001E+03  0.17770000000E+01 0.  1.
</event>
<event>
 6    1  0.6564965E-004  0.4741543E+03  0.7546771E-02  0.9459574E-01
        -11   -1    0    0    0    0  0.00000000000E+00  0.00000000000E+00  0.50000000000E+03  0.50000000000E+03  0.00000000000E+00 0. -1.
         11   -1    0    0    0    0 -0.00000000000E+00 -0.00000000000E+00 -0.50000000000E+03  0.50000000000E+03  0.00000000000E+00 0. -1.
        -11    1    1    2    0    0 -0.85506641966E+01  0.29011697514E+02  0.46645387321E+03  0.46743342658E+03  0.00000000000E+00 0. -1.
         11    1    1    2    0    0  0.72845812809E+01  0.11107218708E+02 -0.48166291297E+03  0.48184603056E+03  0.00000000000E+00 0. -1.
        -15    1    1    2    0    0 -0.55483202456E+01 -0.39359511805E+01  0.11754940887E+02  0.13697150561E+02  0.17770000000E+01 0.  1.
         15    1    1    2    0    0  0.68144031613E+01 -0.36182965041E+02  0.34540988747E+01  0.37023392304E+02  0.17770000000E+01 0. -1.
</event>
<event>
 6    1  0.6564965E-004  0.5011234E+03  0.7546771E-02  0.9397300E-01
        -11   -1    0    0    0    0  0.00000000000E+00  0.00000000000E+00  0.50000000000E+03  0.50000000000E+03  0.00000000000E+00 0.  1.
         11   -1    0    0    0    0 -0.00000000000E+00 -0.00000000000E+00 -0.50000000000E+03  0.50000000000E+03  0.00000000000E+00 0. -1.
        -11    1    1    2    0    0 -0.21472573439E+01  0.21000321038E+02  0.87429054845E+02  0.89941446669E+02  0.00000000000E+00 0.  1.
         11    1    1    2    0    0  0.87258422712E+01 -0.18520542227E+02 -0.49845634555E+03  0.49887661724E+03  0.00000000000E+00 0. -1.
        -15    1    1    2    0    0  0.15652389231E+01  0.32539950492E-01  0.60033969319E+02  0.60080664385E+02  0.17770000000E+01 0. -1.
         15    1    1    2    0    0 -0.81438238504E+01 -0.25123187606E+01  0.35099332138E+03  0.35110127171E+03  0.17770000000E+01 0.  1.
</event>
<event>
 6    1  0.6564965E-004  0.5018115E+03  0.7546771E-02  0.9395765E-01
        -11   -1    0    0    0    0  0.00000000000E+00  0.00000000000E+00  0.50000000000E+03  0.50000000000E+03  0.00000000000E+00 0. -1.
         11   -1    0    0    0    0 -0.00000000000E+00 -0.00000000000E+00 -0.50000000000E+03  0.50000000000E+03  0.00000000000E+00 0.  1.
        -11    1    1    2    0    0  0.12451146851E+02  0.31877882800E+01  0.43668401784E+03  0.43687312172E+03  0.00000000000E+00 0. -1.
         11    1    1    2    0    0  0.77165182762E+00  0.11084200414E+02 -0.49806458425E+03  0.49818850351E+03  0.00000000000E+00 0.  1.
        -15    1    1    2    0    0 -0.17751741842E+01 -0.61558578598E+01  0.14129991549E+02  0.15616024448E+02  0.17770000000E+01 0.  1.
         15    1    1    2    0    0 -0.11447624495E+02 -0.81161308337E+01  0.47250574869E+02  0.49322350316E+02  0.17770000000E+01 0. -1.
</event>
<event>
 6    1  0.6564965E-004  0.5016043E+03  0.7546771E-02  0.9396227E-01
        -11   -1    0    0    0    0  0.00000000000E+00  0.00000000000E+00  0.50000000000E+03  0.50000000000E+03  0.00000000000E+00 0.  1.
         11   -1    0    0    0    0 -0.00000000000E+00 -0.00000000000E+00 -0.50000000000E+03  0.50000000000E+03  0.00000000000E+00 0.  1.
        -11    1    1    2    0    0  0.46012411831E+01 -0.10699359155E+02  0.28087042457E+03  0.28111179823E+03  0.00000000000E+00 0.  1.
         11    1    1    2    0    0  0.30293482613E+01 -0.84446373912E+01 -0.49831491434E+03  0.49839566883E+03  0.00000000000E+00 0.  1.
        -15    1    1    2    0    0 -0.38880812788E+01  0.19346985400E+02  0.21448217910E+03  0.21539541755E+03  0.17770000000E+01 0.  1.
         15    1    1    2    0    0 -0.37425081655E+01 -0.20298885440E+00  0.29623106684E+01  0.50971153940E+01  0.17770000000E+01 0.  1.
</event>
<event>
 6    1  0.6564965E-004  0.5028302E+03  0.7546771E-02  0.9393499E-01
        -11   -1    0    0    0    0  0.00000000000E+00  0.00000000000E+00  0.50000000000E+03  0.50000000000E+03  0.00000000000E+00 0.  1.
         11   -1    0    0    0    0 -0.00000000000E+00 -0.00000000000E+00 -0.50000000000E+03  0.50000000000E+03  0.00000000000E+00 0.  1.
        -11    1    1    2    0    0 -0.51044415906E+01 -0.24477221813E+02  0.39184309079E+03  0.39264003554E+03  0.00000000000E+00 0.  1.
         11    1    1    2    0    0 -0.17417954932E+02  0.65064131030E+01 -0.49682195688E+03  0.49716976517E+03  0.00000000000E+00 0.  1.
        -15    1    1    2    0    0  0.18221274581E+02  0.10490920432E+02  0.92742454207E+02  0.95112537556E+02  0.17770000000E+01 0.  1.
         15    1    1    2    0    0  0.43011219409E+01  0.74798882779E+01  0.12236411881E+02  0.15077661732E+02  0.17770000000E+01 0. -1.
</event>
<event>
 6    1  0.6564965E-004  0.4818254E+03  0.7546771E-02  0.9441421E-01
        -11   -1    0    0    0    0  0.00000000000E+00  0.00000000000E+00  0.50000000000E+03  0.50000000000E+03  0.00000000000E+00 0. -1.
         11   -1    0    0    0    0 -0.00000000000E+00 -0.00000000000E+00 -0.50000000000E+03  0.50000000000E+03  0.00000000000E+00 0.  1.
        -11    1    1    2    0    0  0.92522648968E+01 -0.18155135836E+02  0.47409262090E+03  0.47453032206E+03  0.00000000000E+00 0. -1.
         11    1    1    2    0    0  0.91437303397E+01 -0.38869210836E+01 -0.48957148890E+03  0.48967229726E+03  0.00000000000E+00 0.  1.
        -15    1    1    2    0    0 -0.22008868114E+01  0.13356609879E+02  0.83635398880E+01  0.16010916859E+02  0.17770000000E+01 0.  1.
         15    1    1    2    0    0 -0.16195108425E+02  0.86854470407E+01  0.71153281180E+01  0.19786463818E+02  0.17770000000E+01 0. -1.
</event>
<event>
 6    1  0.6564965E-004  0.5181873E+03  0.7546771E-02  0.9360009E-01
        -11   -1    0    0    0    0  0.00000000000E+00  0.00000000000E+00  0.50000000000E+03  0.50000000000E+03  0.00000000000E+00 0. -1.
         11   -1    0    0    0    0 -0.00000000000E+00 -0.00000000000E+00 -0.50000000000E+03  0.50000000000E+03  0.00000000000E+00 0. -1.
        -11    1    1    2    0    0 -0.18456726513E+02  0.14909045839E+02  0.44121122814E+03  0.44184870515E+03  0.00000000000E+00 0. -1.
         11    1    1    2    0    0 -0.17700979145E+02  0.49122521118E+01 -0.48146238042E+03  0.48181270079E+03  0.00000000000E+00 0. -1.
        -15    1    1    2    0    0  0.27557000380E+02 -0.11153708485E+02 -0.43177739899E+01  0.30093095290E+02  0.17770000000E+01 0. -1.
         15    1    1    2    0    0  0.86007052774E+01 -0.86675894662E+01  0.44568926271E+02  0.46245498769E+02  0.17770000000E+01 0.  1.
</event>
<event>
 6    1  0.6564965E-004  0.5009575E+03  0.7546771E-02  0.9397670E-01
        -11   -1    0    0    0    0  0.00000000000E+00  0.00000000000E+00  0.50000000000E+03  0.50000000000E+03  0.00000000000E+00 0.  1.
         11   -1    0    0    0    0 -0.00000000000E+00 -0.00000000000E+00 -0.50000000000E+03  0.50000000000E+03  0.00000000000E+00 0. -1.
        -11    1    1    2    0    0  0.71057090113E+00 -0.71366202395E+01  0.49899093483E+03  0.49904247244E+03  0.00000000000E+00 0.  1.
         11    1    1    2    0    0  0.64696351835E+01  0.25773257704E+01 -0.43271780639E+03  0.43277384251E+03  0.00000000000E+00 0. -1.
        -15    1    1    2    0    0  0.25240014196E+01 -0.10177604096E+01 -0.30146838474E+02  0.30321543799E+02  0.17770000000E+01 0. -1.
         15    1    1    2    0    0 -0.97042075042E+01  0.55770548787E+01 -0.36126289965E+02  0.37862141250E+02  0.17770000000E+01 0.  1.
</event>
<event>
 6    1  0.6564965E-004  0.5001587E+03  0.7546771E-02  0.9399455E-01
        -11   -1    0    0    0    0  0.00000000000E+00  0.00000000000E+00  0.50000000000E+03  0.50000000000E+03  0.00000000000E+00 0. -1.
         11   -1    0    0    0    0 -0.00000000000E+00 -0.00000000000E+00 -0.50000000000E+03  0.50000000000E+03  0.00000000000E+00 0.  1.
        -11    1    1    2    0    0  0.75131162297E+01  0.13505777091E+02  0.49960230011E+03  0.49984128601E+03  0.00000000000E+00 0. -1.
         11    1    1    2    0    0 -0.31861172204E+01 -0.11766064208E+01 -0.21083951695E+03  0.21086687187E+03  0.00000000000E+00 0.  1.
        -15    1    1    2    0    0  0.28151040723E+01 -0.17928998688E+01 -0.11133157180E+03  0.11139576253E+03  0.17770000000E+01 0.  1.
         15    1    1    2    0    0 -0.71421030816E+01 -0.10536270801E+02 -0.17743121136E+03  0.17789607958E+03  0.17770000000E+01 0. -1.
</event>
<event>
 6    1  0.6564965E-004  0.5002122E+03  0.7546771E-02  0.9399335E-01
        -11   -1    0    0    0    0  0.00000000000E+00  0.00000000000E+00  0.50000000000E+03  0.50000000000E+03  0.00000000000E+00 0. -1.
         11   -1    0    0    0    0 -0.00000000000E+00 -0.00000000000E+00 -0.50000000000E+03  0.50000000000E+03  0.00000000000E+00 0. -1.
        -11    1    1    2    0    0  0.14251319006E+02 -0.87125277451E+00  0.49958379107E+03  0.49978777844E+03  0.00000000000E+00 0. -1.
         11    1    1    2    0    0  0.81810059242E+00 -0.50643922551E+01 -0.45198800029E+02  0.45488997368E+02  0.00000000000E+00 0. -1.
        -15    1    1    2    0    0 -0.12160287690E+02  0.47413920448E+01 -0.29057185977E+03  0.29087027489E+03  0.17770000000E+01 0. -1.
         15    1    1    2    0    0 -0.29091319087E+01  0.11942529848E+01 -0.16381313127E+03  0.16385294930E+03  0.17770000000E+01 0.  1.
</event>
<event>
 6    1  0.6564965E-004  0.5022946E+03  0.7546771E-02  0.9394690E-01
        -11   -1    0    0    0    0  0.00000000000E+00  0.00000000000E+00  0.50000000000E+03  0.50000000000E+03  0.00000000000E+00 0.  1.
         11   -1    0    0    0    0 -0.00000000000E+00 -0.00000000000E+00 -0.50000000000E+03  0.50000000000E+03  0.00000000000E+00 0.  1.
        -11    1    1    2    0    0 -0.47542771356E+01  0.57248763100E+01  0.49764977273E+03  0.49770540851E+03  0.00000000000E+00 0.  1.
         11    1    1    2    0    0  0.24819156477E+01  0.10977200902E+02 -0.46334077847E+03  0.46347743832E+03  0.00000000000E+00 0.  1.
        -15    1    1    2    0    0  0.35058841369E+01 -0.13329597959E+02 -0.23660948516E+02  0.27440255448E+02  0.17770000000E+01 0.  1.
         15    1    1    2    0    0 -0.12335226490E+01 -0.33724792524E+01 -0.10648045748E+02  0.11376897718E+02  0.17770000000E+01 0. -1.
</event>
<event>
 6    1  0.6564965E-004  0.5055126E+03  0.7546771E-02  0.9387559E-01
        -11   -1    0    0    0    0  0.00000000000E+00  0.00000000000E+00  0.50000000000E+03  0.50000000000E+03  0.00000000000E+00 0. -1.
         11   -1    0    0    0    0 -0.00000000000E+00 -0.00000000000E+00 -0.50000000000E+03  0.50000000000E+03  0.00000000000E+00 0. -1.
        -11    1    1    2    0    0 -0.14427187819E+01  0.15407514138E+02  0.49424523038E+03  0.49448743228E+03  0.00000000000E+00 0. -1.
         11    1    1    2    0    0 -0.12836171887E+02  0.11518233793E+00 -0.47403462318E+03  0.47420839781E+03  0.00000000000E+00 0. -1.
        -15    1    1    2    0    0  0.13261079983E+02 -0.11488843682E+02 -0.10332371487E+02  0.20439310189E+02  0.17770000000E+01 0. -1.
         15    1    1    2    0    0  0.10178106864E+01 -0.40338527934E+01 -0.98782357152E+01  0.10864859723E+02  0.17770000000E+01 0.  1.
</event>
<event>
 6    1  0.6564965E-004  0.4819630E+03  0.7546771E-02  0.9441099E-01
        -11   -1    0    0    0    0  0.00000000000E+00  0.00000000000E+00  0.50000000000E+03  0.50000000000E+03  0.00000000000E+00 0. -1.
         11   -1    0    0    0    0 -0.00000000000E+00 -0.00000000000E+00 -0.50000000000E+03  0.50000000000E+03  0.00000000000E+00 0.  1.
        -11    1    1    2    0    0  0.52645249747E+01 -0.22145576911E+02  0.47931631113E+03  0.47985650763E+03  0.00000000000E+00 0. -1.
         11    1    1    2    0    0 -0.15239833978E+01 -0.64269569622E+01 -0.48446887566E+03  0.48451390051E+03  0.00000000000E+00 0.  1.
        -15    1    1    2    0    0 -0.65908144649E+01  0.27686385572E+02  0.95076961780E+01  0.30058755746E+02  0.17770000000E+01 0.  1.
         15    1    1    2    0    0  0.28502728881E+01  0.88614830093E+00 -0.43551316492E+01  0.55708361159E+01  0.17770000000E+01 0. -1.
</event>
<event>
 6    1  0.6564965E-004  0.5159280E+03  0.7546771E-02  0.9364858E-01
        -11   -1    0    0    0    0  0.00000000000E+00  0.00000000000E+00  0.50000000000E+03  0.50000000000E+03  0.00000000000E+00 0.  1.
         11   -1    0    0    0    0 -0.00000000000E+00 -0.00000000000E+00 -0.50000000000E+03  0.50000000000E+03  0.00000000000E+00 0.  1.
        -11    1    1    2    0    0  0.38120631713E+02  0.16281347757E+02  0.48229389922E+03  0.48407196787E+03  0.00000000000E+00 0.  1.
         11    1    1    2    0    0  0.27657898376E+02 -0.33481503094E+02 -0.41796782217E+03  0.42021788487E+03  0.00000000000E+00 0.  1.
        -15    1    1    2    0    0 -0.57031350979E+02  0.89378308508E+01 -0.46589341224E+02  0.74203667426E+02  0.17770000000E+01 0. -1.
         15    1    1    2    0    0 -0.87471791097E+01  0.82623244867E+01 -0.17736735823E+02  0.21506479836E+02  0.17770000000E+01 0.  1.
</event>
<event>
 6    1  0.6564965E-004  0.5006525E+03  0.7546771E-02  0.9398351E-01
        -11   -1    0    0    0    0  0.00000000000E+00  0.00000000000E+00  0.50000000000E+03  0.50000000000E+03  0.00000000000E+00 0. -1.
         11   -1    0    0    0    0 -0.00000000000E+00 -0.00000000000E+00 -0.50000000000E+03  0.50000000000E+03  0.00000000000E+00 0. -1.
        -11    1    1    2    0    0 -0.60426892058E+01  0.11043211830E+02  0.20869981090E+03  0.20907911825E+03  0.00000000000E+00 0. -1.
         11    1    1    2    0    0  0.44009912471E+01  0.10304061621E+02 -0.49922178086E+03  0.49934750315E+03  0.00000000000E+00 0. -1.
        -15    1    1    2    0    0  0.33987651405E+01 -0.11261968952E+02  0.21638944886E+03  0.21671625425E+03  0.17770000000E+01 0. -1.
         15    1    1    2    0    0 -0.17570671818E+01 -0.10085304499E+02  0.74132521107E+02  0.74857124354E+02  0.17770000000E+01 0.  1.
</event>
<event>
 6    1  0.6564965E-004  0.5010903E+03  0.7546771E-02  0.9397373E-01
        -11   -1    0    0    0    0  0.00000000000E+00  0.00000000000E+00  0.50000000000E+03  0.50000000000E+03  0.00000000000E+00 0.  1.
         11   -1    0    0    0    0 -0.00000000000E+00 -0.00000000000E+00 -0.50000000000E+03  0.50000000000E+03  0.00000000000E+00 0. -1.
        -11    1    1    2    0    0 -0.16539112481E+02 -0.65345956879E+01  0.49859270645E+03  0.49890974145E+03  0.00000000000E+00 0.  1.
         11    1    1    2    0    0 -0.58276709454E+01 -0.61823747342E+01 -0.19640508866E+03  0.19658876458E+03  0.00000000000E+00 0. -1.
        -15    1    1    2    0    0  0.22772107739E+02  0.16388614642E+02 -0.17465622272E+03  0.17690423806E+03  0.17770000000E+01 0. -1.
         15    1    1    2    0    0 -0.40532431262E+00 -0.36716442201E+01 -0.12753139507E+03  0.12759725592E+03  0.17770000000E+01 0.  1.
</event>
<event>
 6    1  0.6564965E-004  0.5064008E+03  0.7546771E-02  0.9385600E-01
        -11   -1    0    0    0    0  0.00000000000E+00  0.00000000000E+00  0.50000000000E+03  0.50000000000E+03  0.00000000000E+00 0.  1.
         11   -1    0    0    0    0 -0.00000000000E+00 -0.00000000000E+00 -0.50000000000E+03  0.50000000000E+03  0.00000000000E+00 0.  1.
        -11    1    1    2    0    0  0.16852693408E+02 -0.53099428319E+01  0.46805410644E+03  0.46838750552E+03  0.00000000000E+00 0.  1.
         11    1    1    2    0    0 -0.58025023546E+00  0.13174626296E+02 -0.49342298073E+03  0.49359917482E+03  0.00000000000E+00 0.  1.
        -15    1    1    2    0    0 -0.71818228884E+01 -0.36121370286E+01 -0.22822569108E+01  0.85435671426E+01  0.17770000000E+01 0. -1.
         15    1    1    2    0    0 -0.90906202839E+01 -0.42525464352E+01  0.27651131200E+02  0.29469752526E+02  0.17770000000E+01 0.  1.
</event>
<event>
 6    1  0.6564965E-004  0.5027921E+03  0.7546771E-02  0.9393584E-01
        -11   -1    0    0    0    0  0.00000000000E+00  0.00000000000E+00  0.50000000000E+03  0.50000000000E+03  0.00000000000E+00 0.  1.
         11   -1    0    0    0    0 -0.00000000000E+00 -0.00000000000E+00 -0.50000000000E+03  0.50000000000E+03  0.00000000000E+00 0.  1.
        -11    1    1    2    0    0 -0.22475764158E+02 -0.13228863581E+01  0.48482133456E+02  0.53454908729E+02  0.00000000000E+00 0.  1.
         11    1    1    2    0    0  0.37061443067E+01  0.13577965438E+02 -0.49700862749E+03  0.49720787650E+03  0.00000000000E+00 0.  1.
        -15    1    1    2    0    0  0.28361707616E+01 -0.10257131859E+02  0.19081169094E+03  0.19111648738E+03  0.17770000000E+01 0. -1.
         15    1    1    2    0    0  0.15933449090E+02 -0.19979472206E+01  0.25771480309E+03  0.25822072739E+03  0.17770000000E+01 0.  1.
</event>
<event>
 6    1  0.6564965E-004  0.5005369E+03  0.7546771E-02  0.9398609E-01
        -11   -1    0    0    0    0  0.00000000000E+00  0.00000000000E+00  0.50000000000E+03  0.50000000000E+03  0.00000000000E+00 0. -1.
         11   -1    0    0    0    0 -0.00000000000E+00 -0.00000000000E+00 -0.50000000000E+03  0.50000000000E+03  0.00000000000E+00 0. -1.
        -11    1    1    2    0    0 -0.23241959154E+01 -0.69662326170E+01  0.21077113897E+03  0.21089903581E+03  0.00000000000E+00 0. -1.
         11    1    1    2    0    0  0.29989880433E+01 -0.86041329723E+01 -0.49937994123E+03  0.49946306244E+03  0.00000000000E+00 0. -1.
        -15    1    1    2    0    0  0.52646011688E+01  0.12465950245E+02  0.25255369793E+03  0.25292220940E+03  0.17770000000E+01 0. -1.
         15    1    1    2    0    0 -0.59393932966E+01  0.31044153446E+01  0.36055104334E+02  0.36715692353E+02  0.17770000000E+01 0.  1.
</event>
<event>
 6    1  0.6564965E-004  0.5001892E+03  0.7546771E-02  0.9399387E-01
        -11   -1    0    0    0    0  0.00000000000E+00  0.00000000000E+00  0.50000000000E+03  0.50000000000E+03  0.00000000000E+00 0.  1.
         11   -1    0    0    0    0 -0.00000000000E+00 -0.00000000000E+00 -0.50000000000E+03  0.50000000000E+03  0.00000000000E+00 0.  1.
        -11    1    1    2    0    0  0.10454478247E+01 -0.20534300749E+02  0.49938774310E+03  0.49981083264E+03  0.00000000000E+00 0.  1.
         11    1    1    2    0    0 -0.31073630447E+01  0.46396826183E+01 -0.12163499462E+03  0.12176310721E+03  0.00000000000E+00 0.  1.
        -15    1    1    2    0    0  0.49633248034E+01  0.12807459585E+02 -0.15280173111E+03  0.15342813423E+03  0.17770000000E+01 0.  1.
         15    1    1    2    0    0 -0.29014095834E+01  0.30871585459E+01 -0.22495101737E+03  0.22499792592E+03  0.17770000000E+01 0. -1.
</event>
<event>
 6    1  0.6564965E-004  0.5038304E+03  0.7546771E-02  0.9391279E-01
        -11   -1    0    0    0    0  0.00000000000E+00  0.00000000000E+00  0.50000000000E+03  0.50000000000E+03  0.00000000000E+00 0. -1.
         11   -1    0    0    0    0 -0.00000000000E+00 -0.00000000000E+00 -0.50000000000E+03  0.50000000000E+03  0.00000000000E+00 0. -1.
        -11    1    1    2    0    0  0.56302650972E+02  0.11635172299E+02  0.49282741828E+03  0.49616955766E+03  0.00000000000E+00 0. -1.
         11    1    1    2    0    0  0.42783060514E+01 -0.12562679802E+01 -0.28156317388E+03  0.28159847833E+03  0.00000000000E+00 0. -1.
        -15    1    1    2    0    0 -0.56510083931E+02 -0.13141255612E+02 -0.15149576685E+03  0.16223503718E+03  0.17770000000E+01 0. -1.
         15    1    1    2    0    0 -0.40708730921E+01  0.27623512937E+01 -0.59768477548E+02  0.59996926837E+02  0.17770000000E+01 0. -1.
</event>
<event>
 6    1  0.6564965E-004  0.4906411E+03  0.7546771E-02  0.9420998E-01
        -11   -1    0    0    0    0  0.00000000000E+00  0.00000000000E+00  0.50000000000E+03  0.50000000000E+03  0.00000000000E+00 0. -1.
         11   -1    0    0    0    0 -0.00000000000E+00 -0.00000000000E+00 -0.50000000000E+03  0.50000000000E+03  0.00000000000E+00 0. -1.
        -11    1    1    2    0    0  0.65879488611E+00 -0.77095170174E+01  0.49173551706E+03  0.49179639019E+03  0.00000000000E+00 0. -1.
         11    1    1    2    0    0 -0.36599131575E+01 -0.94305083113E+01 -0.48953795126E+03  0.48964245647E+03  0.00000000000E+00 0. -1.
        -15    1    1    2    0    0  0.37245392379E+01  0.10943638230E+02 -0.28609739660E+01  0.12040693970E+02  0.17770000000E+01 0. -1.
         15    1    1    2    0    0 -0.72342096642E+00  0.61963870991E+01  0.66340816805E+00  0.65204593683E+01  0.17770000000E+01 0.  1.
</event>
<event>
 6    1  0.6564965E-004  0.5020907E+03  0.7546771E-02  0.9395144E-01
        -11   -1    0    0    0    0  0.00000000000E+00  0.00000000000E+00  0.50000000000E+03  0.50000000000E+03  0.00000000000E+00 0. -1.
         11   -1    0    0    0    0 -0.00000000000E+00 -0.00000000000E+00 -0.50000000000E+03  0.50000000000E+03  0.00000000000E+00 0. -1.
        -11    1    1    2    0    0  0.59678213552E-01 -0.88949855464E+01  0.49782980515E+03  0.49790926807E+03  0.00000000000E+00 0. -1.
         11    1    1    2    0    0 -0.69953248766E+01 -0.59772012259E+01 -0.45797933711E+03  0.45807175718E+03  0.00000000000E+00 0. -1.
        -15    1    1    2    0    0  0.74226108137E+01  0.12562392180E+02 -0.37384456858E+02  0.40170439282E+02  0.17770000000E+01 0.  1.
         15    1    1    2    0    0 -0.48696415060E+00  0.23097945927E+01 -0.24660111823E+01  0.38485354742E+01  0.17770000000E+01 0. -1.
</event>
<event>
 6    1  0.6564965E-004  0.5043578E+03  0.7546771E-02  0.9390111E-01
        -11   -1    0    0    0    0  0.00000000000E+00  0.00000000000E+00  0.50000000000E+03  0.50000000000E+03  0.00000000000E+00 0.  1.
         11   -1    0    0    0    0 -0.00000000000E+00 -0.00000000000E+00 -0.50000000000E+03  0.50000000000E+03  0.00000000000E+00 0.  1.
        -11    1    1    2    0    0  0.30072703385E+02  0.40105705713E+02  0.92668382404E+02  0.10535779144E+03  0.00000000000E+00 0.  1.
         11    1    1    2    0    0 -0.36150750251E+02 -0.56004465489E+02 -0.49113933536E+03  0.49564223351E+03  0.00000000000E+00 0.  1.
        -15    1    1    2    0    0  0.36239548118E+00  0.73879603288E+00  0.10153621828E+02  0.10340740558E+02  0.17770000000E+01 0.  1.
         15    1    1    2    0    0  0.57156513855E+01  0.15159963743E+02  0.38831733113E+03  0.38865923449E+03  0.17770000000E+01 0.  1.
</event>
<event>
 6    1  0.6564965E-004  0.5001113E+03  0.7546771E-02  0.9399561E-01
        -11   -1    0    0    0    0  0.00000000000E+00  0.00000000000E+00  0.50000000000E+03  0.50000000000E+03  0.00000000000E+00 0. -1.
         11   -1    0    0    0    0 -0.00000000000E+00 -0.00000000000E+00 -0.50000000000E+03  0.50000000000E+03  0.00000000000E+00 0.  1.
        -11    1    1    2    0    0  0.38982993120E+01 -0.26650774463E+01  0.34912361695E+03  0.34915555171E+03  0.00000000000E+00 0. -1.
         11    1    1    2    0    0 -0.56509976926E+01 -0.38617696711E+01 -0.49984185079E+03  0.49988871045E+03  0.00000000000E+00 0.  1.
        -15    1    1    2    0    0  0.22521748702E+01  0.18599198069E+01  0.67064992188E+02  0.67152084849E+02  0.17770000000E+01 0. -1.
         15    1    1    2    0    0 -0.49947648962E+00  0.46669273104E+01  0.83653241649E+02  0.83803652991E+02  0.17770000000E+01 0.  1.
</event>
<event>
 6    1  0.6564965E-004  0.5063079E+03  0.7546771E-02  0.9385805E-01
        -11   -1    0    0    0    0  0.00000000000E+00  0.00000000000E+00  0.50000000000E+03  0.50000000000E+03  0.00000000000E+00 0. -1.
         11   -1    0    0    0    0 -0.00000000000E+00 -0.00000000000E+00 -0.50000000000E+03  0.50000000000E+03  0.00000000000E+00 0.  1.
        -11    1    1    2    0    0 -0.32783051800E+02  0.36316833584E+01  0.45490192078E+03  0.45609612489E+03  0.00000000000E+00 0. -1.
         11    1    1    2    0    0  0.61077590873E+01 -0.54053651768E+01 -0.49362470410E+03  0.49369208135E+03  0.00000000000E+00 0.  1.
        -15    1    1    2    0    0 -0.12507576347E+01  0.32167412342E+01  0.37333791672E+01  0.53858767007E+01  0.17770000000E+01 0.  1.
         15    1    1    2    0    0  0.27926050347E+02 -0.14430594157E+01  0.34989404153E+02  0.44825917062E+02  0.17770000000E+01 0. -1.
</event>
<event>
 6    1  0.6564965E-004  0.5002933E+03  0.7546771E-02  0.9399154E-01
        -11   -1    0    0    0    0  0.00000000000E+00  0.00000000000E+00  0.50000000000E+03  0.50000000000E+03  0.00000000000E+00 0.  1.
         11   -1    0    0    0    0 -0.00000000000E+00 -0.00000000000E+00 -0.50000000000E+03  0.50000000000E+03  0.00000000000E+00 0.  1.
        -11    1    1    2    0    0  0.45484306264E+02  0.19554647102E+01  0.49762855665E+03  0.49970674035E+03  0.00000000000E+00 0.  1.
         11    1    1    2    0    0 -0.13803358519E+01  0.98690235377E+00 -0.69025430629E+02  0.69046284309E+02  0.00000000000E+00 0.  1.
        -15    1    1    2    0    0 -0.40158014639E+02  0.17498785671E+01 -0.39492023753E+03  0.39696458275E+03  0.17770000000E+01 0.  1.
         15    1    1    2    0    0 -0.39459557728E+01 -0.46922456311E+01 -0.33682888485E+02  0.34282392590E+02  0.17770000000E+01 0. -1.
</event>
<event>
 6    1  0.6564965E-004  0.4911153E+03  0.7546771E-02  0.9419912E-01
        -11   -1    0    0    0    0  0.00000000000E+00  0.00000000000E+00  0.50000000000E+03  0.50000000000E+03  0.00000000000E+00 0.  1.
         11   -1    0    0    0    0 -0.00000000000E+00 -0.00000000000E+00 -0.50000000000E+03  0.50000000000E+03  0.00000000000E+00 0.  1.
        -11    1    1    2    0    0 -0.50656760400E+01  0.11797164609E+02  0.49093149548E+03  0.49109934577E+03  0.00000000000E+00 0.  1.
         11    1    1    2    0    0  0.72777613003E+01  0.14036652184E+01 -0.49116664632E+03  0.49122256722E+03  0.00000000000E+00 0.  1.
        -15    1    1    2    0    0 -0.45435849751E+01 -0.84119649854E+00 -0.34156399749E+00  0.49624762910E+01  0.17770000000E+01 0. -1.
         15    1    1    2    0    0  0.23314997147E+01 -0.12359633329E+02  0.57671483958E+00  0.12715610719E+02  0.17770000000E+01 0.  1.
</event>
<event>
 6    1  0.6564965E-004  0.5030070E+03  0.7546771E-02  0.9393106E-01
        -11   -1    0    0    0    0  0.00000000000E+00  0.00000000000E+00  0.50000000000E+03  0.50000000000E+03  0.00000000000E+00 0. -1.
         11   -1    0    0    0    0 -0.00000000000E+00 -0.00000000000E+00 -0.50000000000E+03  0.50000000000E+03  0.00000000000E+00 0. -1.
        -11    1    1    2    0    0 -0.21543272629E+02  0.98927732099E+01  0.27755072622E+03  0.27856127725E+03  0.00000000000E+00 0. -1.
         11    1    1    2    0    0 -0.68818017816E+01  0.93575043735E+01 -0.49685724068E+03  0.49699299764E+03  0.00000000000E+00 0. -1.
        -15    1    1    2    0    0  0.18630940707E+02  0.52982043690E+01  0.12440824826E+03  0.12591962868E+03  0.17770000000E+01 0.  1.
         15    1    1    2    0    0  0.97941337033E+01 -0.24548481952E+02  0.94898266196E+02  0.98526096428E+02  0.17770000000E+01 0. -1.
</event>
<event>
 6    1  0.6564965E-004  0.5003873E+03  0.7546771E-02  0.9398943E-01
        -11   -1    0    0    0    0  0.00000000000E+00  0.00000000000E+00  0.50000000000E+03  0.50000000000E+03  0.00000000000E+00 0.  1.
         11   -1    0    0    0    0 -0.00000000000E+00 -0.00000000000E+00 -0.50000000000E+03  0.50000000000E+03  0.00000000000E+00 0.  1.
        -11    1    1    2    0    0 -0.79534369277E+01  0.67492552105E+00  0.39373746419E+02  0.40174675984E+02  0.00000000000E+00 0.  1.
         11    1    1    2    0    0  0.12024859807E+02 -0.29523641825E+02 -0.49859461298E+03  0.49961268076E+03  0.00000000000E+00 0.  1.
        -15    1    1    2    0    0 -0.22836957360E+01  0.21490937127E+02  0.28800046675E+03  0.28881568901E+03  0.17770000000E+01 0. -1.
         15    1    1    2    0    0 -0.17877271434E+01  0.73577791771E+01  0.17122039982E+03  0.17139695425E+03  0.17770000000E+01 0.  1.
</event>
<event>
 6    1  0.6564965E-004  0.5130762E+03  0.7546771E-02  0.9371017E-01
        -11   -1    0    0    0    0  0.00000000000E+00  0.00000000000E+00  0.50000000000E+03  0.50000000000E+03  0.00000000000E+00 0.  1.
         11   -1    0    0    0    0 -0.00000000000E+00 -0.00000000000E+00 -0.50000000000E+03  0.50000000000E+03  0.00000000000E+00 0. -1.
        -11    1    1    2    0    0  0.26358629050E+02 -0.16626086066E+02  0.48592546759E+03  0.48692377649E+03  0.00000000000E+00 0.  1.
         11    1    1    2    0    0 -0.17767851064E+01  0.12109795414E+02 -0.46338614656E+03  0.46354775906E+03  0.00000000000E+00 0. -1.
        -15    1    1    2    0    0  0.28601836918E+01 -0.10269737884E+02  0.35187041756E+00  0.10813404124E+02  0.17770000000E+01 0.  1.
         15    1    1    2    0    0 -0.27442027636E+02  0.14786028535E+02 -0.22891191451E+02  0.38715060321E+02  0.17770000000E+01 0. -1.
</event>
<event>
 6    1  0.6564965E-004  0.5013088E+03  0.7546771E-02  0.9396886E-01
        -11   -1    0    0    0    0  0.00000000000E+00  0.00000000000E+00  0.50000000000E+03  0.50000000000E+03  0.00000000000E+00 0.  1.
         11   -1    0    0    0    0 -0.00000000000E+00 -0.00000000000E+00 -0.50000000000E+03  0.50000000000E+03  0.00000000000E+00 0.  1.
        -11    1    1    2    0    0  0.11315780638E+02  0.15458666472E+02  0.68082262796E+02  0.70726315951E+02  0.00000000000E+00 0.  1.
         11    1    1    2    0    0 -0.69411465562E+01 -0.88401465663E+01 -0.49856456677E+03  0.49869124210E+03  0.00000000000E+00 0.  1.
        -15    1    1    2    0    0 -0.41430161183E+00 -0.18366286975E+01  0.17193919645E+03  0.17195868648E+03  0.17770000000E+01 0.  1.
         15    1    1    2    0    0 -0.39603324702E+01 -0.47818912086E+01  0.25854310753E+03  0.25862375548E+03  0.17770000000E+01 0.  1.
</event>
<event>
 6    1  0.6564965E-004  0.5027004E+03  0.7546771E-02  0.9393788E-01
        -11   -1    0    0    0    0  0.00000000000E+00  0.00000000000E+00  0.50000000000E+03  0.50000000000E+03  0.00000000000E+00 0. -1.
         11   -1    0    0    0    0 -0.00000000000E+00 -0.00000000000E+00 -0.50000000000E+03  0.50000000000E+03  0.00000000000E+00 0. -1.
        -11    1    1    2    0    0  0.12039345198E+02  0.69619663203E+00  0.49715339445E+03  0.49729963618E+03  0.00000000000E+00 0. -1.
         11    1    1    2    0    0  0.50367033211E+01 -0.47146618355E+01 -0.45340190158E+03  0.45345438666E+03  0.00000000000E+00 0. -1.
        -15    1    1    2    0    0 -0.28084550958E+00 -0.35505998205E+01 -0.59740979390E+01  0.71786634181E+01  0.17770000000E+01 0.  1.
         15    1    1    2    0    0 -0.16795203010E+02  0.75690650240E+01 -0.37777394931E+02  0.42067313751E+02  0.17770000000E+01 0. -1.
</event>
<event>
 6    1  0.6564965E-004  0.5021389E+03  0.7546771E-02  0.9395036E-01
        -11   -1    0    0    0    0  0.00000000000E+00  0.00000000000E+00  0.50000000000E+03  0.50000000000E+03  0.00000000000E+00 0. -1.
         11   -1    0    0    0    0 -0.00000000000E+00 -0.00000000000E+00 -0.50000000000E+03  0.50000000000E+03  0.00000000000E+00 0.  1.
        -11    1    1    2    0    0  0.87970828398E+01  0.57192615043E+01  0.46500186813E+03  0.46512023820E+03  0.00000000000E+00 0. -1.
         11    1    1    2    0    0 -0.11831550668E+02 -0.11993169989E+02 -0.49757597384E+03  0.49786109656E+03  0.00000000000E+00 0.  1.
        -15    1    1    2    0    0 -0.36727094124E+01 -0.38459493839E+00  0.12999046264E+01  0.42993242181E+01  0.17770000000E+01 0. -1.
         15    1    1    2    0    0  0.67071772401E+01  0.66585034228E+01  0.31274201087E+02  0.32719341024E+02  0.17770000000E+01 0.  1.
</event>
<event>
 6    1  0.6564965E-004  0.5007870E+03  0.7546771E-02  0.9398050E-01
        -11   -1    0    0    0    0  0.00000000000E+00  0.00000000000E+00  0.50000000000E+03  0.50000000000E+03  0.00000000000E+00 0. -1.
         11   -1    0    0    0    0 -0.00000000000E+00 -0.00000000000E+00 -0.50000000000E+03  0.50000000000E+03  0.00000000000E+00 0.  1.
        -11    1    1    2    0    0  0.21500534911E+02 -0.19848471994E+02  0.23749881067E+03  0.23929462993E+03  0.00000000000E+00 0. -1.
         11    1    1    2    0    0 -0.71021790256E+01  0.28028484128E+02 -0.49837491081E+03  0.49921296917E+03  0.00000000000E+00 0.  1.
        -15    1    1    2    0    0 -0.12177242968E+02 -0.85759577250E+01  0.22681873946E+03  0.22731416718E+03  0.17770000000E+01 0. -1.
         15    1    1    2    0    0 -0.22211129173E+01  0.39594559096E+00  0.34057360670E+02  0.34178233721E+02  0.17770000000E+01 0.  1.
</event>
<event>
 6    1  0.6564965E-004  0.4963315E+03  0.7546771E-02  0.9408056E-01
        -11   -1    0    0    0    0  0.00000000000E+00  0.00000000000E+00  0.50000000000E+03  0.50000000000E+03  0.00000000000E+00 0.  1.
         11   -1    0    0    0    0 -0.00000000000E+00 -0.00000000000E+00 -0.50000000000E+03  0.50000000000E+03  0.00000000000E+00 0.  1.
        -11    1    1    2    0    0 -0.11427193794E+02  0.97824743775E+01  0.80177019772E+01  0.17045853101E+02  0.00000000000E+00 0.  1.
         11    1    1    2    0    0  0.14167472817E+02 -0.22525475528E+02 -0.49006598842E+03  0.49078792501E+03  0.00000000000E+00 0.  1.
        -15    1    1    2    0    0  0.37104829563E+02 -0.24300312441E+02  0.24028503276E+03  0.24435083028E+03  0.17770000000E+01 0.  1.
         15    1    1    2    0    0 -0.39845108586E+02  0.37043313592E+02  0.24176325368E+03  0.24781539161E+03  0.17770000000E+01 0. -1.
</event>
<event>
 6    1  0.6564965E-004  0.4569898E+03  0.7546771E-02  0.9501551E-01
        -11   -1    0    0    0    0  0.00000000000E+00  0.00000000000E+00  0.50000000000E+03  0.50000000000E+03  0.00000000000E+00 0. -1.
         11   -1    0    0    0    0 -0.00000000000E+00 -0.00000000000E+00 -0.50000000000E+03  0.50000000000E+03  0.00000000000E+00 0.  1.
        -11    1    1    2    0    0 -0.34633303011E+02 -0.30605402902E+02  0.45691773614E+03  0.45924935924E+03  0.00000000000E+00 0. -1.
         11    1    1    2    0    0 -0.10765185996E+02 -0.93179603347E+01 -0.45650554720E+03  0.45672752078E+03  0.00000000000E+00 0.  1.
        -15    1    1    2    0    0  0.25574522092E+02  0.26890597694E+02  0.28323090216E+02  0.46717401394E+02  0.17770000000E+01 0. -1.
         15    1    1    2    0    0  0.19823966915E+02  0.13032765542E+02 -0.28735279153E+02  0.37305718582E+02  0.17770000000E+01 0.  1.
</event>
<event>
 6    1  0.6564965E-004  0.5011027E+03  0.7546771E-02  0.9397346E-01
        -11   -1    0    0    0    0  0.00000000000E+00  0.00000000000E+00  0.50000000000E+03  0.50000000000E+03  0.00000000000E+00 0. -1.
         11   -1    0    0    0    0 -0.00000000000E+00 -0.00000000000E+00 -0.50000000000E+03  0.50000000000E+03  0.00000000000E+00 0.  1.
        -11    1    1    2    0    0 -0.12990624475E+02  0.42658355170E+01  0.42475784383E+03  0.42497785774E+03  0.00000000000E+00 0. -1.
         11    1    1    2    0    0 -0.19240461531E+01 -0.68609518181E+01 -0.49884638537E+03  0.49889727481E+03  0.00000000000E+00 0.  1.
        -15    1    1    2    0    0  0.46305732623E+01 -0.27828796036E+01  0.27263403007E+02  0.27850269301E+02  0.17770000000E+01 0. -1.
         15    1    1    2    0    0  0.10284097365E+02  0.53779959048E+01  0.46825138536E+02  0.48274598149E+02  0.17770000000E+01 0.  1.
</event>
<event>
 6    1  0.6564965E-004  0.5006321E+03  0.7546771E-02  0.9398396E-01
        -11   -1    0    0    0    0  0.00000000000E+00  0.00000000000E+00  0.50000000000E+03  0.50000000000E+03  0.00000000000E+00 0.  1.
         11   -1    0    0    0    0 -0.00000000000E+00 -0.00000000000E+00 -0.50000000000E+03  0.50000000000E+03  0.00000000000E+00 0.  1.
        -11    1    1    2    0    0  0.69541437685E+01  0.65048050057E+01  0.49927708324E+03  0.49936787887E+03  0.00000000000E+00 0.  1.
         11    1    1    2    0    0 -0.17116856121E+01 -0.10276043495E+02 -0.44789304235E+03  0.44801417871E+03  0.00000000000E+00 0.  1.
        -15    1    1    2    0    0 -0.24279177413E+01  0.58525619828E+01 -0.21712505699E+02  0.22687835927E+02  0.17770000000E+01 0. -1.
         15    1    1    2    0    0 -0.28145404151E+01 -0.20813234937E+01 -0.29671535190E+02  0.29930106495E+02  0.17770000000E+01 0.  1.
</event>
<event>
 6    1  0.6564965E-004  0.5000827E+03  0.7546771E-02  0.9399625E-01
        -11   -1    0    0    0    0  0.00000000000E+00  0.00000000000E+00  0.50000000000E+03  0.50000000000E+03  0.00000000000E+00 0.  1.
         11   -1    0    0    0    0 -0.00000000000E+00 -0.00000000000E+00 -0.50000000000E+03  0.50000000000E+03  0.00000000000E+00 0. -1.
        -11    1    1    2    0    0  0.30035217242E+01 -0.86247864783E+00 -0.95642740774E+01  0.10061826414E+02  0.00000000000E+00 0.  1.
         11    1    1    2    0    0  0.66536071688E+01 -0.23714088525E+01 -0.48980454199E+03  0.48985547197E+03  0.00000000000E+00 0. -1.
        -15    1    1    2    0    0 -0.93652811423E+01  0.11104394739E+02  0.17419698599E+03  0.17481065107E+03  0.17770000000E+01 0.  1.
         15    1    1    2    0    0 -0.29184775077E+00 -0.78705072387E+01  0.32517183008E+03  0.32527205054E+03  0.17770000000E+01 0. -1.
</event>
<event>
 6    1  0.6564965E-004  0.5017212E+03  0.7546771E-02  0.9395967E-01
        -11   -1    0    0    0    0  0.00000000000E+00  0.00000000000E+00  0.50000000000E+03  0.50000000000E+03  0.00000000000E+00 0. -1.
         11   -1    0    0    0    0 -0.00000000000E+00 -0.00000000000E+00 -0.50000000000E+03  0.50000000000E+03  0.00000000000E+00 0. -1.
        -11    1    1    2    0    0 -0.26012945678E+02  0.37762510772E+02  0.18623335505E+03  0.19179557632E+03  0.00000000000E+00 0. -1.
         11    1    1    2    0    0  0.22224230836E+02 -0.41674944955E+02 -0.49603531540E+03  0.49827878903E+03  0.00000000000E+00 0. -1.
        -15    1    1    2    0    0  0.41800111835E+01  0.17821360265E+01  0.11491159136E+03  0.11501512970E+03  0.17770000000E+01 0. -1.
         15    1    1    2    0    0 -0.39129634168E+00  0.21302981566E+01  0.19489036899E+03  0.19491050495E+03  0.17770000000E+01 0.  1.
</event>
<event>
 6    1  0.6564965E-004  0.5021880E+03  0.7546771E-02  0.9394927E-01
        -11   -1    0    0    0    0  0.00000000000E+00  0.00000000000E+00  0.50000000000E+03  0.50000000000E+03  0.00000000000E+00 0. -1.
         11   -1    0    0    0    0 -0.00000000000E+00 -0.00000000000E+00 -0.50000000000E+03  0.50000000000E+03  0.00000000000E+00 0.  1.
        -11    1    1    2    0    0  0.68591841912E+01  0.66515888461E+01  0.49772027422E+03  0.49781197597E+03  0.00000000000E+00 0. -1.
         11    1    1    2    0    0  0.14412952595E+01 -0.73620971049E+01 -0.47673181163E+03  0.47679083258E+03  0.00000000000E+00 0.  1.
        -15    1    1    2    0    0 -0.51372365684E+01 -0.46695337226E+01 -0.72017070614E+01  0.10159628849E+02  0.17770000000E+01 0. -1.
         15    1    1    2    0    0 -0.31632428823E+01  0.53800419814E+01 -0.13786755530E+02  0.15237562610E+02  0.17770000000E+01 0.  1.
</event>
<event>
 6    1  0.6564965E-004  0.4534668E+03  0.7546771E-02  0.9510409E-01
        -11   -1    0    0    0    0  0.00000000000E+00  0.00000000000E+00  0.50000000000E+03  0.50000000000E+03  0.00000000000E+00 0.  1.
         11   -1    0    0    0    0 -0.00000000000E+00 -0.00000000000E+00 -0.50000000000E+03  0.50000000000E+03  0.00000000000E+00 0.  1.
        -11    1    1    2    0    0  0.28092844597E+02  0.15949982665E+02  0.45972903012E+03  0.46086265958E+03  0.00000000000E+00 0.  1.
         11    1    1    2    0    0  0.62737613970E+00  0.24610212852E+02 -0.44684546006E+03  0.44752309589E+03  0.00000000000E+00 0.  1.
        -15    1    1    2    0    0 -0.46144022935E+02 -0.34926386017E+02  0.13497562780E+02  0.59451368553E+02  0.17770000000E+01 0. -1.
         15    1    1    2    0    0  0.17423802198E+02 -0.56338094998E+01 -0.26381132838E+02  0.32162875980E+02  0.17770000000E+01 0.  1.
</event>
<event>
 6    1  0.6564965E-004  0.5040568E+03  0.7546771E-02  0.9390778E-01
        -11   -1    0    0    0    0  0.00000000000E+00  0.00000000000E+00  0.50000000000E+03  0.50000000000E+03  0.00000000000E+00 0.  1.
         11   -1    0    0    0    0 -0.00000000000E+00 -0.00000000000E+00 -0.50000000000E+03  0.50000000000E+03  0.00000000000E+00 0. -1.
        -11    1    1    2    0    0 -0.10846604508E+02 -0.14271684397E+02  0.45001535462E+03  0.45037223404E+03  0.00000000000E+00 0.  1.
         11    1    1    2    0    0  0.15499604822E+01 -0.83428793981E+01 -0.49587063895E+03  0.49594323928E+03  0.00000000000E+00 0. -1.
        -15    1    1    2    0    0  0.52540543014E+01  0.16352575780E+02  0.41314104612E+02  0.44777503170E+02  0.17770000000E+01 0.  1.
         15    1    1    2    0    0  0.40425897245E+01  0.62619880147E+01  0.45411797187E+01  0.89070235103E+01  0.17770000000E+01 0. -1.
</event>
<event>
 6    1  0.6564965E-004  0.5017206E+03  0.7546771E-02  0.9395968E-01
        -11   -1    0    0    0    0  0.00000000000E+00  0.00000000000E+00  0.50000000000E+03  0.50000000000E+03  0.00000000000E+00 0.  1.
         11   -1    0    0    0    0 -0.00000000000E+00 -0.00000000000E+00 -0.50000000000E+03  0.50000000000E+03  0.00000000000E+00 0.  1.
        -11    1    1    2    0    0 -0.11014846579E+01  0.24618809898E+02  0.23523952419E+03  0.23652681204E+03  0.00000000000E+00 0.  1.
         11    1    1    2    0    0 -0.19759025877E+01 -0.86672213711E+01 -0.49820009466E+03  0.49827939877E+03  0.00000000000E+00 0.  1.
        -15    1    1    2    0    0 -0.33610016407E+01  0.40088578734E+01  0.10568045759E+02  0.11925124470E+02  0.17770000000E+01 0. -1.
         15    1    1    2    0    0  0.64383888864E+01 -0.19960446400E+02  0.25239252471E+03  0.25326866472E+03  0.17770000000E+01 0.  1.
</event>
<event>
 6    1  0.6564965E-004  0.4600997E+03  0.7546771E-02  0.9493801E-01
        -11   -1    0    0    0    0  0.00000000000E+00  0.00000000000E+00  0.50000000000E+03  0.50000000000E+03  0.00000000000E+00 0.  1.
         11   -1    0    0    0    0 -0.00000000000E+00 -0.00000000000E+00 -0.50000000000E+03  0.50000000000E+03  0.00000000000E+00 0. -1.
        -11    1    1    2    0    0  0.68184242939E+02 -0.31405870046E+02  0.46225850424E+03  0.46831436493E+03  0.00000000000E+00 0.  1.
         11    1    1    2    0    0 -0.11617701536E+01  0.62221604788E+01 -0.45465350122E+03  0.45469756010E+03  0.00000000000E+00 0. -1.
        -15    1    1    2    0    0 -0.62762261229E+02  0.27437769286E+02 -0.88100513779E+00  0.68526392850E+02  0.17770000000E+01 0.  1.
         15    1    1    2    0    0 -0.42602115561E+01 -0.22540597189E+01 -0.67239978856E+01  0.84616821191E+01  0.17770000000E+01 0. -1.
</event>
<event>
 6    1  0.6564965E-004  0.5011021E+03  0.7546771E-02  0.9397347E-01
        -11   -1    0    0    0    0  0.00000000000E+00  0.00000000000E+00  0.50000000000E+03  0.50000000000E+03  0.00000000000E+00 0. -1.
         11   -1    0    0    0    0 -0.00000000000E+00 -0.00000000000E+00 -0.50000000000E+03  0.50000000000E+03  0.00000000000E+00 0. -1.
        -11    1    1    2    0    0  0.27013264151E+02  0.15986702352E+02  0.18132588670E+03  0.18402273848E+03  0.00000000000E+00 0. -1.
         11    1    1    2    0    0 -0.24841415806E+02 -0.73338369177E+01 -0.49822512857E+03  0.49889794532E+03  0.00000000000E+00 0. -1.
        -15    1    1    2    0    0 -0.29363521079E+01 -0.25594973850E+01  0.13395108694E+03  0.13401949341E+03  0.17770000000E+01 0. -1.
         15    1    1    2    0    0  0.76450376280E+00 -0.60933680492E+01  0.18294815493E+03  0.18305982279E+03  0.17770000000E+01 0.  1.
</event>
<event>
 6    1  0.6564965E-004  0.5144798E+03  0.7546771E-02  0.9367980E-01
        -11   -1    0    0    0    0  0.00000000000E+00  0.00000000000E+00  0.50000000000E+03  0.50000000000E+03  0.00000000000E+00 0.  1.
         11   -1    0    0    0    0 -0.00000000000E+00 -0.00000000000E+00 -0.50000000000E+03  0.50000000000E+03  0.00000000000E+00 0.  1.
        -11    1    1    2    0    0 -0.20887346696E+01 -0.29388703039E+02  0.48462540183E+03  0.48552017340E+03  0.00000000000E+00 0.  1.
         11    1    1    2    0    0  0.15397944473E+02 -0.59817081912E+01 -0.43289020381E+03  0.43320527015E+03  0.00000000000E+00 0.  1.
        -15    1    1    2    0    0  0.18925847376E+02  0.17185349598E+02 -0.21525121901E+02  0.33466588436E+02  0.17770000000E+01 0.  1.
         15    1    1    2    0    0 -0.32235057180E+02  0.18185061633E+02 -0.30210076117E+02  0.47807968018E+02  0.17770000000E+01 0. -1.
</event>
<event>
 6    1  0.6564965E-004  0.5117944E+03  0.7546771E-02  0.9373799E-01
        -11   -1    0    0    0    0  0.00000000000E+00  0.00000000000E+00  0.50000000000E+03  0.50000000000E+03  0.00000000000E+00 0. -1.
         11   -1    0    0    0    0 -0.00000000000E+00 -0.00000000000E+00 -0.50000000000E+03  0.50000000000E+03  0.00000000000E+00 0.  1.
        -11    1    1    2    0    0 -0.64307040773E+02  0.20429518658E+02  0.20799029301E+03  0.21866120532E+03  0.00000000000E+00 0. -1.
         11    1    1    2    0    0 -0.63782728795E+01  0.30327387503E+01 -0.48815448012E+03  0.48820556769E+03  0.00000000000E+00 0.  1.
        -15    1    1    2    0    0  0.63208318485E+02 -0.11243852816E+02  0.16485067224E+03  0.17691980561E+03  0.17770000000E+01 0. -1.
         15    1    1    2    0    0  0.74769951681E+01 -0.12218404593E+02  0.11531351487E+03  0.11621342138E+03  0.17770000000E+01 0.  1.
</event>
<event>
 6    1  0.6564965E-004  0.5003284E+03  0.7546771E-02  0.9399075E-01
        -11   -1    0    0    0    0  0.00000000000E+00  0.00000000000E+00  0.50000000000E+03  0.50000000000E+03  0.00000000000E+00 0.  1.
         11   -1    0    0    0    0 -0.00000000000E+00 -0.00000000000E+00 -0.50000000000E+03  0.50000000000E+03  0.00000000000E+00 0.  1.
        -11    1    1    2    0    0 -0.11713046382E+02 -0.48023666163E+01  0.14189550375E+03  0.14245908945E+03  0.00000000000E+00 0.  1.
         11    1    1    2    0    0  0.56358416156E+01  0.79666483381E+01 -0.49957633473E+03  0.49967163660E+03  0.00000000000E+00 0.  1.
        -15    1    1    2    0    0  0.48806488813E+01  0.78290807879E+00  0.91560253656E+02  0.91710803382E+02  0.17770000000E+01 0. -1.
         15    1    1    2    0    0  0.11965558847E+01 -0.39471898006E+01  0.26612057732E+03  0.26615847057E+03  0.17770000000E+01 0.  1.
</event>
<event>
 6    1  0.6564965E-004  0.5007036E+03  0.7546771E-02  0.9398237E-01
        -11   -1    0    0    0    0  0.00000000000E+00  0.00000000000E+00  0.50000000000E+03  0.50000000000E+03  0.00000000000E+00 0.  1.
         11   -1    0    0    0    0 -0.00000000000E+00 -0.00000000000E+00 -0.50000000000E+03  0.50000000000E+03  0.00000000000E+00 0. -1.
        -11    1    1    2    0    0 -0.24944916736E+02  0.11425690588E+03  0.45741195678E+03  0.47212560576E+03  0.00000000000E+00 0.  1.
         11    1    1    2    0    0  0.26076520054E+02 -0.11285910284E+03 -0.48567446628E+03  0.49929635408E+03  0.00000000000E+00 0. -1.
        -15    1    1    2    0    0 -0.58500425580E+00 -0.12896032926E+01  0.12387897411E+02  0.12594563823E+02  0.17770000000E+01 0. -1.
         15    1    1    2    0    0 -0.54659906202E+00 -0.10819974474E+00  0.15874612093E+02  0.15983476337E+02  0.17770000000E+01 0.  1.
</event>
<event>
 6    1  0.6564965E-004  0.5001006E+03  0.7546771E-02  0.9399585E-01
        -11   -1    0    0    0    0  0.00000000000E+00  0.00000000000E+00  0.50000000000E+03  0.50000000000E+03  0.00000000000E+00 0. -1.
         11   -1    0    0    0    0 -0.00000000000E+00 -0.00000000000E+00 -0.50000000000E+03  0.50000000000E+03  0.00000000000E+00 0. -1.
        -11    1    1    2    0    0  0.18064878276E+01  0.26996431802E+01  0.36464393633E+02  0.36608789581E+02  0.00000000000E+00 0. -1.
         11    1    1    2    0    0 -0.92056649844E+01  0.23190105733E+01 -0.49980920676E+03  0.49989935511E+03  0.00000000000E+00 0. -1.
        -15    1    1    2    0    0  0.33359129796E+01 -0.53629217108E+01  0.19539440127E+03  0.19550452430E+03  0.17770000000E+01 0. -1.
         15    1    1    2    0    0  0.40632641772E+01  0.34426795734E+00  0.26795041186E+03  0.26798733101E+03  0.17770000000E+01 0.  1.
</event>
<event>
 6    1  0.6564965E-004  0.5038304E+03  0.7546771E-02  0.9391279E-01
        -11   -1    0    0    0    0  0.00000000000E+00  0.00000000000E+00  0.50000000000E+03  0.50000000000E+03  0.00000000000E+00 0.  1.
         11   -1    0    0    0    0 -0.00000000000E+00 -0.00000000000E+00 -0.50000000000E+03  0.50000000000E+03  0.00000000000E+00 0. -1.
        -11    1    1    2    0    0  0.69874176978E+01 -0.69484287615E+01  0.49607174186E+03  0.49616960582E+03  0.00000000000E+00 0.  1.
         11    1    1    2    0    0  0.69573522005E+01 -0.74097124470E+00 -0.47219997207E+03  0.47225180509E+03  0.00000000000E+00 0. -1.
        -15    1    1    2    0    0 -0.28468471856E+01 -0.12375371670E+00 -0.14754764737E+02  0.15132107102E+02  0.17770000000E+01 0. -1.
         15    1    1    2    0    0 -0.11097922713E+02  0.78131537229E+01 -0.91170050481E+01  0.16446481985E+02  0.17770000000E+01 0.  1.
</event>
<event>
 6    1  0.6564965E-004  0.5001511E+03  0.7546771E-02  0.9399472E-01
        -11   -1    0    0    0    0  0.00000000000E+00  0.00000000000E+00  0.50000000000E+03  0.50000000000E+03  0.00000000000E+00 0.  1.
         11   -1    0    0    0    0 -0.00000000000E+00 -0.00000000000E+00 -0.50000000000E+03  0.50000000000E+03  0.00000000000E+00 0. -1.
        -11    1    1    2    0    0 -0.23317406325E+01  0.67840963822E+01  0.49979737892E+03  0.49984885811E+03  0.00000000000E+00 0.  1.
         11    1    1    2    0    0  0.71847494538E+00 -0.37757292975E+01 -0.34516934603E+02  0.34730262198E+02  0.00000000000E+00 0. -1.
        -15    1    1    2    0    0 -0.30915334587E+01  0.21811242761E+01 -0.15568626495E+03  0.15574236966E+03  0.17770000000E+01 0.  1.
         15    1    1    2    0    0  0.47047991458E+01 -0.51894913608E+01 -0.30959417936E+03  0.30967851004E+03  0.17770000000E+01 0. -1.
</event>
<event>
 6    1  0.6564965E-004  0.5005689E+03  0.7546771E-02  0.9398538E-01
        -11   -1    0    0    0    0  0.00000000000E+00  0.00000000000E+00  0.50000000000E+03  0.50000000000E+03  0.00000000000E+00 0.  1.
         11   -1    0    0    0    0 -0.00000000000E+00 -0.00000000000E+00 -0.50000000000E+03  0.50000000000E+03  0.00000000000E+00 0. -1.
        -11    1    1    2    0    0  0.40634085341E+01  0.12580579034E+02  0.44019966037E+03  0.44039814174E+03  0.00000000000E+00 0.  1.
         11    1    1    2    0    0  0.36562944468E+01 -0.73450668891E+01 -0.49936366761E+03  0.49943106734E+03  0.00000000000E+00 0. -1.
        -15    1    1    2    0    0 -0.50239564866E+01 -0.44254164468E+01  0.48697174930E+02  0.49187366515E+02  0.17770000000E+01 0.  1.
         15    1    1    2    0    0 -0.26957464944E+01 -0.81009569839E+00  0.10466832302E+02  0.10983424404E+02  0.17770000000E+01 0. -1.
</event>
<event>
 6    1  0.6564965E-004  0.5018545E+03  0.7546771E-02  0.9395670E-01
        -11   -1    0    0    0    0  0.00000000000E+00  0.00000000000E+00  0.50000000000E+03  0.50000000000E+03  0.00000000000E+00 0. -1.
         11   -1    0    0    0    0 -0.00000000000E+00 -0.00000000000E+00 -0.50000000000E+03  0.50000000000E+03  0.00000000000E+00 0.  1.
        -11    1    1    2    0    0 -0.71335103593E+01 -0.49938452805E+01  0.46900041557E+03  0.46908124591E+03  0.00000000000E+00 0. -1.
         11    1    1    2    0    0 -0.46827521438E+00 -0.71058058470E+01 -0.49809460111E+03  0.49814550426E+03  0.00000000000E+00 0.  1.
        -15    1    1    2    0    0  0.35566976768E+01  0.34488482890E+01  0.84012050012E+01  0.99137594966E+01  0.17770000000E+01 0.  1.
         15    1    1    2    0    0  0.40450878969E+01  0.86508028386E+01  0.20692980535E+02  0.22859490332E+02  0.17770000000E+01 0. -1.
</event>
<event>
 6    1  0.6564965E-004  0.5027077E+03  0.7546771E-02  0.9393771E-01
        -11   -1    0    0    0    0  0.00000000000E+00  0.00000000000E+00  0.50000000000E+03  0.50000000000E+03  0.00000000000E+00 0. -1.
         11   -1    0    0    0    0 -0.00000000000E+00 -0.00000000000E+00 -0.50000000000E+03  0.50000000000E+03  0.00000000000E+00 0.  1.
        -11    1    1    2    0    0  0.10761824238E+02  0.12600094550E+02  0.49701610123E+03  0.49729225223E+03  0.00000000000E+00 0. -1.
         11    1    1    2    0    0  0.10583138579E+02  0.20766375323E+00 -0.39551875764E+03  0.39566037658E+03  0.00000000000E+00 0.  1.
        -15    1    1    2    0    0 -0.19145484511E+02 -0.69513997577E+01 -0.37424246455E+02  0.42645087495E+02  0.17770000000E+01 0. -1.
         15    1    1    2    0    0 -0.21994783059E+01 -0.58563585457E+01 -0.64073097137E+02  0.64402283701E+02  0.17770000000E+01 0.  1.
</event>
<event>
 6    1  0.6564965E-004  0.5001705E+03  0.7546771E-02  0.9399428E-01
        -11   -1    0    0    0    0  0.00000000000E+00  0.00000000000E+00  0.50000000000E+03  0.50000000000E+03  0.00000000000E+00 0. -1.
         11   -1    0    0    0    0 -0.00000000000E+00 -0.00000000000E+00 -0.50000000000E+03  0.50000000000E+03  0.00000000000E+00 0.  1.
        -11    1    1    2    0    0 -0.60605511843E+00  0.47865089000E+01  0.28527097194E+03  0.28531176878E+03  0.00000000000E+00 0. -1.
         11    1    1    2    0    0 -0.92622521057E+01  0.12383275428E+01 -0.49974212722E+03  0.49982948741E+03  0.00000000000E+00 0.  1.
        -15    1    1    2    0    0  0.19787695609E+01 -0.77238783557E+00  0.27506180611E+02  0.27645249370E+02  0.17770000000E+01 0.  1.
         15    1    1    2    0    0  0.78895376632E+01 -0.52524486072E+01  0.18696497466E+03  0.18721349444E+03  0.17770000000E+01 0. -1.
</event>
<event>
 6    1  0.6564965E-004  0.5021296E+03  0.7546771E-02  0.9395057E-01
        -11   -1    0    0    0    0  0.00000000000E+00  0.00000000000E+00  0.50000000000E+03  0.50000000000E+03  0.00000000000E+00 0. -1.
         11   -1    0    0    0    0 -0.00000000000E+00 -0.00000000000E+00 -0.50000000000E+03  0.50000000000E+03  0.00000000000E+00 0. -1.
        -11    1    1    2    0    0  0.42578286284E+01  0.18526249025E+02  0.49750739739E+03  0.49787042638E+03  0.00000000000E+00 0. -1.
         11    1    1    2    0    0 -0.91693263111E+01 -0.26012544711E+01 -0.30997113530E+03  0.31011763540E+03  0.00000000000E+00 0. -1.
        -15    1    1    2    0    0 -0.85978288789E+01 -0.23469483520E+02 -0.99379676580E+02  0.10249008325E+03  0.17770000000E+01 0. -1.
         15    1    1    2    0    0  0.13509326562E+02  0.75444889658E+01 -0.88156585513E+02  0.89521854964E+02  0.17770000000E+01 0.  1.
</event>
<event>
 6    1  0.6564965E-004  0.4953257E+03  0.7546771E-02  0.9410330E-01
        -11   -1    0    0    0    0  0.00000000000E+00  0.00000000000E+00  0.50000000000E+03  0.50000000000E+03  0.00000000000E+00 0.  1.
         11   -1    0    0    0    0 -0.00000000000E+00 -0.00000000000E+00 -0.50000000000E+03  0.50000000000E+03  0.00000000000E+00 0. -1.
        -11    1    1    2    0    0  0.11598579029E+01 -0.88157572164E+01  0.49509402244E+03  0.49517386230E+03  0.00000000000E+00 0.  1.
         11    1    1    2    0    0 -0.60356138712E+01  0.40647422104E+01 -0.49544756269E+03  0.49550099711E+03  0.00000000000E+00 0. -1.
        -15    1    1    2    0    0  0.54493780507E+01  0.38193883261E+01  0.13400728097E+01  0.70169061886E+01  0.17770000000E+01 0. -1.
         15    1    1    2    0    0 -0.57362208241E+00  0.93162667988E+00 -0.98653256113E+00  0.23082344028E+01  0.17770000000E+01 0.  1.
</event>
<event>
 6    1  0.6564965E-004  0.5000414E+03  0.7546771E-02  0.9399717E-01
        -11   -1    0    0    0    0  0.00000000000E+00  0.00000000000E+00  0.50000000000E+03  0.50000000000E+03  0.00000000000E+00 0.  1.
         11   -1    0    0    0    0 -0.00000000000E+00 -0.00000000000E+00 -0.50000000000E+03  0.50000000000E+03  0.00000000000E+00 0.  1.
        -11    1    1    2    0    0  0.60630002248E+01 -0.10073005474E+02  0.28547254239E+03  0.28571453913E+03  0.00000000000E+00 0.  1.
         11    1    1    2    0    0 -0.60392210169E+01  0.14165897629E+02 -0.49972140085E+03  0.49995862160E+03  0.00000000000E+00 0.  1.
        -15    1    1    2    0    0  0.33487149783E+00 -0.23021185583E+01  0.14808082583E+03  0.14810975862E+03  0.17770000000E+01 0.  1.
         15    1    1    2    0    0 -0.35865070571E+00 -0.17907735965E+01  0.66168032625E+02  0.66217080658E+02  0.17770000000E+01 0.  1.
</event>
<event>
 6    1  0.6564965E-004  0.5007984E+03  0.7546771E-02  0.9398025E-01
        -11   -1    0    0    0    0  0.00000000000E+00  0.00000000000E+00  0.50000000000E+03  0.50000000000E+03  0.00000000000E+00 0. -1.
         11   -1    0    0    0    0 -0.00000000000E+00 -0.00000000000E+00 -0.50000000000E+03  0.50000000000E+03  0.00000000000E+00 0.  1.
        -11    1    1    2    0    0  0.11004159471E+02 -0.12858014352E+01  0.39017270232E+03  0.39032996611E+03  0.00000000000E+00 0. -1.
         11    1    1    2    0    0  0.38292991794E+01 -0.60178755937E+01 -0.49915059199E+03  0.49920155432E+03  0.00000000000E+00 0.  1.
        -15    1    1    2    0    0 -0.11441907400E+02  0.53069434567E+01  0.62142959889E+02  0.63434896442E+02  0.17770000000E+01 0. -1.
         15    1    1    2    0    0 -0.33915512503E+01  0.19967335721E+01  0.46834929783E+02  0.47033583125E+02  0.17770000000E+01 0.  1.
</event>
<event>
 6    1  0.6564965E-004  0.5063588E+03  0.7546771E-02  0.9385693E-01
        -11   -1    0    0    0    0  0.00000000000E+00  0.00000000000E+00  0.50000000000E+03  0.50000000000E+03  0.00000000000E+00 0.  1.
         11   -1    0    0    0    0 -0.00000000000E+00 -0.00000000000E+00 -0.50000000000E+03  0.50000000000E+03  0.00000000000E+00 0.  1.
        -11    1    1    2    0    0  0.48578489468E+01  0.34484903929E+02  0.31812693507E+03  0.32002742713E+03  0.00000000000E+00 0.  1.
         11    1    1    2    0    0 -0.15533741043E+02 -0.65263738982E+01 -0.49335352820E+03  0.49364115960E+03  0.00000000000E+00 0.  1.
        -15    1    1    2    0    0  0.10280344051E+02  0.15947601169E+02  0.44236088973E+02  0.48166386137E+02  0.17770000000E+01 0.  1.
         15    1    1    2    0    0  0.39554804480E+00 -0.43906131201E+02  0.13099050415E+03  0.13816502713E+03  0.17770000000E+01 0. -1.
</event>
<event>
 6    1  0.6564965E-004  0.4903330E+03  0.7546771E-02  0.9421704E-01
        -11   -1    0    0    0    0  0.00000000000E+00  0.00000000000E+00  0.50000000000E+03  0.50000000000E+03  0.00000000000E+00 0.  1.
         11   -1    0    0    0    0 -0.00000000000E+00 -0.00000000000E+00 -0.50000000000E+03  0.50000000000E+03  0.00000000000E+00 0. -1.
        -11    1    1    2    0    0 -0.11983263114E+02  0.12879099714E+02  0.48884803668E+03  0.48916446393E+03  0.00000000000E+00 0.  1.
         11    1    1    2    0    0  0.68137575947E+01 -0.87305520284E+00 -0.49154426092E+03  0.49159225987E+03  0.00000000000E+00 0. -1.
        -15    1    1    2    0    0  0.51550363238E+01 -0.14287786531E+02  0.52889283780E-02  0.15292906866E+02  0.17770000000E+01 0.  1.
         15    1    1    2    0    0  0.14469195953E-01  0.22817420193E+01  0.26909353110E+01  0.39503693306E+01  0.17770000000E+01 0. -1.
</event>
<event>
 6    1  0.6564965E-004  0.5003202E+03  0.7546771E-02  0.9399093E-01
        -11   -1    0    0    0    0  0.00000000000E+00  0.00000000000E+00  0.50000000000E+03  0.50000000000E+03  0.00000000000E+00 0.  1.
         11   -1    0    0    0    0 -0.00000000000E+00 -0.00000000000E+00 -0.50000000000E+03  0.50000000000E+03  0.00000000000E+00 0.  1.
        -11    1    1    2    0    0  0.66198973065E+01 -0.47349765570E+01  0.15934409420E+03  0.15955182042E+03  0.00000000000E+00 0.  1.
         11    1    1    2    0    0 -0.67291578527E+01 -0.29925868210E+01 -0.49962549354E+03  0.49967976838E+03  0.00000000000E+00 0.  1.
        -15    1    1    2    0    0  0.25828720521E+01 -0.43057401270E+00  0.13308264378E+02  0.13679336672E+02  0.17770000000E+01 0. -1.
         15    1    1    2    0    0 -0.24736115058E+01  0.81581373907E+01  0.32697313496E+03  0.32708907453E+03  0.17770000000E+01 0.  1.
</event>
<event>
 6    1  0.6564965E-004  0.5025384E+03  0.7546771E-02  0.9394148E-01
        -11   -1    0    0    0    0  0.00000000000E+00  0.00000000000E+00  0.50000000000E+03  0.50000000000E+03  0.00000000000E+00 0.  1.
         11   -1    0    0    0    0 -0.00000000000E+00 -0.00000000000E+00 -0.50000000000E+03  0.50000000000E+03  0.00000000000E+00 0.  1.
        -11    1    1    2    0    0  0.16615143422E+01 -0.13290225324E+02  0.18073404025E+02  0.22495302890E+02  0.00000000000E+00 0.  1.
         11    1    1    2    0    0  0.14223328151E+02 -0.98901753986E+01 -0.49715990260E+03  0.49746164414E+03  0.00000000000E+00 0.  1.
        -15    1    1    2    0    0 -0.42668679717E+01  0.37543883473E+01  0.17892672720E+03  0.17902578873E+03  0.17770000000E+01 0.  1.
         15    1    1    2    0    0 -0.11617974522E+02  0.19426012375E+02  0.30015977138E+03  0.30101726424E+03  0.17770000000E+01 0. -1.
</event>
<event>
 6    1  0.6564965E-004  0.5011792E+03  0.7546771E-02  0.9397175E-01
        -11   -1    0    0    0    0  0.00000000000E+00  0.00000000000E+00  0.50000000000E+03  0.50000000000E+03  0.00000000000E+00 0.  1.
         11   -1    0    0    0    0 -0.00000000000E+00 -0.00000000000E+00 -0.50000000000E+03  0.50000000000E+03  0.00000000000E+00 0. -1.
        -11    1    1    2    0    0 -0.78354074288E+01 -0.18583518698E+02  0.49841293250E+03  0.49882080155E+03  0.00000000000E+00 0.  1.
         11    1    1    2    0    0  0.25029650009E+01  0.48474904657E+01 -0.38186863648E+03  0.38190760470E+03  0.00000000000E+00 0. -1.
        -15    1    1    2    0    0  0.60799628071E+01  0.18142536512E+02 -0.73927115566E+02  0.76383857744E+02  0.17770000000E+01 0. -1.
         15    1    1    2    0    0 -0.74752037911E+00 -0.44065082794E+01 -0.42617180447E+02  0.42887736012E+02  0.17770000000E+01 0.  1.
</event>
<event>
 6    1  0.6564965E-004  0.5006820E+03  0.7546771E-02  0.9398285E-01
        -11   -1    0    0    0    0  0.00000000000E+00  0.00000000000E+00  0.50000000000E+03  0.50000000000E+03  0.00000000000E+00 0.  1.
         11   -1    0    0    0    0 -0.00000000000E+00 -0.00000000000E+00 -0.50000000000E+03  0.50000000000E+03  0.00000000000E+00 0.  1.
        -11    1    1    2    0    0  0.83332729319E+02  0.80033481664E+02  0.48576612490E+03  0.49931796489E+03  0.00000000000E+00 0.  1.
         11    1    1    2    0    0 -0.12056903346E+02 -0.31000410137E+02 -0.15522725013E+03  0.15875104261E+03  0.00000000000E+00 0.  1.
        -15    1    1    2    0    0 -0.66941119143E+02 -0.47993106576E+02 -0.30423047774E+03  0.31518850396E+03  0.17770000000E+01 0. -1.
         15    1    1    2    0    0 -0.43347068305E+01 -0.10399649509E+01 -0.26308397029E+02  0.26742488546E+02  0.17770000000E+01 0.  1.
</event>
<event>
 6    1  0.6564965E-004  0.5018282E+03  0.7546771E-02  0.9395728E-01
        -11   -1    0    0    0    0  0.00000000000E+00  0.00000000000E+00  0.50000000000E+03  0.50000000000E+03  0.00000000000E+00 0.  1.
         11   -1    0    0    0    0 -0.00000000000E+00 -0.00000000000E+00 -0.50000000000E+03  0.50000000000E+03  0.00000000000E+00 0. -1.
        -11    1    1    2    0    0  0.15104141568E+02 -0.16422845393E+01  0.49794010634E+03  0.49817183952E+03  0.00000000000E+00 0.  1.
         11    1    1    2    0    0  0.24367089573E+01  0.52671556431E+01 -0.41215153036E+03  0.41219238768E+03  0.00000000000E+00 0. -1.
        -15    1    1    2    0    0 -0.16799880123E+02  0.38876542559E+01 -0.68971378584E+02  0.71116514401E+02  0.17770000000E+01 0.  1.
         15    1    1    2    0    0 -0.74097040244E+00 -0.75125253597E+01 -0.16817197395E+02  0.18519258399E+02  0.17770000000E+01 0.  1.
</event>
<event>
 6    1  0.6564965E-004  0.5054865E+03  0.7546771E-02  0.9387616E-01
        -11   -1    0    0    0    0  0.00000000000E+00  0.00000000000E+00  0.50000000000E+03  0.50000000000E+03  0.00000000000E+00 0. -1.
         11   -1    0    0    0    0 -0.00000000000E+00 -0.00000000000E+00 -0.50000000000E+03  0.50000000000E+03  0.00000000000E+00 0.  1.
        -11    1    1    2    0    0 -0.62432582547E+01 -0.10931950246E+02  0.47858191411E+03  0.47874746404E+03  0.00000000000E+00 0. -1.
         11    1    1    2    0    0  0.70615758581E+01  0.25646477807E+00 -0.49446300052E+03  0.49451348870E+03  0.00000000000E+00 0.  1.
        -15    1    1    2    0    0 -0.74109879477E+00  0.43639963176E+01 -0.37335863270E+01  0.60573168272E+01  0.17770000000E+01 0. -1.
         15    1    1    2    0    0 -0.77218808590E-01  0.63114891503E+01  0.19614672731E+02  0.20681730426E+02  0.17770000000E+01 0.  1.
</event>
<event>
 6    1  0.6564965E-004  0.5028990E+03  0.7546771E-02  0.9393346E-01
        -11   -1    0    0    0    0  0.00000000000E+00  0.00000000000E+00  0.50000000000E+03  0.50000000000E+03  0.00000000000E+00 0.  1.
         11   -1    0    0    0    0 -0.00000000000E+00 -0.00000000000E+00 -0.50000000000E+03  0.50000000000E+03  0.00000000000E+00 0.  1.
        -11    1    1    2    0    0 -0.58341593284E+01  0.15180605943E+02  0.47674306588E+03  0.47702037596E+03  0.00000000000E+00 0.  1.
         11    1    1    2    0    0  0.10668989761E+02 -0.65188840616E+01 -0.49694376687E+03  0.49710102658E+03  0.00000000000E+00 0.  1.
        -15    1    1    2    0    0 -0.73681535275E+01 -0.11879806423E+01  0.69383706832E+01  0.10344065987E+02  0.17770000000E+01 0.  1.
         15    1    1    2    0    0  0.25333230953E+01 -0.74737412391E+01  0.13262330310E+02  0.15534531478E+02  0.17770000000E+01 0. -1.
</event>
<event>
 6    1  0.6564965E-004  0.5026219E+03  0.7546771E-02  0.9393962E-01
        -11   -1    0    0    0    0  0.00000000000E+00  0.00000000000E+00  0.50000000000E+03  0.50000000000E+03  0.00000000000E+00 0.  1.
         11   -1    0    0    0    0 -0.00000000000E+00 -0.00000000000E+00 -0.50000000000E+03  0.50000000000E+03  0.00000000000E+00 0. -1.
        -11    1    1    2    0    0  0.17336880582E+02 -0.15625749172E+02  0.49683020381E+03  0.49737810857E+03  0.00000000000E+00 0.  1.
         11    1    1    2    0    0  0.29355112240E+01 -0.64054475745E+01 -0.40755338027E+03  0.40761428429E+03  0.00000000000E+00 0. -1.
        -15    1    1    2    0    0  0.10892832382E+01  0.21106259653E+01 -0.12397186929E+02  0.12747127233E+02  0.17770000000E+01 0.  1.
         15    1    1    2    0    0 -0.21361675044E+02  0.19920570781E+02 -0.76879636609E+02  0.82260479910E+02  0.17770000000E+01 0. -1.
</event>
<event>
 6    1  0.6564965E-004  0.5015357E+03  0.7546771E-02  0.9396380E-01
        -11   -1    0    0    0    0  0.00000000000E+00  0.00000000000E+00  0.50000000000E+03  0.50000000000E+03  0.00000000000E+00 0. -1.
         11   -1    0    0    0    0 -0.00000000000E+00 -0.00000000000E+00 -0.50000000000E+03  0.50000000000E+03  0.00000000000E+00 0. -1.
        -11    1    1    2    0    0  0.29865121180E+01  0.13329467997E+02  0.49827708735E+03  0.49846429135E+03  0.00000000000E+00 0. -1.
         11    1    1    2    0    0  0.84993055624E+01  0.31549735216E+01 -0.42597774050E+03  0.42607420416E+03  0.00000000000E+00 0. -1.
        -15    1    1    2    0    0 -0.62252172110E+01 -0.13417531230E+02 -0.56632375660E+02  0.58559091314E+02  0.17770000000E+01 0.  1.
         15    1    1    2    0    0 -0.52606004694E+01 -0.30669102880E+01 -0.15666971187E+02  0.16902413176E+02  0.17770000000E+01 0. -1.
</event>
<event>
 6    1  0.6564965E-004  0.5000705E+03  0.7546771E-02  0.9399652E-01
        -11   -1    0    0    0    0  0.00000000000E+00  0.00000000000E+00  0.50000000000E+03  0.50000000000E+03  0.00000000000E+00 0. -1.
         11   -1    0    0    0    0 -0.00000000000E+00 -0.00000000000E+00 -0.50000000000E+03  0.50000000000E+03  0.00000000000E+00 0. -1.
        -11    1    1    2    0    0  0.19971874278E+00 -0.40110336334E+01  0.60321991828E+02  0.60455528915E+02  0.00000000000E+00 0. -1.
         11    1    1    2    0    0 -0.54377755645E+01  0.10211327150E+02 -0.49979560555E+03  0.49992948295E+03  0.00000000000E+00 0. -1.
        -15    1    1    2    0    0 -0.20077804312E+00 -0.34516864850E+01  0.26018407953E+03  0.26021311923E+03  0.17770000000E+01 0. -1.
         15    1    1    2    0    0  0.54388348648E+01 -0.27486070318E+01  0.17928953419E+03  0.17940186890E+03  0.17770000000E+01 0.  1.
</event>
<event>
 6    1  0.6564965E-004  0.5002012E+03  0.7546771E-02  0.9399360E-01
        -11   -1    0    0    0    0  0.00000000000E+00  0.00000000000E+00  0.50000000000E+03  0.50000000000E+03  0.00000000000E+00 0.  1.
         11   -1    0    0    0    0 -0.00000000000E+00 -0.00000000000E+00 -0.50000000000E+03  0.50000000000E+03  0.00000000000E+00 0.  1.
        -11    1    1    2    0    0  0.44401336441E+01  0.13736598716E+01  0.31108623736E+03  0.31112095527E+03  0.00000000000E+00 0.  1.
         11    1    1    2    0    0  0.21208228873E+01  0.70771234293E+01 -0.49974419597E+03  0.49979880449E+03  0.00000000000E+00 0.  1.
        -15    1    1    2    0    0  0.32157134412E+00 -0.19385379695E+01  0.25372044601E+02  0.25509992431E+02  0.17770000000E+01 0.  1.
         15    1    1    2    0    0 -0.68825278755E+01 -0.65122453313E+01  0.16328591400E+03  0.16357024781E+03  0.17770000000E+01 0. -1.
</event>
<event>
 6    1  0.6564965E-004  0.4772108E+03  0.7546771E-02  0.9452298E-01
        -11   -1    0    0    0    0  0.00000000000E+00  0.00000000000E+00  0.50000000000E+03  0.50000000000E+03  0.00000000000E+00 0. -1.
         11   -1    0    0    0    0 -0.00000000000E+00 -0.00000000000E+00 -0.50000000000E+03  0.50000000000E+03  0.00000000000E+00 0. -1.
        -11    1    1    2    0    0 -0.27369000659E+02  0.26106164839E+02  0.24331115799E+02  0.44973294695E+02  0.00000000000E+00 0. -1.
         11    1    1    2    0    0 -0.11420757140E+02  0.12444440893E+01 -0.48816804821E+03  0.48830321075E+03  0.00000000000E+00 0. -1.
        -15    1    1    2    0    0  0.26714951850E+02 -0.64076226058E+01  0.23561499392E+03  0.23721789428E+03  0.17770000000E+01 0.  1.
         15    1    1    2    0    0  0.12074805949E+02 -0.20942986322E+02  0.22822193850E+03  0.22950560027E+03  0.17770000000E+01 0. -1.
</event>
<event>
 6    1  0.6564965E-004  0.5045541E+03  0.7546771E-02  0.9389677E-01
        -11   -1    0    0    0    0  0.00000000000E+00  0.00000000000E+00  0.50000000000E+03  0.50000000000E+03  0.00000000000E+00 0.  1.
         11   -1    0    0    0    0 -0.00000000000E+00 -0.00000000000E+00 -0.50000000000E+03  0.50000000000E+03  0.00000000000E+00 0. -1.
        -11    1    1    2    0    0  0.37094866381E+01  0.80691932978E+01  0.47669083864E+03  0.47677356032E+03  0.00000000000E+00 0.  1.
         11    1    1    2    0    0  0.75002650974E+01  0.45144343804E+01 -0.49536855048E+03  0.49544589503E+03  0.00000000000E+00 0. -1.
        -15    1    1    2    0    0 -0.77340705956E+00 -0.88340134017E+01  0.10669105780E+02  0.13986618548E+02  0.17770000000E+01 0.  1.
         15    1    1    2    0    0 -0.10436344676E+02 -0.37496142765E+01  0.80086060594E+01  0.13793926106E+02  0.17770000000E+01 0. -1.
</event>
<event>
 6    1  0.6564965E-004  0.5037552E+03  0.7546771E-02  0.9391446E-01
        -11   -1    0    0    0    0  0.00000000000E+00  0.00000000000E+00  0.50000000000E+03  0.50000000000E+03  0.00000000000E+00 0.  1.
         11   -1    0    0    0    0 -0.00000000000E+00 -0.00000000000E+00 -0.50000000000E+03  0.50000000000E+03  0.00000000000E+00 0. -1.
        -11    1    1    2    0    0 -0.81489345417E+01  0.69626652899E+01  0.48616056078E+03  0.48627870065E+03  0.00000000000E+00 0.  1.
         11    1    1    2    0    0  0.11203047034E+01 -0.86726167113E+01 -0.49616775787E+03  0.49624481188E+03  0.00000000000E+00 0. -1.
        -15    1    1    2    0    0  0.55276883934E+01  0.37230654847E+01 -0.11376233168E+00  0.68983495450E+01  0.17770000000E+01 0. -1.
         15    1    1    2    0    0  0.15009414450E+01 -0.20131140632E+01  0.10120959421E+02  0.10578137930E+02  0.17770000000E+01 0.  1.
</event>
<event>
 6    1  0.6564965E-004  0.5025086E+03  0.7546771E-02  0.9394214E-01
        -11   -1    0    0    0    0  0.00000000000E+00  0.00000000000E+00  0.50000000000E+03  0.50000000000E+03  0.00000000000E+00 0. -1.
         11   -1    0    0    0    0 -0.00000000000E+00 -0.00000000000E+00 -0.50000000000E+03  0.50000000000E+03  0.00000000000E+00 0. -1.
        -11    1    1    2    0    0  0.76270450801E+01  0.30094831321E+02  0.49652171918E+03  0.49749139521E+03  0.00000000000E+00 0. -1.
         11    1    1    2    0    0 -0.26822282171E+02  0.18011597724E+01 -0.32375336902E+03  0.32486754677E+03  0.00000000000E+00 0. -1.
        -15    1    1    2    0    0 -0.27998433643E+01 -0.85568842913E+01 -0.35889898577E+02  0.37044593945E+02  0.17770000000E+01 0.  1.
         15    1    1    2    0    0  0.21995080455E+02 -0.23339106802E+02 -0.13687845159E+03  0.14059646407E+03  0.17770000000E+01 0. -1.
</event>
<event>
 6    1  0.6564965E-004  0.5044409E+03  0.7546771E-02  0.9389927E-01
        -11   -1    0    0    0    0  0.00000000000E+00  0.00000000000E+00  0.50000000000E+03  0.50000000000E+03  0.00000000000E+00 0.  1.
         11   -1    0    0    0    0 -0.00000000000E+00 -0.00000000000E+00 -0.50000000000E+03  0.50000000000E+03  0.00000000000E+00 0. -1.
        -11    1    1    2    0    0 -0.18070443227E+02  0.12252831522E+02  0.49507795832E+03  0.49555913634E+03  0.00000000000E+00 0.  1.
         11    1    1    2    0    0  0.89035888105E+01  0.16717442598E+00 -0.46177365902E+03  0.46185951760E+03  0.00000000000E+00 0. -1.
        -15    1    1    2    0    0 -0.46701979236E+01 -0.58863346853E+01 -0.22438813131E+02  0.23730102158E+02  0.17770000000E+01 0.  1.
         15    1    1    2    0    0  0.13837052340E+02 -0.65336712628E+01 -0.10865486173E+02  0.18851243896E+02  0.17770000000E+01 0. -1.
</event>
<event>
 6    1  0.6564965E-004  0.5072804E+03  0.7546771E-02  0.9383665E-01
        -11   -1    0    0    0    0  0.00000000000E+00  0.00000000000E+00  0.50000000000E+03  0.50000000000E+03  0.00000000000E+00 0. -1.
         11   -1    0    0    0    0 -0.00000000000E+00 -0.00000000000E+00 -0.50000000000E+03  0.50000000000E+03  0.00000000000E+00 0. -1.
        -11    1    1    2    0    0 -0.28207482131E+02 -0.22873006026E+02  0.39373034015E+03  0.39540158979E+03  0.00000000000E+00 0. -1.
         11    1    1    2    0    0  0.14619545375E+01 -0.12030078681E+02 -0.49257057130E+03  0.49271962394E+03  0.00000000000E+00 0. -1.
        -15    1    1    2    0    0  0.26541143912E+02  0.35676034599E+02  0.10010837064E+03  0.10955389252E+03  0.17770000000E+01 0.  1.
         15    1    1    2    0    0  0.20438368145E+00 -0.77294989214E+00 -0.12681394854E+01  0.23248937566E+01  0.17770000000E+01 0. -1.
</event>
<event>
 6    1  0.6564965E-004  0.5003281E+03  0.7546771E-02  0.9399076E-01
        -11   -1    0    0    0    0  0.00000000000E+00  0.00000000000E+00  0.50000000000E+03  0.50000000000E+03  0.00000000000E+00 0.  1.
         11   -1    0    0    0    0 -0.00000000000E+00 -0.00000000000E+00 -0.50000000000E+03  0.50000000000E+03  0.00000000000E+00 0. -1.
        -11    1    1    2    0    0  0.98516908217E+01  0.16171899132E+02  0.49931299113E+03  0.49967194162E+03  0.00000000000E+00 0.  1.
         11    1    1    2    0    0 -0.17066642433E+01  0.28018561164E+01 -0.13871972129E+03  0.13875851028E+03  0.00000000000E+00 0. -1.
        -15    1    1    2    0    0 -0.12531341146E+02 -0.17422237703E+02 -0.28501244328E+03  0.28582480548E+03  0.17770000000E+01 0. -1.
         15    1    1    2    0    0  0.43863145681E+01 -0.15515175459E+01 -0.75580826557E+02  0.75744742618E+02  0.17770000000E+01 0.  1.
</event>
<event>
 6    1  0.6564965E-004  0.5002989E+03  0.7546771E-02  0.9399141E-01
        -11   -1    0    0    0    0  0.00000000000E+00  0.00000000000E+00  0.50000000000E+03  0.50000000000E+03  0.00000000000E+00 0.  1.
         11   -1    0    0    0    0 -0.00000000000E+00 -0.00000000000E+00 -0.50000000000E+03  0.50000000000E+03  0.00000000000E+00 0. -1.
        -11    1    1    2    0    0  0.52359748264E+01  0.72065464248E+01  0.49962173489E+03  0.49970113840E+03  0.00000000000E+00 0.  1.
         11    1    1    2    0    0  0.39163240370E+01 -0.56599720949E+01 -0.39607545860E+03  0.39613525693E+03  0.00000000000E+00 0. -1.
        -15    1    1    2    0    0 -0.24428443992E+01 -0.89712072127E+00 -0.58138267883E+02  0.58223605486E+02  0.17770000000E+01 0.  1.
         15    1    1    2    0    0 -0.67094544641E+01 -0.64945360857E+00 -0.45408008402E+02  0.45939999186E+02  0.17770000000E+01 0. -1.
</event>
<event>
 6    1  0.6564965E-004  0.5091203E+03  0.7546771E-02  0.9379630E-01
        -11   -1    0    0    0    0  0.00000000000E+00  0.00000000000E+00  0.50000000000E+03  0.50000000000E+03  0.00000000000E+00 0.  1.
         11   -1    0    0    0    0 -0.00000000000E+00 -0.00000000000E+00 -0.50000000000E+03  0.50000000000E+03  0.00000000000E+00 0.  1.
        -11    1    1    2    0    0 -0.25488881692E+02  0.15250092416E+01  0.45696018724E+03  0.45767305084E+03  0.00000000000E+00 0.  1.
         11    1    1    2    0    0 -0.81893510615E+01 -0.18909412093E+02 -0.49044696831E+03  0.49087967983E+03  0.00000000000E+00 0.  1.
        -15    1    1    2    0    0  0.12777422966E+02  0.10201682758E+02  0.10514425798E+02  0.19520444350E+02  0.17770000000E+01 0.  1.
         15    1    1    2    0    0  0.20900809787E+02  0.71827200937E+01  0.22972355277E+02  0.31926824986E+02  0.17770000000E+01 0. -1.
</event>
<event>
 6    1  0.6564965E-004  0.5037082E+03  0.7546771E-02  0.9391550E-01
        -11   -1    0    0    0    0  0.00000000000E+00  0.00000000000E+00  0.50000000000E+03  0.50000000000E+03  0.00000000000E+00 0. -1.
         11   -1    0    0    0    0 -0.00000000000E+00 -0.00000000000E+00 -0.50000000000E+03  0.50000000000E+03  0.00000000000E+00 0. -1.
        -11    1    1    2    0    0  0.16786043127E+02 -0.74399615860E+01  0.41867261586E+03  0.41907503331E+03  0.00000000000E+00 0. -1.
         11    1    1    2    0    0  0.60769194656E+01 -0.83086189794E+01 -0.49618507518E+03  0.49629184049E+03  0.00000000000E+00 0. -1.
        -15    1    1    2    0    0 -0.12127411723E+02  0.50078180988E+01  0.13851360442E+02  0.19161687616E+02  0.17770000000E+01 0. -1.
         15    1    1    2    0    0 -0.10735550870E+02  0.10740762467E+02  0.63661098885E+02  0.65471438591E+02  0.17770000000E+01 0.  1.
</event>
<event>
 6    1  0.6564965E-004  0.4991547E+03  0.7546771E-02  0.9401703E-01
        -11   -1    0    0    0    0  0.00000000000E+00  0.00000000000E+00  0.50000000000E+03  0.50000000000E+03  0.00000000000E+00 0. -1.
         11   -1    0    0    0    0 -0.00000000000E+00 -0.00000000000E+00 -0.50000000000E+03  0.50000000000E+03  0.00000000000E+00 0.  1.
        -11    1    1    2    0    0 -0.19216030364E+01  0.78960584592E+00  0.55485718646E+00  0.21503260494E+01  0.00000000000E+00 0. -1.
         11    1    1    2    0    0 -0.12446601381E+02  0.80707556502E+00 -0.49878827387E+03  0.49894419669E+03  0.00000000000E+00 0.  1.
        -15    1    1    2    0    0 -0.39596851712E+01 -0.38138821334E+01  0.59408474845E+02  0.59688771272E+02  0.17770000000E+01 0.  1.
         15    1    1    2    0    0  0.18327889589E+02  0.22172007225E+01  0.43882494184E+03  0.43921670599E+03  0.17770000000E+01 0. -1.
</event>
<event>
 6    1  0.6564965E-004  0.4961201E+03  0.7546771E-02  0.9408533E-01
        -11   -1    0    0    0    0  0.00000000000E+00  0.00000000000E+00  0.50000000000E+03  0.50000000000E+03  0.00000000000E+00 0.  1.
         11   -1    0    0    0    0 -0.00000000000E+00 -0.00000000000E+00 -0.50000000000E+03  0.50000000000E+03  0.00000000000E+00 0.  1.
        -11    1    1    2    0    0  0.41284873966E+01  0.68962363548E+01  0.49665817485E+03  0.49672320776E+03  0.00000000000E+00 0.  1.
         11    1    1    2    0    0  0.15560892863E+01 -0.73862397920E+01 -0.49547670274E+03  0.49553419752E+03  0.00000000000E+00 0.  1.
        -15    1    1    2    0    0 -0.11510809489E+01 -0.12704445345E+01 -0.51229066619E+00  0.25217429276E+01  0.17770000000E+01 0. -1.
         15    1    1    2    0    0 -0.45334957339E+01  0.17604479718E+01 -0.66918144672E+00  0.52208517925E+01  0.17770000000E+01 0.  1.
</event>
<event>
 6    1  0.6564965E-004  0.5011840E+03  0.7546771E-02  0.9397164E-01
        -11   -1    0    0    0    0  0.00000000000E+00  0.00000000000E+00  0.50000000000E+03  0.50000000000E+03  0.00000000000E+00 0.  1.
         11   -1    0    0    0    0 -0.00000000000E+00 -0.00000000000E+00 -0.50000000000E+03  0.50000000000E+03  0.00000000000E+00 0. -1.
        -11    1    1    2    0    0  0.69250508537E+02  0.30236442118E+02  0.49305932067E+03  0.49881596713E+03  0.00000000000E+00 0.  1.
         11    1    1    2    0    0 -0.33373388823E+02 -0.33121237752E+02 -0.18602923501E+03  0.19187932601E+03  0.00000000000E+00 0. -1.
        -15    1    1    2    0    0 -0.27045383974E+02 -0.53779721976E+00 -0.25007541562E+03  0.25154048033E+03  0.17770000000E+01 0. -1.
         15    1    1    2    0    0 -0.88317357402E+01  0.34225928541E+01 -0.56954670047E+02  0.57764226535E+02  0.17770000000E+01 0.  1.
</event>
<event>
 6    1  0.6564965E-004  0.4814186E+03  0.7546771E-02  0.9442375E-01
        -11   -1    0    0    0    0  0.00000000000E+00  0.00000000000E+00  0.50000000000E+03  0.50000000000E+03  0.00000000000E+00 0. -1.
         11   -1    0    0    0    0 -0.00000000000E+00 -0.00000000000E+00 -0.50000000000E+03  0.50000000000E+03  0.00000000000E+00 0. -1.
        -11    1    1    2    0    0 -0.20176564306E+02  0.17717161063E+02  0.48148526353E+03  0.48223339841E+03  0.00000000000E+00 0. -1.
         11    1    1    2    0    0  0.74740742336E+00  0.97648403856E+01 -0.48109224577E+03  0.48119191563E+03  0.00000000000E+00 0. -1.
        -15    1    1    2    0    0  0.14412433004E+01 -0.13423872579E+02 -0.11281833280E+01  0.13664115920E+02  0.17770000000E+01 0. -1.
         15    1    1    2    0    0  0.17987913582E+02 -0.14058128870E+02  0.73516556487E+00  0.22910570045E+02  0.17770000000E+01 0.  1.
</event>
<event>
 6    1  0.6564965E-004  0.5014981E+03  0.7546771E-02  0.9396464E-01
        -11   -1    0    0    0    0  0.00000000000E+00  0.00000000000E+00  0.50000000000E+03  0.50000000000E+03  0.00000000000E+00 0. -1.
         11   -1    0    0    0    0 -0.00000000000E+00 -0.00000000000E+00 -0.50000000000E+03  0.50000000000E+03  0.00000000000E+00 0. -1.
        -11    1    1    2    0    0 -0.12891379718E+02  0.12776041026E+02  0.42197393718E+03  0.42236408294E+03  0.00000000000E+00 0. -1.
         11    1    1    2    0    0 -0.60668371002E+01 -0.83796614932E+01 -0.49839455973E+03  0.49850191816E+03  0.00000000000E+00 0. -1.
        -15    1    1    2    0    0  0.12919180863E+02 -0.46000736691E+01  0.44543598003E+02  0.46640709300E+02  0.17770000000E+01 0. -1.
         15    1    1    2    0    0  0.60390359559E+01  0.20369413623E+00  0.31877024546E+02  0.32493289607E+02  0.17770000000E+01 0.  1.
</event>
<event>
 6    1  0.6564965E-004  0.5005570E+03  0.7546771E-02  0.9398564E-01
        -11   -1    0    0    0    0  0.00000000000E+00  0.00000000000E+00  0.50000000000E+03  0.50000000000E+03  0.00000000000E+00 0. -1.
         11   -1    0    0    0    0 -0.00000000000E+00 -0.00000000000E+00 -0.50000000000E+03  0.50000000000E+03  0.00000000000E+00 0.  1.
        -11    1    1    2    0    0  0.10055543964E+02  0.60994636877E+01  0.49930454874E+03  0.49944303961E+03  0.00000000000E+00 0. -1.
         11    1    1    2    0    0  0.20005937978E+01  0.83281336333E+01 -0.24748359390E+03  0.24763176176E+03  0.00000000000E+00 0.  1.
        -15    1    1    2    0    0 -0.26471326620E+01 -0.13625376793E+02 -0.15214116256E+03  0.15278334097E+03  0.17770000000E+01 0.  1.
         15    1    1    2    0    0 -0.94090051001E+01 -0.80222052841E+00 -0.99679792290E+02  0.10014185766E+03  0.17770000000E+01 0. -1.
</event>
<event>
 6    1  0.6564965E-004  0.5214032E+03  0.7546771E-02  0.9353152E-01
        -11   -1    0    0    0    0  0.00000000000E+00  0.00000000000E+00  0.50000000000E+03  0.50000000000E+03  0.00000000000E+00 0.  1.
         11   -1    0    0    0    0 -0.00000000000E+00 -0.00000000000E+00 -0.50000000000E+03  0.50000000000E+03  0.00000000000E+00 0.  1.
        -11    1    1    2    0    0  0.14233496132E+02 -0.45234663256E+02  0.47624166504E+03  0.47859679344E+03  0.00000000000E+00 0.  1.
         11    1    1    2    0    0 -0.52710203953E+01 -0.68930881934E+01 -0.44120063005E+03  0.44128595522E+03  0.00000000000E+00 0.  1.
        -15    1    1    2    0    0 -0.17032731765E+02  0.50559019226E+02 -0.10804997048E+02  0.54463144113E+02  0.17770000000E+01 0.  1.
         15    1    1    2    0    0  0.80702560287E+01  0.15687322230E+01 -0.24236037942E+02  0.25654107220E+02  0.17770000000E+01 0. -1.
</event>
<event>
 6    1  0.6564965E-004  0.5059612E+03  0.7546771E-02  0.9386569E-01
        -11   -1    0    0    0    0  0.00000000000E+00  0.00000000000E+00  0.50000000000E+03  0.50000000000E+03  0.00000000000E+00 0.  1.
         11   -1    0    0    0    0 -0.00000000000E+00 -0.00000000000E+00 -0.50000000000E+03  0.50000000000E+03  0.00000000000E+00 0.  1.
        -11    1    1    2    0    0  0.13541331545E+02  0.12240318591E+03  0.47844370671E+03  0.49403875159E+03  0.00000000000E+00 0.  1.
         11    1    1    2    0    0 -0.16926211967E+02 -0.12308479721E+03 -0.26824452505E+03  0.29562051549E+03  0.00000000000E+00 0.  1.
        -15    1    1    2    0    0  0.33717136969E+01  0.29384438180E+01 -0.14044975841E+03  0.14053218589E+03  0.17770000000E+01 0. -1.
         15    1    1    2    0    0  0.13166724816E-01 -0.22568325226E+01 -0.69749423247E+02  0.69808547032E+02  0.17770000000E+01 0.  1.
</event>
<event>
 6    1  0.6564965E-004  0.5001102E+03  0.7546771E-02  0.9399563E-01
        -11   -1    0    0    0    0  0.00000000000E+00  0.00000000000E+00  0.50000000000E+03  0.50000000000E+03  0.00000000000E+00 0.  1.
         11   -1    0    0    0    0 -0.00000000000E+00 -0.00000000000E+00 -0.50000000000E+03  0.50000000000E+03  0.00000000000E+00 0. -1.
        -11    1    1    2    0    0 -0.36019170445E+01 -0.24138453926E+00  0.38183292451E+02  0.38353564310E+02  0.00000000000E+00 0.  1.
         11    1    1    2    0    0  0.78114698111E+01  0.16128855366E+01 -0.49982618986E+03  0.49988982839E+03  0.00000000000E+00 0. -1.
        -15    1    1    2    0    0 -0.15061177288E+01  0.27633927699E+01  0.84608381413E+02  0.84685539879E+02  0.17770000000E+01 0.  1.
         15    1    1    2    0    0 -0.27034350378E+01 -0.41348937673E+01  0.37703451599E+03  0.37707106742E+03  0.17770000000E+01 0.  1.
</event>
<event>
 6    1  0.6564965E-004  0.5165072E+03  0.7546771E-02  0.9363613E-01
        -11   -1    0    0    0    0  0.00000000000E+00  0.00000000000E+00  0.50000000000E+03  0.50000000000E+03  0.00000000000E+00 0.  1.
         11   -1    0    0    0    0 -0.00000000000E+00 -0.00000000000E+00 -0.50000000000E+03  0.50000000000E+03  0.00000000000E+00 0. -1.
        -11    1    1    2    0    0  0.12178960653E+01 -0.25333132760E+02  0.44913700078E+03  0.44985252735E+03  0.00000000000E+00 0.  1.
         11    1    1    2    0    0 -0.36738626380E+02  0.18883882624E+02 -0.48172500484E+03  0.48349282102E+03  0.00000000000E+00 0. -1.
        -15    1    1    2    0    0  0.34541128590E+02  0.76983250762E+01  0.43146129372E+02  0.55830994815E+02  0.17770000000E+01 0.  1.
         15    1    1    2    0    0  0.97960172468E+00 -0.12490749402E+01 -0.10558125313E+02  0.10823656816E+02  0.17770000000E+01 0. -1.
</event>
<event>
 6    1  0.6564965E-004  0.5007172E+03  0.7546771E-02  0.9398206E-01
        -11   -1    0    0    0    0  0.00000000000E+00  0.00000000000E+00  0.50000000000E+03  0.50000000000E+03  0.00000000000E+00 0.  1.
         11   -1    0    0    0    0 -0.00000000000E+00 -0.00000000000E+00 -0.50000000000E+03  0.50000000000E+03  0.00000000000E+00 0. -1.
        -11    1    1    2    0    0  0.56681614436E+01 -0.11179521077E+02  0.32810692836E+03  0.32834625959E+03  0.00000000000E+00 0.  1.
         11    1    1    2    0    0  0.73887155685E+01 -0.15063708644E+01 -0.49922583896E+03  0.49928278616E+03  0.00000000000E+00 0. -1.
        -15    1    1    2    0    0 -0.80179254787E+01  0.13009084736E+02  0.12755531066E+03  0.12847971988E+03  0.17770000000E+01 0.  1.
         15    1    1    2    0    0 -0.50389515334E+01 -0.32319279551E+00  0.43563599939E+02  0.43891234373E+02  0.17770000000E+01 0. -1.
</event>
<event>
 6    1  0.6564965E-004  0.5003055E+03  0.7546771E-02  0.9399126E-01
        -11   -1    0    0    0    0  0.00000000000E+00  0.00000000000E+00  0.50000000000E+03  0.50000000000E+03  0.00000000000E+00 0.  1.
         11   -1    0    0    0    0 -0.00000000000E+00 -0.00000000000E+00 -0.50000000000E+03  0.50000000000E+03  0.00000000000E+00 0. -1.
        -11    1    1    2    0    0 -0.97273306269E+01  0.13022706464E+02  0.49943004293E+03  0.49969448629E+03  0.00000000000E+00 0.  1.
         11    1    1    2    0    0 -0.31596687446E+01 -0.12181097029E+01 -0.13913897414E+03  0.13918017611E+03  0.00000000000E+00 0. -1.
        -15    1    1    2    0    0  0.36610822685E-01 -0.28083049231E+01 -0.20637877482E+03  0.20640553370E+03  0.17770000000E+01 0. -1.
         15    1    1    2    0    0  0.12850388549E+02 -0.89962918381E+01 -0.15391229398E+03  0.15471980390E+03  0.17770000000E+01 0.  1.
</event>
<event>
 6    1  0.6564965E-004  0.5001528E+03  0.7546771E-02  0.9399468E-01
        -11   -1    0    0    0    0  0.00000000000E+00  0.00000000000E+00  0.50000000000E+03  0.50000000000E+03  0.00000000000E+00 0. -1.
         11   -1    0    0    0    0 -0.00000000000E+00 -0.00000000000E+00 -0.50000000000E+03  0.50000000000E+03  0.00000000000E+00 0. -1.
        -11    1    1    2    0    0  0.74241665389E+01  0.15770703961E+01  0.88431957451E+02  0.88757064499E+02  0.00000000000E+00 0. -1.
         11    1    1    2    0    0 -0.10451266822E+02 -0.51874653949E+01 -0.49971100150E+03  0.49984720045E+03  0.00000000000E+00 0. -1.
        -15    1    1    2    0    0 -0.20005174868E+01  0.24935038043E+01  0.24537951597E+03  0.24540677296E+03  0.17770000000E+01 0. -1.
         15    1    1    2    0    0  0.50276177699E+01  0.11168911945E+01  0.16589952809E+03  0.16598896209E+03  0.17770000000E+01 0.  1.
</event>
<event>
 6    1  0.6564965E-004  0.5019228E+03  0.7546771E-02  0.9395518E-01
        -11   -1    0    0    0    0  0.00000000000E+00  0.00000000000E+00  0.50000000000E+03  0.50000000000E+03  0.00000000000E+00 0.  1.
         11   -1    0    0    0    0 -0.00000000000E+00 -0.00000000000E+00 -0.50000000000E+03  0.50000000000E+03  0.00000000000E+00 0.  1.
        -11    1    1    2    0    0  0.12290174910E+02  0.40084975432E+01  0.49790942112E+03  0.49807721097E+03  0.00000000000E+00 0.  1.
         11    1    1    2    0    0 -0.14185171559E+02 -0.19252522071E+01 -0.45603842299E+03  0.45626304796E+03  0.00000000000E+00 0.  1.
        -15    1    1    2    0    0 -0.69857850676E+01 -0.49091973701E+01 -0.19708612682E+02  0.21551996536E+02  0.17770000000E+01 0.  1.
         15    1    1    2    0    0  0.88807817168E+01  0.28259520340E+01 -0.22162385446E+02  0.24107744533E+02  0.17770000000E+01 0. -1.
</event>
<event>
 6    1  0.6564965E-004  0.5010040E+03  0.7546771E-02  0.9397566E-01
        -11   -1    0    0    0    0  0.00000000000E+00  0.00000000000E+00  0.50000000000E+03  0.50000000000E+03  0.00000000000E+00 0.  1.
         11   -1    0    0    0    0 -0.00000000000E+00 -0.00000000000E+00 -0.50000000000E+03  0.50000000000E+03  0.00000000000E+00 0. -1.
        -11    1    1    2    0    0 -0.34996234715E+01  0.84551120061E+01  0.43003089385E+03  0.43012824360E+03  0.00000000000E+00 0.  1.
         11    1    1    2    0    0 -0.97251617657E+01 -0.31749955299E+01 -0.49889113019E+03  0.49899601116E+03  0.00000000000E+00 0. -1.
        -15    1    1    2    0    0 -0.26683877198E+00 -0.20595726834E+01  0.91288635104E+01  0.95292665280E+01  0.17770000000E+01 0. -1.
         15    1    1    2    0    0  0.13491624009E+02 -0.32205437928E+01  0.59731372834E+02  0.61346478712E+02  0.17770000000E+01 0.  1.
</event>
<event>
 6    1  0.6564965E-004  0.5003153E+03  0.7546771E-02  0.9399104E-01
        -11   -1    0    0    0    0  0.00000000000E+00  0.00000000000E+00  0.50000000000E+03  0.50000000000E+03  0.00000000000E+00 0.  1.
         11   -1    0    0    0    0 -0.00000000000E+00 -0.00000000000E+00 -0.50000000000E+03  0.50000000000E+03  0.00000000000E+00 0. -1.
        -11    1    1    2    0    0  0.20964450378E+02 -0.72195409902E+01  0.49919247597E+03  0.49968465858E+03  0.00000000000E+00 0.  1.
         11    1    1    2    0    0  0.40391860898E+01 -0.19990082892E+01 -0.46331355657E+02  0.46550033034E+02  0.00000000000E+00 0. -1.
        -15    1    1    2    0    0 -0.40220378219E+01  0.57955726522E+01 -0.12335130891E+03  0.12356564486E+03  0.17770000000E+01 0. -1.
         15    1    1    2    0    0 -0.20981598646E+02  0.34229766272E+01 -0.32950981140E+03  0.33019966352E+03  0.17770000000E+01 0.  1.
</event>
<event>
 6    1  0.6564965E-004  0.5038043E+03  0.7546771E-02  0.9391337E-01
        -11   -1    0    0    0    0  0.00000000000E+00  0.00000000000E+00  0.50000000000E+03  0.50000000000E+03  0.00000000000E+00 0.  1.
         11   -1    0    0    0    0 -0.00000000000E+00 -0.00000000000E+00 -0.50000000000E+03  0.50000000000E+03  0.00000000000E+00 0. -1.
        -11    1    1    2    0    0  0.30747206511E+00 -0.78373610999E+01  0.47032604537E+03  0.47039144096E+03  0.00000000000E+00 0.  1.
         11    1    1    2    0    0  0.70124829571E+01 -0.37251989090E+01 -0.49613219975E+03  0.49619573926E+03  0.00000000000E+00 0. -1.
        -15    1    1    2    0    0  0.65329615593E+00  0.71462639275E+01  0.17082868585E+01  0.75876120737E+01  0.17770000000E+01 0. -1.
         15    1    1    2    0    0 -0.79732511781E+01  0.44162960813E+01  0.24097867522E+02  0.25825207715E+02  0.17770000000E+01 0.  1.
</event>
<event>
 6    1  0.6564965E-004  0.5055011E+03  0.7546771E-02  0.9387584E-01
        -11   -1    0    0    0    0  0.00000000000E+00  0.00000000000E+00  0.50000000000E+03  0.50000000000E+03  0.00000000000E+00 0.  1.
         11   -1    0    0    0    0 -0.00000000000E+00 -0.00000000000E+00 -0.50000000000E+03  0.50000000000E+03  0.00000000000E+00 0.  1.
        -11    1    1    2    0    0  0.14389446820E+02  0.70400189301E+01  0.49423939444E+03  0.49449893535E+03  0.00000000000E+00 0.  1.
         11    1    1    2    0    0  0.61183955304E+01 -0.52295139701E+01 -0.47680365341E+03  0.47687158281E+03  0.00000000000E+00 0.  1.
        -15    1    1    2    0    0 -0.16566342673E+02 -0.12130961224E+01 -0.17594586950E+02  0.24261956448E+02  0.17770000000E+01 0.  1.
         15    1    1    2    0    0 -0.39414996776E+01 -0.59740883756E+00  0.15884591935E+00  0.43675253925E+01  0.17770000000E+01 0. -1.
</event>
<event>
 6    1  0.6564965E-004  0.5002450E+03  0.7546771E-02  0.9399262E-01
        -11   -1    0    0    0    0  0.00000000000E+00  0.00000000000E+00  0.50000000000E+03  0.50000000000E+03  0.00000000000E+00 0.  1.
         11   -1    0    0    0    0 -0.00000000000E+00 -0.00000000000E+00 -0.50000000000E+03  0.50000000000E+03  0.00000000000E+00 0.  1.
        -11    1    1    2    0    0 -0.12654288481E+02 -0.70177558478E+01  0.34718310962E+03  0.34748451982E+03  0.00000000000E+00 0.  1.
         11    1    1    2    0    0  0.73216896284E+01  0.18920072693E+01 -0.49969780207E+03  0.49975502021E+03  0.00000000000E+00 0.  1.
        -15    1    1    2    0    0  0.24243225083E+01  0.11492158065E+01  0.75027289049E+02  0.75096270664E+02  0.17770000000E+01 0. -1.
         15    1    1    2    0    0  0.29082763439E+01  0.39765327721E+01  0.77487403408E+02  0.77664189303E+02  0.17770000000E+01 0. -1.
</event>
<event>
 6    1  0.6564965E-004  0.4732453E+03  0.7546771E-02  0.9461749E-01
        -11   -1    0    0    0    0  0.00000000000E+00  0.00000000000E+00  0.50000000000E+03  0.50000000000E+03  0.00000000000E+00 0.  1.
         11   -1    0    0    0    0 -0.00000000000E+00 -0.00000000000E+00 -0.50000000000E+03  0.50000000000E+03  0.00000000000E+00 0. -1.
        -11    1    1    2    0    0 -0.20442385340E+02 -0.20003592422E+02  0.47862689181E+03  0.47948069449E+03  0.00000000000E+00 0.  1.
         11    1    1    2    0    0 -0.54368874666E+01  0.48556028368E+01 -0.46749339871E+03  0.46755022667E+03  0.00000000000E+00 0. -1.
        -15    1    1    2    0    0  0.39912649094E+01  0.67154088438E+01 -0.24594523852E+02  0.25866488823E+02  0.17770000000E+01 0. -1.
         15    1    1    2    0    0  0.21888007897E+02  0.84325807413E+01  0.13461030754E+02  0.27102590017E+02  0.17770000000E+01 0.  1.
</event>
<event>
 6    1  0.6564965E-004  0.4657987E+03  0.7546771E-02  0.9479767E-01
        -11   -1    0    0    0    0  0.00000000000E+00  0.00000000000E+00  0.50000000000E+03  0.50000000000E+03  0.00000000000E+00 0. -1.
         11   -1    0    0    0    0 -0.00000000000E+00 -0.00000000000E+00 -0.50000000000E+03  0.50000000000E+03  0.00000000000E+00 0.  1.
        -11    1    1    2    0    0  0.10427050907E+02 -0.13767053141E+02  0.46169857466E+03  0.46202145945E+03  0.00000000000E+00 0. -1.
         11    1    1    2    0    0  0.63174579873E+01 -0.25595628775E+01 -0.46985574323E+03  0.46990518307E+03  0.00000000000E+00 0.  1.
        -15    1    1    2    0    0 -0.57364914746E+00  0.25845636305E+01 -0.26881983568E+02  0.27070423197E+02  0.17770000000E+01 0.  1.
         15    1    1    2    0    0 -0.16170859746E+02  0.13742052388E+02  0.35039152131E+02  0.41002934283E+02  0.17770000000E+01 0. -1.
</event>
<event>
 6    1  0.6564965E-004  0.4830084E+03  0.7546771E-02  0.9438653E-01
        -11   -1    0    0    0    0  0.00000000000E+00  0.00000000000E+00  0.50000000000E+03  0.50000000000E+03  0.00000000000E+00 0. -1.
         11   -1    0    0    0    0 -0.00000000000E+00 -0.00000000000E+00 -0.50000000000E+03  0.50000000000E+03  0.00000000000E+00 0.  1.
        -11    1    1    2    0    0  0.32134604936E+01 -0.34348463014E+02  0.48227937910E+03  0.48351167798E+03  0.00000000000E+00 0. -1.
         11    1    1    2    0    0  0.55797812790E+00  0.15254491230E+02 -0.48245975958E+03  0.48270118133E+03  0.00000000000E+00 0.  1.
        -15    1    1    2    0    0  0.65297673069E+01 -0.42585805720E+01  0.16320643009E+01  0.81605595674E+01  0.17770000000E+01 0. -1.
         15    1    1    2    0    0 -0.10301205928E+02  0.23352552356E+02 -0.14516838153E+01  0.25626581122E+02  0.17770000000E+01 0.  1.
</event>
<event>
 6    1  0.6564965E-004  0.5001257E+03  0.7546771E-02  0.9399529E-01
        -11   -1    0    0    0    0  0.00000000000E+00  0.00000000000E+00  0.50000000000E+03  0.50000000000E+03  0.00000000000E+00 0. -1.
         11   -1    0    0    0    0 -0.00000000000E+00 -0.00000000000E+00 -0.50000000000E+03  0.50000000000E+03  0.00000000000E+00 0.  1.
        -11    1    1    2    0    0  0.17565632744E+01  0.16637656564E+01  0.18336139395E+02  0.18495070657E+02  0.00000000000E+00 0. -1.
         11    1    1    2    0    0 -0.11973304885E+02 -0.23003910169E+01 -0.49972563542E+03  0.49987434673E+03  0.00000000000E+00 0.  1.
        -15    1    1    2    0    0  0.81224772733E+01  0.11275879318E+00  0.45786469442E+03  0.45794019640E+03  0.17770000000E+01 0. -1.
         15    1    1    2    0    0  0.20942643376E+01  0.52386656730E+00  0.23524801599E+02  0.23690386206E+02  0.17770000000E+01 0. -1.
</event>
<event>
 6    1  0.1087791E-003  0.5001362E+03  0.7546771E-02  0.9399505E-01
        -11   -1    0    0    0    0  0.00000000000E+00  0.00000000000E+00  0.50000000000E+03  0.50000000000E+03  0.00000000000E+00 0.  1.
         11   -1    0    0    0    0 -0.00000000000E+00 -0.00000000000E+00 -0.50000000000E+03  0.50000000000E+03  0.00000000000E+00 0. -1.
        -11    1    1    2    0    0  0.50827262010E+01 -0.67273667661E+01  0.49979265114E+03  0.49986376714E+03  0.00000000000E+00 0.  1.
         11    1    1    2    0    0  0.65862515505E+00 -0.22924113126E+01 -0.15825583485E+03  0.15827380769E+03  0.00000000000E+00 0. -1.
        -15    1    1    2    0    0 -0.15647857458E+01 -0.17392972391E+01 -0.45018041115E+02  0.45113805694E+02  0.17770000000E+01 0. -1.
         15    1    1    2    0    0 -0.41765656103E+01  0.10759075318E+02 -0.29651877518E+03  0.29674861948E+03  0.17770000000E+01 0. -1.
</event>
<event>
 6    1  0.6564965E-004  0.5009620E+03  0.7546771E-02  0.9397660E-01
        -11   -1    0    0    0    0  0.00000000000E+00  0.00000000000E+00  0.50000000000E+03  0.50000000000E+03  0.00000000000E+00 0. -1.
         11   -1    0    0    0    0 -0.00000000000E+00 -0.00000000000E+00 -0.50000000000E+03  0.50000000000E+03  0.00000000000E+00 0. -1.
        -11    1    1    2    0    0  0.10430868697E+02  0.96087773363E+01  0.49883647673E+03  0.49903803676E+03  0.00000000000E+00 0. -1.
         11    1    1    2    0    0  0.76924089641E+00 -0.87522032676E+01 -0.45415464114E+03  0.45423961833E+03  0.00000000000E+00 0. -1.
        -15    1    1    2    0    0 -0.95689167531E+01 -0.12903804161E+01 -0.24525505356E+02  0.26417558392E+02  0.17770000000E+01 0. -1.
         15    1    1    2    0    0 -0.16311928399E+01  0.43380634739E+00 -0.20156330234E+02  0.20304786517E+02  0.17770000000E+01 0.  1.
</event>
<event>
 6    1  0.6564965E-004  0.5045232E+03  0.7546771E-02  0.9389745E-01
        -11   -1    0    0    0    0  0.00000000000E+00  0.00000000000E+00  0.50000000000E+03  0.50000000000E+03  0.00000000000E+00 0.  1.
         11   -1    0    0    0    0 -0.00000000000E+00 -0.00000000000E+00 -0.50000000000E+03  0.50000000000E+03  0.00000000000E+00 0. -1.
        -11    1    1    2    0    0 -0.46396018499E+01 -0.84338366875E+01  0.47952803488E+03  0.47962463629E+03  0.00000000000E+00 0.  1.
         11    1    1    2    0    0  0.41940041963E+01 -0.62888655325E+01 -0.49541916871E+03  0.49547683319E+03  0.00000000000E+00 0. -1.
        -15    1    1    2    0    0 -0.43813150122E+01  0.96318484621E+01  0.50374020989E+01  0.11853336026E+02  0.17770000000E+01 0. -1.
         15    1    1    2    0    0  0.48269126658E+01  0.50908537580E+01  0.10853731734E+02  0.13045194496E+02  0.17770000000E+01 0.  1.
</event>
<event>
 6    1  0.6564965E-004  0.5015415E+03  0.7546771E-02  0.9396367E-01
        -11   -1    0    0    0    0  0.00000000000E+00  0.00000000000E+00  0.50000000000E+03  0.50000000000E+03  0.00000000000E+00 0.  1.
         11   -1    0    0    0    0 -0.00000000000E+00 -0.00000000000E+00 -0.50000000000E+03  0.50000000000E+03  0.00000000000E+00 0. -1.
        -11    1    1    2    0    0 -0.42596946101E+01  0.16579183425E+02  0.49816452604E+03  0.49845853321E+03  0.00000000000E+00 0.  1.
         11    1    1    2    0    0  0.60323997625E+01  0.77421846367E+01 -0.38718268348E+03  0.38730706379E+03  0.00000000000E+00 0. -1.
        -15    1    1    2    0    0  0.37876615559E+01 -0.49566601003E+01 -0.19762229370E+02  0.20799478312E+02  0.17770000000E+01 0.  1.
         15    1    1    2    0    0 -0.55603667083E+01 -0.19364707961E+02 -0.91219613192E+02  0.93434924692E+02  0.17770000000E+01 0. -1.
</event>
<event>
 6    1  0.6564965E-004  0.5097034E+03  0.7546771E-02  0.9378356E-01
        -11   -1    0    0    0    0  0.00000000000E+00  0.00000000000E+00  0.50000000000E+03  0.50000000000E+03  0.00000000000E+00 0. -1.
         11   -1    0    0    0    0 -0.00000000000E+00 -0.00000000000E+00 -0.50000000000E+03  0.50000000000E+03  0.00000000000E+00 0.  1.
        -11    1    1    2    0    0  0.49078740298E+01  0.28818845957E+02  0.46869231333E+03  0.46960312785E+03  0.00000000000E+00 0. -1.
         11    1    1    2    0    0 -0.18245972660E+02  0.65137263168E+00 -0.48995655257E+03  0.49029660738E+03  0.00000000000E+00 0.  1.
        -15    1    1    2    0    0  0.49289346975E+01 -0.27302287996E+01  0.38806582027E+01  0.70686479355E+01  0.17770000000E+01 0.  1.
         15    1    1    2    0    0  0.84091639323E+01 -0.26739989789E+02  0.17383581033E+02  0.33031616831E+02  0.17770000000E+01 0. -1.
</event>
<event>
 6    1  0.6564965E-004  0.5070914E+03  0.7546771E-02  0.9384080E-01
        -11   -1    0    0    0    0  0.00000000000E+00  0.00000000000E+00  0.50000000000E+03  0.50000000000E+03  0.00000000000E+00 0. -1.
         11   -1    0    0    0    0 -0.00000000000E+00 -0.00000000000E+00 -0.50000000000E+03  0.50000000000E+03  0.00000000000E+00 0. -1.
        -11    1    1    2    0    0 -0.47866849742E+01 -0.83804867985E+01  0.49281409744E+03  0.49290859147E+03  0.00000000000E+00 0. -1.
         11    1    1    2    0    0  0.17682227771E+02  0.31279680184E+01 -0.46508031800E+03  0.46542684447E+03  0.00000000000E+00 0. -1.
        -15    1    1    2    0    0 -0.29855190876E+01 -0.77606354367E+00 -0.29572836420E+02  0.29786338845E+02  0.17770000000E+01 0. -1.
         15    1    1    2    0    0 -0.99100237091E+01  0.60285823238E+01  0.18390569789E+01  0.11878225218E+02  0.17770000000E+01 0.  1.
</event>
<event>
 6    1  0.6564965E-004  0.5068804E+03  0.7546771E-02  0.9384545E-01
        -11   -1    0    0    0    0  0.00000000000E+00  0.00000000000E+00  0.50000000000E+03  0.50000000000E+03  0.00000000000E+00 0. -1.
         11   -1    0    0    0    0 -0.00000000000E+00 -0.00000000000E+00 -0.50000000000E+03  0.50000000000E+03  0.00000000000E+00 0. -1.
        -11    1    1    2    0    0  0.32697675286E+00 -0.26355753517E+02  0.49241465015E+03  0.49311958017E+03  0.00000000000E+00 0. -1.
         11    1    1    2    0    0 -0.24193335846E+01 -0.61976379714E+01 -0.45115664211E+03  0.45120569545E+03  0.00000000000E+00 0. -1.
        -15    1    1    2    0    0  0.17577350068E+01  0.30386644990E+02 -0.25738481879E+02  0.39900689274E+02  0.17770000000E+01 0. -1.
         15    1    1    2    0    0  0.33462182494E+00  0.21667464988E+01 -0.15519526165E+02  0.15774035107E+02  0.17770000000E+01 0. -1.
</event>
<event>
 6    1  0.6564965E-004  0.5017540E+03  0.7546771E-02  0.9395894E-01
        -11   -1    0    0    0    0  0.00000000000E+00  0.00000000000E+00  0.50000000000E+03  0.50000000000E+03  0.00000000000E+00 0.  1.
         11   -1    0    0    0    0 -0.00000000000E+00 -0.00000000000E+00 -0.50000000000E+03  0.50000000000E+03  0.00000000000E+00 0. -1.
        -11    1    1    2    0    0  0.82487697240E+01  0.15123904407E+01  0.49817543340E+03  0.49824601551E+03  0.00000000000E+00 0.  1.
         11    1    1    2    0    0 -0.29636453486E+01  0.96182779602E+01 -0.47462892677E+03  0.47473562389E+03  0.00000000000E+00 0. -1.
        -15    1    1    2    0    0 -0.29915392239E+01 -0.87168765154E+01 -0.18147910921E+02  0.20431290780E+02  0.17770000000E+01 0. -1.
         15    1    1    2    0    0 -0.22935851515E+01 -0.24137918855E+01 -0.53985957144E+01  0.65870698190E+01  0.17770000000E+01 0.  1.
</event>
<event>
 6    1  0.6564965E-004  0.5029493E+03  0.7546771E-02  0.9393235E-01
        -11   -1    0    0    0    0  0.00000000000E+00  0.00000000000E+00  0.50000000000E+03  0.50000000000E+03  0.00000000000E+00 0.  1.
         11   -1    0    0    0    0 -0.00000000000E+00 -0.00000000000E+00 -0.50000000000E+03  0.50000000000E+03  0.00000000000E+00 0. -1.
        -11    1    1    2    0    0 -0.85543238967E+01  0.29366561645E+02  0.49610870006E+03  0.49705071539E+03  0.00000000000E+00 0.  1.
         11    1    1    2    0    0 -0.45932652794E+00 -0.85046487573E+01 -0.40253942061E+03  0.40262951354E+03  0.00000000000E+00 0. -1.
        -15    1    1    2    0    0 -0.26611142644E+01  0.52397063242E+01 -0.29573471958E+02  0.30204039864E+02  0.17770000000E+01 0.  1.
         15    1    1    2    0    0  0.11674764689E+02 -0.26101619212E+02 -0.63995807490E+02  0.70115731197E+02  0.17770000000E+01 0. -1.
</event>
<event>
 6    1  0.6564965E-004  0.5066766E+03  0.7546771E-02  0.9384993E-01
        -11   -1    0    0    0    0  0.00000000000E+00  0.00000000000E+00  0.50000000000E+03  0.50000000000E+03  0.00000000000E+00 0.  1.
         11   -1    0    0    0    0 -0.00000000000E+00 -0.00000000000E+00 -0.50000000000E+03  0.50000000000E+03  0.00000000000E+00 0. -1.
        -11    1    1    2    0    0 -0.27592858527E+01 -0.14745388911E+02  0.49309530136E+03  0.49332343992E+03  0.00000000000E+00 0.  1.
         11    1    1    2    0    0 -0.72348468852E+01 -0.17017591312E+01 -0.48032090671E+03  0.48037840544E+03  0.00000000000E+00 0. -1.
        -15    1    1    2    0    0  0.10533594955E+02  0.59765398558E+01 -0.55355443782E+01  0.13434121924E+02  0.17770000000E+01 0. -1.
         15    1    1    2    0    0 -0.53946221659E+00  0.10470608186E+02 -0.72388502769E+01  0.12864032711E+02  0.17770000000E+01 0.  1.
</event>
<event>
 6    1  0.6564965E-004  0.5000493E+03  0.7546771E-02  0.9399699E-01
        -11   -1    0    0    0    0  0.00000000000E+00  0.00000000000E+00  0.50000000000E+03  0.50000000000E+03  0.00000000000E+00 0.  1.
         11   -1    0    0    0    0 -0.00000000000E+00 -0.00000000000E+00 -0.50000000000E+03  0.50000000000E+03  0.00000000000E+00 0.  1.
        -11    1    1    2    0    0  0.41306375576E+01 -0.29221265493E+01  0.10213251559E+03  0.10225777101E+03  0.00000000000E+00 0.  1.
         11    1    1    2    0    0 -0.86602858000E+01  0.59011703946E+01 -0.49984081573E+03  0.49995066299E+03  0.00000000000E+00 0.  1.
        -15    1    1    2    0    0  0.25814218944E+01 -0.41000955286E+01  0.22251284351E+03  0.22257267976E+03  0.17770000000E+01 0.  1.
         15    1    1    2    0    0  0.19482263479E+01  0.11210516834E+01  0.17519545663E+03  0.17521888624E+03  0.17770000000E+01 0.  1.
</event>
<event>
 6    1  0.6564965E-004  0.5068318E+03  0.7546771E-02  0.9384652E-01
        -11   -1    0    0    0    0  0.00000000000E+00  0.00000000000E+00  0.50000000000E+03  0.50000000000E+03  0.00000000000E+00 0.  1.
         11   -1    0    0    0    0 -0.00000000000E+00 -0.00000000000E+00 -0.50000000000E+03  0.50000000000E+03  0.00000000000E+00 0.  1.
        -11    1    1    2    0    0  0.16052265374E+02 -0.56286488729E+02  0.14753665903E+03  0.15872274505E+03  0.00000000000E+00 0.  1.
         11    1    1    2    0    0  0.75718847543E+01  0.20744044397E+02 -0.49267359710E+03  0.49316824928E+03  0.00000000000E+00 0.  1.
        -15    1    1    2    0    0 -0.59212057964E+00  0.91172276248E+01  0.10631844154E+03  0.10672508227E+03  0.17770000000E+01 0. -1.
         15    1    1    2    0    0 -0.23032029549E+02  0.26425216707E+02  0.23881849653E+03  0.24138392340E+03  0.17770000000E+01 0.  1.
</event>
<event>
 6    1  0.6564965E-004  0.5193542E+03  0.7546771E-02  0.9357515E-01
        -11   -1    0    0    0    0  0.00000000000E+00  0.00000000000E+00  0.50000000000E+03  0.50000000000E+03  0.00000000000E+00 0.  1.
         11   -1    0    0    0    0 -0.00000000000E+00 -0.00000000000E+00 -0.50000000000E+03  0.50000000000E+03  0.00000000000E+00 0.  1.
        -11    1    1    2    0    0  0.16705681947E+03  0.10733881766E+02  0.45055213426E+03  0.48064583930E+03  0.00000000000E+00 0.  1.
         11    1    1    2    0    0  0.15270616049E+01 -0.17418976114E+01 -0.12630145576E+03  0.12632269729E+03  0.00000000000E+00 0.  1.
        -15    1    1    2    0    0 -0.14230683497E+01  0.38103574920E+01 -0.15407565399E+03  0.15413957580E+03  0.17770000000E+01 0. -1.
         15    1    1    2    0    0 -0.16716081273E+03 -0.12802341647E+02 -0.17017502452E+03  0.23889188760E+03  0.17770000000E+01 0.  1.
</event>
<event>
 6    1  0.6564965E-004  0.5003065E+03  0.7546771E-02  0.9399124E-01
        -11   -1    0    0    0    0  0.00000000000E+00  0.00000000000E+00  0.50000000000E+03  0.50000000000E+03  0.00000000000E+00 0. -1.
         11   -1    0    0    0    0 -0.00000000000E+00 -0.00000000000E+00 -0.50000000000E+03  0.50000000000E+03  0.00000000000E+00 0. -1.
        -11    1    1    2    0    0 -0.57686792312E+01 -0.39474122912E+01  0.49964456503E+03  0.49969345712E+03  0.00000000000E+00 0. -1.
         11    1    1    2    0    0  0.49738473800E+01  0.43545030010E+01 -0.42959901091E+03  0.42964987028E+03  0.00000000000E+00 0. -1.
        -15    1    1    2    0    0 -0.14993846694E+01 -0.28650381640E+01 -0.55489071583E+02  0.55611612027E+02  0.17770000000E+01 0. -1.
         15    1    1    2    0    0  0.22942165206E+01  0.24579474542E+01 -0.14556482530E+02  0.15045060578E+02  0.17770000000E+01 0.  1.
</event>
<event>
 6    1  0.6564965E-004  0.5038624E+03  0.7546771E-02  0.9391208E-01
        -11   -1    0    0    0    0  0.00000000000E+00  0.00000000000E+00  0.50000000000E+03  0.50000000000E+03  0.00000000000E+00 0.  1.
         11   -1    0    0    0    0 -0.00000000000E+00 -0.00000000000E+00 -0.50000000000E+03  0.50000000000E+03  0.00000000000E+00 0. -1.
        -11    1    1    2    0    0 -0.12108273990E+01  0.27459133535E+02  0.49537561618E+03  0.49613755273E+03  0.00000000000E+00 0.  1.
         11    1    1    2    0    0 -0.63004974872E+01 -0.58809201744E+01 -0.42394055173E+03  0.42402815106E+03  0.00000000000E+00 0. -1.
        -15    1    1    2    0    0 -0.56690524020E+00 -0.24484391818E+02 -0.63213737010E+02  0.67815493068E+02  0.17770000000E+01 0. -1.
         15    1    1    2    0    0  0.80782301264E+01  0.29061784569E+01 -0.82213274437E+01  0.12018803149E+02  0.17770000000E+01 0.  1.
</event>
<event>
 6    1  0.6564965E-004  0.5002642E+03  0.7546771E-02  0.9399219E-01
        -11   -1    0    0    0    0  0.00000000000E+00  0.00000000000E+00  0.50000000000E+03  0.50000000000E+03  0.00000000000E+00 0. -1.
         11   -1    0    0    0    0 -0.00000000000E+00 -0.00000000000E+00 -0.50000000000E+03  0.50000000000E+03  0.00000000000E+00 0.  1.
        -11    1    1    2    0    0 -0.57462222847E+01 -0.10796207934E+01  0.27857728747E+02  0.28464674644E+02  0.00000000000E+00 0. -1.
         11    1    1    2    0    0  0.11778130931E+02  0.40417860657E+01 -0.49958061566E+03  0.49973578213E+03  0.00000000000E+00 0.  1.
        -15    1    1    2    0    0 -0.26101583145E+01  0.58373685733E+00  0.15396610695E+03  0.15399958926E+03  0.17770000000E+01 0. -1.
         15    1    1    2    0    0 -0.34217503321E+01 -0.35459021296E+01  0.31775677996E+03  0.31779995396E+03  0.17770000000E+01 0.  1.
</event>
<event>
 6    1  0.6564965E-004  0.5007829E+03  0.7546771E-02  0.9398060E-01
        -11   -1    0    0    0    0  0.00000000000E+00  0.00000000000E+00  0.50000000000E+03  0.50000000000E+03  0.00000000000E+00 0. -1.
         11   -1    0    0    0    0 -0.00000000000E+00 -0.00000000000E+00 -0.50000000000E+03  0.50000000000E+03  0.00000000000E+00 0.  1.
        -11    1    1    2    0    0  0.43676790062E+01  0.63643428514E+01  0.19572553873E+02  0.21039637472E+02  0.00000000000E+00 0. -1.
         11    1    1    2    0    0 -0.99782449320E+01  0.45181688017E+01 -0.49909687595E+03  0.49921705781E+03  0.00000000000E+00 0.  1.
        -15    1    1    2    0    0  0.47556102779E+01 -0.56865980205E+01  0.36958014596E+03  0.36965875513E+03  0.17770000000E+01 0. -1.
         15    1    1    2    0    0  0.85495564789E+00 -0.51959136326E+01  0.10994417612E+03  0.11008454959E+03  0.17770000000E+01 0.  1.
</event>
<event>
 6    1  0.6564965E-004  0.5006160E+03  0.7546771E-02  0.9398432E-01
        -11   -1    0    0    0    0  0.00000000000E+00  0.00000000000E+00  0.50000000000E+03  0.50000000000E+03  0.00000000000E+00 0.  1.
         11   -1    0    0    0    0 -0.00000000000E+00 -0.00000000000E+00 -0.50000000000E+03  0.50000000000E+03  0.00000000000E+00 0.  1.
        -11    1    1    2    0    0 -0.80326757586E+01 -0.86118624572E-01  0.25873786408E+02  0.27092141284E+02  0.00000000000E+00 0.  1.
         11    1    1    2    0    0  0.72185168175E+01 -0.35303307128E+01 -0.49931935437E+03  0.49938400842E+03  0.00000000000E+00 0.  1.
        -15    1    1    2    0    0  0.10952080631E+01 -0.16786368374E+01  0.97870212502E+02  0.97906861488E+02  0.17770000000E+01 0.  1.
         15    1    1    2    0    0 -0.28104912199E+00  0.52950861748E+01  0.37557535546E+03  0.37561698881E+03  0.17770000000E+01 0.  1.
</event>
<event>
 6    1  0.6564965E-004  0.5015013E+03  0.7546771E-02  0.9396457E-01
        -11   -1    0    0    0    0  0.00000000000E+00  0.00000000000E+00  0.50000000000E+03  0.50000000000E+03  0.00000000000E+00 0. -1.
         11   -1    0    0    0    0 -0.00000000000E+00 -0.00000000000E+00 -0.50000000000E+03  0.50000000000E+03  0.00000000000E+00 0.  1.
        -11    1    1    2    0    0  0.23483128407E+02 -0.16223710678E+02  0.49768090753E+03  0.49849869792E+03  0.00000000000E+00 0. -1.
         11    1    1    2    0    0  0.39452312667E+01 -0.26069206039E+01 -0.32321909968E+03  0.32325368874E+03  0.00000000000E+00 0.  1.
        -15    1    1    2    0    0 -0.21325557399E+01  0.28903798189E+01 -0.52846177322E+02  0.52997908223E+02  0.17770000000E+01 0.  1.
         15    1    1    2    0    0 -0.25295803934E+02  0.15940251463E+02 -0.12161563053E+03  0.12524970512E+03  0.17770000000E+01 0. -1.
</event>
<event>
 6    1  0.6564965E-004  0.5000816E+03  0.7546771E-02  0.9399627E-01
        -11   -1    0    0    0    0  0.00000000000E+00  0.00000000000E+00  0.50000000000E+03  0.50000000000E+03  0.00000000000E+00 0.  1.
         11   -1    0    0    0    0 -0.00000000000E+00 -0.00000000000E+00 -0.50000000000E+03  0.50000000000E+03  0.00000000000E+00 0. -1.
        -11    1    1    2    0    0 -0.29022651398E+01  0.25469253585E+02  0.49926079996E+03  0.49991844575E+03  0.00000000000E+00 0.  1.
         11    1    1    2    0    0  0.57772240627E+00 -0.20312148940E+02 -0.35646680055E+03  0.35704551118E+03  0.00000000000E+00 0. -1.
        -15    1    1    2    0    0  0.21554250729E+01 -0.21389609502E+01 -0.33188944733E+02  0.33374912625E+02  0.17770000000E+01 0.  1.
         15    1    1    2    0    0  0.16911766063E+00 -0.30181436947E+01 -0.10960505467E+03  0.10966113045E+03  0.17770000000E+01 0. -1.
</event>
<event>
 6    1  0.6564965E-004  0.5018349E+03  0.7546771E-02  0.9395713E-01
        -11   -1    0    0    0    0  0.00000000000E+00  0.00000000000E+00  0.50000000000E+03  0.50000000000E+03  0.00000000000E+00 0.  1.
         11   -1    0    0    0    0 -0.00000000000E+00 -0.00000000000E+00 -0.50000000000E+03  0.50000000000E+03  0.00000000000E+00 0.  1.
        -11    1    1    2    0    0  0.18367830291E+02 -0.15791125707E+02  0.49757589782E+03  0.49816514424E+03  0.00000000000E+00 0.  1.
         11    1    1    2    0    0 -0.94770025340E+01  0.17800519787E+02 -0.48542600884E+03  0.48584470991E+03  0.00000000000E+00 0.  1.
        -15    1    1    2    0    0 -0.22295227030E+01  0.68769796838E+00 -0.42492028754E+01  0.51630566582E+01  0.17770000000E+01 0. -1.
         15    1    1    2    0    0 -0.66613050539E+01 -0.26970920486E+01 -0.79006861054E+01  0.10827089197E+02  0.17770000000E+01 0. -1.
</event>
<event>
 6    1  0.6564965E-004  0.5083784E+03  0.7546771E-02  0.9381255E-01
        -11   -1    0    0    0    0  0.00000000000E+00  0.00000000000E+00  0.50000000000E+03  0.50000000000E+03  0.00000000000E+00 0. -1.
         11   -1    0    0    0    0 -0.00000000000E+00 -0.00000000000E+00 -0.50000000000E+03  0.50000000000E+03  0.00000000000E+00 0.  1.
        -11    1    1    2    0    0  0.27879440880E+02 -0.38387085357E+02  0.32168742200E+03  0.32516707862E+03  0.00000000000E+00 0. -1.
         11    1    1    2    0    0 -0.21728449878E+02 -0.22818254407E+02 -0.49061084074E+03  0.49162159769E+03  0.00000000000E+00 0.  1.
        -15    1    1    2    0    0  0.20885149545E+00  0.43901545148E+02  0.15164499295E+03  0.15788207910E+03  0.17770000000E+01 0. -1.
         15    1    1    2    0    0 -0.63598424975E+01  0.17303794616E+02  0.17278425783E+02  0.25329244585E+02  0.17770000000E+01 0.  1.
</event>
<event>
 6    1  0.6564965E-004  0.5149865E+03  0.7546771E-02  0.9366887E-01
        -11   -1    0    0    0    0  0.00000000000E+00  0.00000000000E+00  0.50000000000E+03  0.50000000000E+03  0.00000000000E+00 0.  1.
         11   -1    0    0    0    0 -0.00000000000E+00 -0.00000000000E+00 -0.50000000000E+03  0.50000000000E+03  0.00000000000E+00 0.  1.
        -11    1    1    2    0    0 -0.26824743748E+02 -0.13474571403E+02  0.48408361126E+03  0.48501347780E+03  0.00000000000E+00 0.  1.
         11    1    1    2    0    0 -0.94280841241E+01  0.83536679368E+01 -0.46024388010E+03  0.46041622659E+03  0.00000000000E+00 0.  1.
        -15    1    1    2    0    0  0.33644867406E+01 -0.68989429352E+01 -0.17154990319E+02  0.18877674817E+02  0.17770000000E+01 0. -1.
         15    1    1    2    0    0  0.32888341131E+02  0.12019846402E+02 -0.66847408438E+01  0.35692620792E+02  0.17770000000E+01 0.  1.
</event>
<event>
 6    1  0.6564965E-004  0.4959950E+03  0.7546771E-02  0.9408816E-01
        -11   -1    0    0    0    0  0.00000000000E+00  0.00000000000E+00  0.50000000000E+03  0.50000000000E+03  0.00000000000E+00 0.  1.
         11   -1    0    0    0    0 -0.00000000000E+00 -0.00000000000E+00 -0.50000000000E+03  0.50000000000E+03  0.00000000000E+00 0. -1.
        -11    1    1    2    0    0  0.98022205213E+00 -0.52740035841E+01  0.63881973399E+01  0.83417632627E+01  0.00000000000E+00 0.  1.
         11    1    1    2    0    0 -0.24237805987E+00  0.13782630564E+02 -0.49870627305E+03  0.49889674927E+03  0.00000000000E+00 0. -1.
        -15    1    1    2    0    0  0.87236621678E+01 -0.20545859630E+01  0.24888767100E+03  0.24905532339E+03  0.17770000000E+01 0.  1.
         15    1    1    2    0    0 -0.94615061601E+01 -0.64540410164E+01  0.24343040471E+03  0.24370616408E+03  0.17770000000E+01 0. -1.
</event>
<event>
 6    1  0.6564965E-004  0.5194690E+03  0.7546771E-02  0.9357270E-01
        -11   -1    0    0    0    0  0.00000000000E+00  0.00000000000E+00  0.50000000000E+03  0.50000000000E+03  0.00000000000E+00 0.  1.
         11   -1    0    0    0    0 -0.00000000000E+00 -0.00000000000E+00 -0.50000000000E+03  0.50000000000E+03  0.00000000000E+00 0. -1.
        -11    1    1    2    0    0  0.86623998669E+02 -0.24336160598E+02  0.12231654568E+03  0.15184631443E+03  0.00000000000E+00 0.  1.
         11    1    1    2    0    0 -0.23462807820E+02 -0.36546404901E+02 -0.47856439783E+03  0.48053098332E+03  0.00000000000E+00 0. -1.
        -15    1    1    2    0    0 -0.78433619998E+01  0.18465578015E+01  0.17566520033E+02  0.19407948327E+02  0.17770000000E+01 0. -1.
         15    1    1    2    0    0 -0.55317828849E+02  0.59036007697E+02  0.33868133212E+03  0.34821475392E+03  0.17770000000E+01 0.  1.
</event>
<event>
 6    1  0.6564965E-004  0.5033724E+03  0.7546771E-02  0.9392295E-01
        -11   -1    0    0    0    0  0.00000000000E+00  0.00000000000E+00  0.50000000000E+03  0.50000000000E+03  0.00000000000E+00 0. -1.
         11   -1    0    0    0    0 -0.00000000000E+00 -0.00000000000E+00 -0.50000000000E+03  0.50000000000E+03  0.00000000000E+00 0.  1.
        -11    1    1    2    0    0  0.18041869818E+02  0.12387615322E+02  0.49614518582E+03  0.49662763464E+03  0.00000000000E+00 0. -1.
         11    1    1    2    0    0  0.64494899189E+01 -0.47368134952E+01 -0.40104486199E+03  0.40112468716E+03  0.00000000000E+00 0.  1.
        -15    1    1    2    0    0 -0.18436111576E+02 -0.11546625927E+02 -0.32129840664E+02  0.38841976913E+02  0.17770000000E+01 0.  1.
         15    1    1    2    0    0 -0.60552481608E+01  0.38958241009E+01 -0.62970483170E+02  0.63405701284E+02  0.17770000000E+01 0. -1.
</event>
<event>
 6    1  0.6564965E-004  0.5014871E+03  0.7546771E-02  0.9396488E-01
        -11   -1    0    0    0    0  0.00000000000E+00  0.00000000000E+00  0.50000000000E+03  0.50000000000E+03  0.00000000000E+00 0.  1.
         11   -1    0    0    0    0 -0.00000000000E+00 -0.00000000000E+00 -0.50000000000E+03  0.50000000000E+03  0.00000000000E+00 0.  1.
        -11    1    1    2    0    0  0.71711120226E+01  0.10809884510E+01  0.46659376160E+03  0.46665011706E+03  0.00000000000E+00 0.  1.
         11    1    1    2    0    0  0.25157273862E+01 -0.62536750893E+01 -0.49846737426E+03  0.49851294921E+03  0.00000000000E+00 0.  1.
        -15    1    1    2    0    0 -0.47925617095E+01  0.14369783718E+01  0.24495493859E+02  0.25064327300E+02  0.17770000000E+01 0.  1.
         15    1    1    2    0    0 -0.48942776993E+01  0.37357082664E+01  0.73781187970E+01  0.97726064298E+01  0.17770000000E+01 0. -1.
</event>
<event>
 6    1  0.6564965E-004  0.5011083E+03  0.7546771E-02  0.9397333E-01
        -11   -1    0    0    0    0  0.00000000000E+00  0.00000000000E+00  0.50000000000E+03  0.50000000000E+03  0.00000000000E+00 0. -1.
         11   -1    0    0    0    0 -0.00000000000E+00 -0.00000000000E+00 -0.50000000000E+03  0.50000000000E+03  0.00000000000E+00 0. -1.
        -11    1    1    2    0    0  0.20048528312E+02  0.93241868974E+01  0.12713222084E+03  0.12904063516E+03  0.00000000000E+00 0. -1.
         11    1    1    2    0    0 -0.31188388758E+01 -0.27101887734E+02 -0.49814525462E+03  0.49889170586E+03  0.00000000000E+00 0. -1.
        -15    1    1    2    0    0 -0.29464841999E+01  0.17142609289E+01  0.17882274732E+02  0.18290815680E+02  0.17770000000E+01 0. -1.
         15    1    1    2    0    0 -0.13983205236E+02  0.16063439908E+02  0.35313075906E+03  0.35377684329E+03  0.17770000000E+01 0. -1.
</event>
<event>
 6    1  0.6564965E-004  0.5037898E+03  0.7546771E-02  0.9391370E-01
        -11   -1    0    0    0    0  0.00000000000E+00  0.00000000000E+00  0.50000000000E+03  0.50000000000E+03  0.00000000000E+00 0.  1.
         11   -1    0    0    0    0 -0.00000000000E+00 -0.00000000000E+00 -0.50000000000E+03  0.50000000000E+03  0.00000000000E+00 0.  1.
        -11    1    1    2    0    0  0.86764960018E+01 -0.33633030037E+01  0.49612298366E+03  0.49621024607E+03  0.00000000000E+00 0.  1.
         11    1    1    2    0    0 -0.29784732636E+01 -0.71925953596E+01 -0.48500620639E+03  0.48506868067E+03  0.00000000000E+00 0.  1.
        -15    1    1    2    0    0 -0.18732581092E+01 -0.92837342429E+00 -0.28474659414E+01  0.39543348930E+01  0.17770000000E+01 0. -1.
         15    1    1    2    0    0 -0.38247646291E+01  0.11484271788E+02 -0.82693113348E+01  0.14766738364E+02  0.17770000000E+01 0.  1.
</event>
<event>
 6    1  0.6564965E-004  0.5146484E+03  0.7546771E-02  0.9367617E-01
        -11   -1    0    0    0    0  0.00000000000E+00  0.00000000000E+00  0.50000000000E+03  0.50000000000E+03  0.00000000000E+00 0.  1.
         11   -1    0    0    0    0 -0.00000000000E+00 -0.00000000000E+00 -0.50000000000E+03  0.50000000000E+03  0.00000000000E+00 0. -1.
        -11    1    1    2    0    0  0.62605636042E+01 -0.24027580749E+02  0.43323376648E+03  0.43394471505E+03  0.00000000000E+00 0.  1.
         11    1    1    2    0    0  0.61952217091E+01 -0.63693853057E+01 -0.48527029203E+03  0.48535163147E+03  0.00000000000E+00 0. -1.
        -15    1    1    2    0    0 -0.15564951625E+01  0.72366674097E+01 -0.10579982233E+02  0.13034024146E+02  0.17770000000E+01 0. -1.
         15    1    1    2    0    0 -0.10899290151E+02  0.23160298645E+02  0.62616507781E+02  0.67669629338E+02  0.17770000000E+01 0.  1.
</event>
<event>
 6    1  0.6564965E-004  0.5007754E+03  0.7546771E-02  0.9398076E-01
        -11   -1    0    0    0    0  0.00000000000E+00  0.00000000000E+00  0.50000000000E+03  0.50000000000E+03  0.00000000000E+00 0. -1.
         11   -1    0    0    0    0 -0.00000000000E+00 -0.00000000000E+00 -0.50000000000E+03  0.50000000000E+03  0.00000000000E+00 0.  1.
        -11    1    1    2    0    0 -0.33643335130E+02 -0.16035286402E+02  0.23894883363E+03  0.24183785788E+03  0.00000000000E+00 0. -1.
         11    1    1    2    0    0  0.35457105493E+02  0.12486487801E+02 -0.49780730156E+03  0.49922462699E+03  0.00000000000E+00 0.  1.
        -15    1    1    2    0    0 -0.17099446201E+01  0.11523393921E+01  0.66225880743E+02  0.66281798451E+02  0.17770000000E+01 0. -1.
         15    1    1    2    0    0 -0.10382574245E+00  0.23964592089E+01  0.19263258718E+03  0.19265571668E+03  0.17770000000E+01 0. -1.
</event>
<event>
 6    1  0.6564965E-004  0.5070875E+03  0.7546771E-02  0.9384089E-01
        -11   -1    0    0    0    0  0.00000000000E+00  0.00000000000E+00  0.50000000000E+03  0.50000000000E+03  0.00000000000E+00 0. -1.
         11   -1    0    0    0    0 -0.00000000000E+00 -0.00000000000E+00 -0.50000000000E+03  0.50000000000E+03  0.00000000000E+00 0.  1.
        -11    1    1    2    0    0 -0.11147458773E+03 -0.42141873188E+02  0.20002838652E+03  0.23283873518E+03  0.00000000000E+00 0. -1.
         11    1    1    2    0    0  0.12419531664E+03  0.91130150431E+02 -0.46822384941E+03  0.49291252180E+03  0.00000000000E+00 0.  1.
        -15    1    1    2    0    0  0.84560333432E+00  0.28655288580E+01  0.11632662487E+02  0.12140958207E+02  0.17770000000E+01 0.  1.
         15    1    1    2    0    0 -0.13566332242E+02 -0.51853806101E+02  0.25656280041E+03  0.26210778481E+03  0.17770000000E+01 0. -1.
</event>
<event>
 6    1  0.6564965E-004  0.5005510E+03  0.7546771E-02  0.9398578E-01
        -11   -1    0    0    0    0  0.00000000000E+00  0.00000000000E+00  0.50000000000E+03  0.50000000000E+03  0.00000000000E+00 0. -1.
         11   -1    0    0    0    0 -0.00000000000E+00 -0.00000000000E+00 -0.50000000000E+03  0.50000000000E+03  0.00000000000E+00 0.  1.
        -11    1    1    2    0    0  0.95299132715E+01 -0.76834391033E+01  0.14192350407E+03  0.14245046680E+03  0.00000000000E+00 0. -1.
         11    1    1    2    0    0  0.12931117202E+02  0.68474049659E+01 -0.49923462610E+03  0.49944900906E+03  0.00000000000E+00 0.  1.
        -15    1    1    2    0    0 -0.56166139626E+01  0.30045980450E+01  0.87459608659E+02  0.87709263123E+02  0.17770000000E+01 0.  1.
         15    1    1    2    0    0 -0.16844416511E+02 -0.21685639076E+01  0.26985151338E+03  0.27039126102E+03  0.17770000000E+01 0. -1.
</event>
<event>
 6    1  0.6564965E-004  0.5003391E+03  0.7546771E-02  0.9399051E-01
        -11   -1    0    0    0    0  0.00000000000E+00  0.00000000000E+00  0.50000000000E+03  0.50000000000E+03  0.00000000000E+00 0. -1.
         11   -1    0    0    0    0 -0.00000000000E+00 -0.00000000000E+00 -0.50000000000E+03  0.50000000000E+03  0.00000000000E+00 0. -1.
        -11    1    1    2    0    0 -0.17067266857E+02 -0.12001938136E+02  0.40536427308E+03  0.40590088938E+03  0.00000000000E+00 0. -1.
         11    1    1    2    0    0  0.16848399945E+02  0.93673338364E+01 -0.49928892306E+03  0.49966092924E+03  0.00000000000E+00 0. -1.
        -15    1    1    2    0    0 -0.55803745729E+00  0.22460594108E+01  0.84307641377E+01  0.89214181398E+01  0.17770000000E+01 0. -1.
         15    1    1    2    0    0  0.77690436926E+00  0.38854488837E+00  0.85493885845E+02  0.85516763231E+02  0.17770000000E+01 0.  1.
</event>
<event>
 6    1  0.6564965E-004  0.5005358E+03  0.7546771E-02  0.9398612E-01
        -11   -1    0    0    0    0  0.00000000000E+00  0.00000000000E+00  0.50000000000E+03  0.50000000000E+03  0.00000000000E+00 0. -1.
         11   -1    0    0    0    0 -0.00000000000E+00 -0.00000000000E+00 -0.50000000000E+03  0.50000000000E+03  0.00000000000E+00 0.  1.
        -11    1    1    2    0    0 -0.21683877851E+02 -0.47970557542E+01  0.49897020075E+03  0.49946417643E+03  0.00000000000E+00 0. -1.
         11    1    1    2    0    0  0.35395396412E+01  0.16906540931E+01 -0.10633402549E+03  0.10640635145E+03  0.00000000000E+00 0.  1.
        -15    1    1    2    0    0  0.22959984687E+02  0.46730423960E+01 -0.19357891859E+03  0.19499988121E+03  0.17770000000E+01 0.  1.
         15    1    1    2    0    0 -0.48156464766E+01 -0.15666407349E+01 -0.19905725666E+03  0.19912959090E+03  0.17770000000E+01 0.  1.
</event>
<event>
 6    1  0.6564965E-004  0.5129324E+03  0.7546771E-02  0.9371329E-01
        -11   -1    0    0    0    0  0.00000000000E+00  0.00000000000E+00  0.50000000000E+03  0.50000000000E+03  0.00000000000E+00 0.  1.
         11   -1    0    0    0    0 -0.00000000000E+00 -0.00000000000E+00 -0.50000000000E+03  0.50000000000E+03  0.00000000000E+00 0.  1.
        -11    1    1    2    0    0 -0.31983844341E+02  0.79547302813E+02  0.16201863227E+03  0.18330514691E+03  0.00000000000E+00 0.  1.
         11    1    1    2    0    0  0.10996338788E+02 -0.54141277911E+02 -0.48392420442E+03  0.48706758572E+03  0.00000000000E+00 0.  1.
        -15    1    1    2    0    0  0.28754836506E+01  0.14147608464E+02  0.19339766444E+03  0.19394390315E+03  0.17770000000E+01 0. -1.
         15    1    1    2    0    0  0.18112021903E+02 -0.39553633366E+02  0.12850790771E+03  0.13568336421E+03  0.17770000000E+01 0.  1.
</event>
<event>
 6    1  0.6564965E-004  0.5003336E+03  0.7546771E-02  0.9399064E-01
        -11   -1    0    0    0    0  0.00000000000E+00  0.00000000000E+00  0.50000000000E+03  0.50000000000E+03  0.00000000000E+00 0.  1.
         11   -1    0    0    0    0 -0.00000000000E+00 -0.00000000000E+00 -0.50000000000E+03  0.50000000000E+03  0.00000000000E+00 0. -1.
        -11    1    1    2    0    0  0.15653521594E+02  0.42920610044E+00  0.31445332503E+03  0.31484299353E+03  0.00000000000E+00 0.  1.
         11    1    1    2    0    0 -0.68592111889E+01  0.45429077698E+01 -0.49959867511E+03  0.49966641168E+03  0.00000000000E+00 0. -1.
        -15    1    1    2    0    0 -0.67188714507E+01 -0.48744902900E+01  0.12929940209E+03  0.12957776429E+03  0.17770000000E+01 0.  1.
         15    1    1    2    0    0 -0.20754389549E+01 -0.97623580284E-01  0.55845947993E+02  0.55912830491E+02  0.17770000000E+01 0.  1.
</event>
<event>
 6    1  0.6564965E-004  0.5088315E+03  0.7546771E-02  0.9380262E-01
        -11   -1    0    0    0    0  0.00000000000E+00  0.00000000000E+00  0.50000000000E+03  0.50000000000E+03  0.00000000000E+00 0. -1.
         11   -1    0    0    0    0 -0.00000000000E+00 -0.00000000000E+00 -0.50000000000E+03  0.50000000000E+03  0.00000000000E+00 0.  1.
        -11    1    1    2    0    0 -0.53224452257E+02 -0.35844824087E+02  0.48695868613E+03  0.49116845962E+03  0.00000000000E+00 0. -1.
         11    1    1    2    0    0  0.12212644137E+01  0.76991546219E+01 -0.30989807121E+03  0.30999610160E+03  0.00000000000E+00 0.  1.
        -15    1    1    2    0    0  0.23994396862E+02 -0.57384109496E+01 -0.11045534170E+02  0.27089149028E+02  0.17770000000E+01 0.  1.
         15    1    1    2    0    0  0.28008790982E+02  0.33884080415E+02 -0.16601508075E+03  0.17174628975E+03  0.17770000000E+01 0. -1.
</event>
<event>
 6    1  0.6564965E-004  0.5059058E+03  0.7546771E-02  0.9386691E-01
        -11   -1    0    0    0    0  0.00000000000E+00  0.00000000000E+00  0.50000000000E+03  0.50000000000E+03  0.00000000000E+00 0. -1.
         11   -1    0    0    0    0 -0.00000000000E+00 -0.00000000000E+00 -0.50000000000E+03  0.50000000000E+03  0.00000000000E+00 0. -1.
        -11    1    1    2    0    0  0.77608188864E+01  0.75118709265E+01  0.46975315686E+03  0.46987731047E+03  0.00000000000E+00 0. -1.
         11    1    1    2    0    0 -0.20723359509E+02 -0.46532195988E+01 -0.49363750474E+03  0.49409421790E+03  0.00000000000E+00 0. -1.
        -15    1    1    2    0    0  0.11763964402E+02  0.83344483332E+01  0.18220022177E+02  0.23301948944E+02  0.17770000000E+01 0.  1.
         15    1    1    2    0    0  0.11985762208E+01 -0.11193099661E+02  0.56643256976E+01  0.12726522682E+02  0.17770000000E+01 0. -1.
</event>
<event>
 6    1  0.6564965E-004  0.5009492E+03  0.7546771E-02  0.9397688E-01
        -11   -1    0    0    0    0  0.00000000000E+00  0.00000000000E+00  0.50000000000E+03  0.50000000000E+03  0.00000000000E+00 0.  1.
         11   -1    0    0    0    0 -0.00000000000E+00 -0.00000000000E+00 -0.50000000000E+03  0.50000000000E+03  0.00000000000E+00 0. -1.
        -11    1    1    2    0    0  0.70774388354E+01  0.10767951761E+02  0.44670816382E+03  0.44689397238E+03  0.00000000000E+00 0.  1.
         11    1    1    2    0    0 -0.35541606140E+01 -0.95280025474E+01 -0.49894714952E+03  0.49905077187E+03  0.00000000000E+00 0. -1.
        -15    1    1    2    0    0  0.34002813270E+01  0.33428321288E+01  0.14320218071E+02  0.15197460786E+02  0.17770000000E+01 0. -1.
         15    1    1    2    0    0 -0.69235595483E+01 -0.45827813428E+01  0.37918767629E+02  0.38857794960E+02  0.17770000000E+01 0.  1.
</event>
<event>
 6    1  0.6564965E-004  0.5004699E+03  0.7546771E-02  0.9398759E-01
        -11   -1    0    0    0    0  0.00000000000E+00  0.00000000000E+00  0.50000000000E+03  0.50000000000E+03  0.00000000000E+00 0. -1.
         11   -1    0    0    0    0 -0.00000000000E+00 -0.00000000000E+00 -0.50000000000E+03  0.50000000000E+03  0.00000000000E+00 0.  1.
        -11    1    1    2    0    0  0.16048493176E+01 -0.54675099756E+01  0.36797557784E+03  0.36801969389E+03  0.00000000000E+00 0. -1.
         11    1    1    2    0    0  0.52391195212E+01 -0.79478661884E+01 -0.49943943820E+03  0.49953014861E+03  0.00000000000E+00 0.  1.
        -15    1    1    2    0    0 -0.31300103565E+01  0.23050889446E+01  0.32733878663E+02  0.33011739445E+02  0.17770000000E+01 0. -1.
         15    1    1    2    0    0 -0.37139584823E+01  0.11110287219E+02  0.98729981693E+02  0.99438418048E+02  0.17770000000E+01 0.  1.
</event>
<event>
 6    1  0.6564965E-004  0.5000926E+03  0.7546771E-02  0.9399603E-01
        -11   -1    0    0    0    0  0.00000000000E+00  0.00000000000E+00  0.50000000000E+03  0.50000000000E+03  0.00000000000E+00 0.  1.
         11   -1    0    0    0    0 -0.00000000000E+00 -0.00000000000E+00 -0.50000000000E+03  0.50000000000E+03  0.00000000000E+00 0.  1.
        -11    1    1    2    0    0 -0.79098663977E+00 -0.13710361512E+02  0.39082276035E+03  0.39106397134E+03  0.00000000000E+00 0.  1.
         11    1    1    2    0    0  0.21696609126E+01  0.13445565996E+02 -0.49972188883E+03  0.49990744829E+03  0.00000000000E+00 0.  1.
        -15    1    1    2    0    0 -0.25024498966E+01 -0.41659579470E+00  0.65595364201E+02  0.65668450121E+02  0.17770000000E+01 0.  1.
         15    1    1    2    0    0  0.11237756238E+01  0.68139131072E+00  0.43303764281E+02  0.43360130255E+02  0.17770000000E+01 0.  1.
</event>
<event>
 6    1  0.6564965E-004  0.5001016E+03  0.7546771E-02  0.9399582E-01
        -11   -1    0    0    0    0  0.00000000000E+00  0.00000000000E+00  0.50000000000E+03  0.50000000000E+03  0.00000000000E+00 0.  1.
         11   -1    0    0    0    0 -0.00000000000E+00 -0.00000000000E+00 -0.50000000000E+03  0.50000000000E+03  0.00000000000E+00 0.  1.
        -11    1    1    2    0    0  0.24987336294E+01  0.45425126732E+00  0.62713234030E+02  0.62764637627E+02  0.00000000000E+00 0.  1.
         11    1    1    2    0    0  0.76794887227E+01  0.10468512557E+02 -0.49972979424E+03  0.49989842124E+03  0.00000000000E+00 0.  1.
        -15    1    1    2    0    0 -0.92801515968E+01 -0.10335184295E+02  0.32552877704E+03  0.32582983237E+03  0.17770000000E+01 0.  1.
         15    1    1    2    0    0 -0.89807075531E+00 -0.58757952963E+00  0.11148778317E+03  0.11150710877E+03  0.17770000000E+01 0. -1.
</event>
<event>
 6    1  0.6564965E-004  0.5053582E+03  0.7546771E-02  0.9387899E-01
        -11   -1    0    0    0    0  0.00000000000E+00  0.00000000000E+00  0.50000000000E+03  0.50000000000E+03  0.00000000000E+00 0.  1.
         11   -1    0    0    0    0 -0.00000000000E+00 -0.00000000000E+00 -0.50000000000E+03  0.50000000000E+03  0.00000000000E+00 0. -1.
        -11    1    1    2    0    0 -0.16451326464E+02  0.74960890566E+01  0.41482869268E+03  0.41522244853E+03  0.00000000000E+00 0.  1.
         11    1    1    2    0    0 -0.20312766796E+02 -0.52970526977E+01 -0.49419615096E+03  0.49464179249E+03  0.00000000000E+00 0. -1.
        -15    1    1    2    0    0  0.18691122942E+01  0.40488838530E+01  0.23211741477E+02  0.23702947341E+02  0.17770000000E+01 0.  1.
         15    1    1    2    0    0  0.34894980966E+02 -0.62479202119E+01  0.56155716801E+02  0.66432811638E+02  0.17770000000E+01 0. -1.
</event>
<event>
 6    1  0.6564965E-004  0.5006820E+03  0.7546771E-02  0.9398285E-01
        -11   -1    0    0    0    0  0.00000000000E+00  0.00000000000E+00  0.50000000000E+03  0.50000000000E+03  0.00000000000E+00 0.  1.
         11   -1    0    0    0    0 -0.00000000000E+00 -0.00000000000E+00 -0.50000000000E+03  0.50000000000E+03  0.00000000000E+00 0. -1.
        -11    1    1    2    0    0 -0.46795409021E+00  0.20620414092E+02  0.35953412795E+03  0.36012526934E+03  0.00000000000E+00 0.  1.
         11    1    1    2    0    0  0.25863560625E+00 -0.89269453914E+01 -0.49923811210E+03  0.49931798468E+03  0.00000000000E+00 0. -1.
        -15    1    1    2    0    0 -0.41668949163E+01 -0.26502894967E+01  0.45232422493E+02  0.45535884984E+02  0.17770000000E+01 0. -1.
         15    1    1    2    0    0  0.43762134003E+01 -0.90431792039E+01  0.94471561657E+02  0.95020860998E+02  0.17770000000E+01 0.  1.
</event>
<event>
 6    1  0.6564965E-004  0.5022487E+03  0.7546771E-02  0.9394792E-01
        -11   -1    0    0    0    0  0.00000000000E+00  0.00000000000E+00  0.50000000000E+03  0.50000000000E+03  0.00000000000E+00 0.  1.
         11   -1    0    0    0    0 -0.00000000000E+00 -0.00000000000E+00 -0.50000000000E+03  0.50000000000E+03  0.00000000000E+00 0.  1.
        -11    1    1    2    0    0  0.96225203765E+01 -0.42043480750E+01  0.48629010368E+03  0.48640346872E+03  0.00000000000E+00 0.  1.
         11    1    1    2    0    0 -0.30559339689E+01  0.68131894676E+01 -0.49769527316E+03  0.49775128650E+03  0.00000000000E+00 0.  1.
        -15    1    1    2    0    0 -0.37708544173E+01 -0.39384889838E+01  0.10795172487E+02  0.12223932123E+02  0.17770000000E+01 0. -1.
         15    1    1    2    0    0 -0.27957319903E+01  0.13296475911E+01  0.60999699303E+00  0.36213126639E+01  0.17770000000E+01 0.  1.
</event>
<event>
 6    1  0.6564965E-004  0.5044398E+03  0.7546771E-02  0.9389930E-01
        -11   -1    0    0    0    0  0.00000000000E+00  0.00000000000E+00  0.50000000000E+03  0.50000000000E+03  0.00000000000E+00 0.  1.
         11   -1    0    0    0    0 -0.00000000000E+00 -0.00000000000E+00 -0.50000000000E+03  0.50000000000E+03  0.00000000000E+00 0.  1.
        -11    1    1    2    0    0 -0.11931754573E+02  0.19310946495E+01  0.49541276695E+03  0.49556019367E+03  0.00000000000E+00 0.  1.
         11    1    1    2    0    0 -0.22679372888E+01  0.74090905583E+01 -0.47997213259E+03  0.48003467190E+03  0.00000000000E+00 0.  1.
        -15    1    1    2    0    0  0.71479698268E+01 -0.84742302639E+01 -0.11567365973E+02  0.16120413635E+02  0.17770000000E+01 0.  1.
         15    1    1    2    0    0  0.70517220354E+01 -0.86595494383E+00 -0.38732683846E+01  0.82847207924E+01  0.17770000000E+01 0. -1.
</event>
<event>
 6    1  0.6564965E-004  0.5002435E+03  0.7546771E-02  0.9399265E-01
        -11   -1    0    0    0    0  0.00000000000E+00  0.00000000000E+00  0.50000000000E+03  0.50000000000E+03  0.00000000000E+00 0. -1.
         11   -1    0    0    0    0 -0.00000000000E+00 -0.00000000000E+00 -0.50000000000E+03  0.50000000000E+03  0.00000000000E+00 0.  1.
        -11    1    1    2    0    0  0.38509923920E+01  0.69849469999E+01  0.49969288097E+03  0.49975653564E+03  0.00000000000E+00 0. -1.
         11    1    1    2    0    0  0.57137741665E+01 -0.35277999063E+01 -0.35079199263E+03  0.35085625929E+03  0.00000000000E+00 0.  1.
        -15    1    1    2    0    0 -0.41565389459E+01 -0.17765095737E+01 -0.35453865427E+02  0.35785012296E+02  0.17770000000E+01 0. -1.
         15    1    1    2    0    0 -0.54082276126E+01 -0.16806375199E+01 -0.11344702291E+03  0.11360219278E+03  0.17770000000E+01 0.  1.
</event>
<event>
 6    1  0.6564965E-004  0.5004431E+03  0.7546771E-02  0.9398819E-01
        -11   -1    0    0    0    0  0.00000000000E+00  0.00000000000E+00  0.50000000000E+03  0.50000000000E+03  0.00000000000E+00 0.  1.
         11   -1    0    0    0    0 -0.00000000000E+00 -0.00000000000E+00 -0.50000000000E+03  0.50000000000E+03  0.00000000000E+00 0. -1.
        -11    1    1    2    0    0  0.15944926419E+02 -0.40942490020E+01  0.33114862062E+03  0.33155755533E+03  0.00000000000E+00 0.  1.
         11    1    1    2    0    0 -0.72861344235E+01 -0.40320616386E+01 -0.49948748750E+03  0.49955689911E+03  0.00000000000E+00 0. -1.
        -15    1    1    2    0    0 -0.29022074027E+00  0.81584299334E+00  0.14270529982E+02  0.14406789470E+02  0.17770000000E+01 0. -1.
         15    1    1    2    0    0 -0.83685712556E+01  0.73104676472E+01  0.15406833690E+03  0.15447875610E+03  0.17770000000E+01 0.  1.
</event>
<event>
 6    1  0.6564965E-004  0.5037938E+03  0.7546771E-02  0.9391361E-01
        -11   -1    0    0    0    0  0.00000000000E+00  0.00000000000E+00  0.50000000000E+03  0.50000000000E+03  0.00000000000E+00 0.  1.
         11   -1    0    0    0    0 -0.00000000000E+00 -0.00000000000E+00 -0.50000000000E+03  0.50000000000E+03  0.00000000000E+00 0. -1.
        -11    1    1    2    0    0  0.20746030031E+02  0.34988060750E+02  0.88409274974E+02  0.97317840392E+02  0.00000000000E+00 0.  1.
         11    1    1    2    0    0 -0.26785123994E+02 -0.28307166122E+02 -0.49467350990E+03  0.49620622721E+03  0.00000000000E+00 0. -1.
        -15    1    1    2    0    0  0.82063319508E+01 -0.51481097970E+01  0.32412551058E+03  0.32427511662E+03  0.17770000000E+01 0.  1.
         15    1    1    2    0    0 -0.21672379881E+01 -0.15327848311E+01  0.82138724341E+02  0.82200815782E+02  0.17770000000E+01 0. -1.
</event>
<event>
 6    1  0.6564965E-004  0.4865698E+03  0.7546771E-02  0.9430373E-01
        -11   -1    0    0    0    0  0.00000000000E+00  0.00000000000E+00  0.50000000000E+03  0.50000000000E+03  0.00000000000E+00 0.  1.
         11   -1    0    0    0    0 -0.00000000000E+00 -0.00000000000E+00 -0.50000000000E+03  0.50000000000E+03  0.00000000000E+00 0.  1.
        -11    1    1    2    0    0  0.12168611784E+02 -0.16402029918E+02  0.49241178634E+03  0.49283513371E+03  0.00000000000E+00 0.  1.
         11    1    1    2    0    0  0.59790599693E+01  0.63952183898E+01 -0.48051808090E+03  0.48059782985E+03  0.00000000000E+00 0.  1.
        -15    1    1    2    0    0 -0.30332844348E+01  0.66978359291E+01 -0.11609761408E+01  0.76529350707E+01  0.17770000000E+01 0.  1.
         15    1    1    2    0    0 -0.15114387318E+02  0.33089755990E+01 -0.10732729294E+02  0.18914101369E+02  0.17770000000E+01 0. -1.
</event>
<event>
 6    1  0.6564965E-004  0.5055956E+03  0.7546771E-02  0.9387375E-01
        -11   -1    0    0    0    0  0.00000000000E+00  0.00000000000E+00  0.50000000000E+03  0.50000000000E+03  0.00000000000E+00 0. -1.
         11   -1    0    0    0    0 -0.00000000000E+00 -0.00000000000E+00 -0.50000000000E+03  0.50000000000E+03  0.00000000000E+00 0.  1.
        -11    1    1    2    0    0  0.26222469291E+02 -0.23361982366E+02  0.52097515555E+02  0.62829541163E+02  0.00000000000E+00 0. -1.
         11    1    1    2    0    0 -0.27862351996E+02 -0.90636281831E+01 -0.49353547868E+03  0.49440441819E+03  0.00000000000E+00 0.  1.
        -15    1    1    2    0    0  0.21927315446E+01  0.19616558086E+01  0.29648368622E+02  0.29846937131E+02  0.17770000000E+01 0. -1.
         15    1    1    2    0    0 -0.55284883950E+00  0.30463954741E+02  0.41178959450E+03  0.41291910351E+03  0.17770000000E+01 0. -1.
</event>
<event>
 6    1  0.6564965E-004  0.5000602E+03  0.7546771E-02  0.9399675E-01
        -11   -1    0    0    0    0  0.00000000000E+00  0.00000000000E+00  0.50000000000E+03  0.50000000000E+03  0.00000000000E+00 0. -1.
         11   -1    0    0    0    0 -0.00000000000E+00 -0.00000000000E+00 -0.50000000000E+03  0.50000000000E+03  0.00000000000E+00 0. -1.
        -11    1    1    2    0    0  0.12885825232E+01 -0.11977293485E+01  0.39194190669E+02  0.39233653701E+02  0.00000000000E+00 0. -1.
         11    1    1    2    0    0  0.73907839638E+01 -0.24800785244E+01 -0.49987898830E+03  0.49993977380E+03  0.00000000000E+00 0. -1.
        -15    1    1    2    0    0 -0.74309840453E+01  0.45575681982E+01  0.32589243889E+03  0.32601385003E+03  0.17770000000E+01 0. -1.
         15    1    1    2    0    0 -0.12483824417E+01 -0.87976032527E+00  0.13479235874E+03  0.13481272248E+03  0.17770000000E+01 0. -1.
</event>
<event>
 6    1  0.6564965E-004  0.3778269E+03  0.7546771E-02  0.9724284E-01
        -11   -1    0    0    0    0  0.00000000000E+00  0.00000000000E+00  0.50000000000E+03  0.50000000000E+03  0.00000000000E+00 0. -1.
         11   -1    0    0    0    0 -0.00000000000E+00 -0.00000000000E+00 -0.50000000000E+03  0.50000000000E+03  0.00000000000E+00 0.  1.
        -11    1    1    2    0    0 -0.14111665416E+03 -0.13392409005E+02  0.42922397730E+03  0.45202487696E+03  0.00000000000E+00 0. -1.
         11    1    1    2    0    0 -0.42684695406E+02 -0.21799598465E+02 -0.32936633921E+03  0.33283538141E+03  0.00000000000E+00 0.  1.
        -15    1    1    2    0    0  0.16055484618E+03  0.38928108419E+02 -0.77006672529E+02  0.18228121571E+03  0.17770000000E+01 0. -1.
         15    1    1    2    0    0  0.23246503380E+02 -0.37361009490E+01 -0.22850965564E+02  0.32858525924E+02  0.17770000000E+01 0.  1.
</event>
<event>
 6    1  0.6564965E-004  0.4863255E+03  0.7546771E-02  0.9430938E-01
        -11   -1    0    0    0    0  0.00000000000E+00  0.00000000000E+00  0.50000000000E+03  0.50000000000E+03  0.00000000000E+00 0. -1.
         11   -1    0    0    0    0 -0.00000000000E+00 -0.00000000000E+00 -0.50000000000E+03  0.50000000000E+03  0.00000000000E+00 0.  1.
        -11    1    1    2    0    0  0.14822799777E+01  0.13933480752E+02  0.49165436372E+03  0.49185399501E+03  0.00000000000E+00 0. -1.
         11    1    1    2    0    0  0.71472520850E+01  0.62968242039E+01 -0.48100961675E+03  0.48110392289E+03  0.00000000000E+00 0.  1.
        -15    1    1    2    0    0 -0.78481064744E+01 -0.16268438150E+02 -0.32605530751E+01  0.18440276311E+02  0.17770000000E+01 0.  1.
         15    1    1    2    0    0 -0.78142558834E+00 -0.39618668057E+01 -0.73841938914E+01  0.86018057965E+01  0.17770000000E+01 0. -1.
</event>
<event>
 6    1  0.6564965E-004  0.5009721E+03  0.7546771E-02  0.9397637E-01
        -11   -1    0    0    0    0  0.00000000000E+00  0.00000000000E+00  0.50000000000E+03  0.50000000000E+03  0.00000000000E+00 0. -1.
         11   -1    0    0    0    0 -0.00000000000E+00 -0.00000000000E+00 -0.50000000000E+03  0.50000000000E+03  0.00000000000E+00 0.  1.
        -11    1    1    2    0    0 -0.22216704484E+01 -0.84727224540E+01  0.49895105242E+03  0.49902793064E+03  0.00000000000E+00 0. -1.
         11    1    1    2    0    0  0.29504365721E+01  0.81525338471E+01 -0.43690737772E+03  0.43699339308E+03  0.00000000000E+00 0.  1.
        -15    1    1    2    0    0 -0.43055583771E+01 -0.10026123173E+01 -0.54918755689E+01  0.72705908055E+01  0.17770000000E+01 0.  1.
         15    1    1    2    0    0  0.35767922534E+01  0.13228009242E+01 -0.56551799129E+02  0.56708085480E+02  0.17770000000E+01 0. -1.
</event>
<event>
 6    1  0.6564965E-004  0.5024714E+03  0.7546771E-02  0.9394297E-01
        -11   -1    0    0    0    0  0.00000000000E+00  0.00000000000E+00  0.50000000000E+03  0.50000000000E+03  0.00000000000E+00 0.  1.
         11   -1    0    0    0    0 -0.00000000000E+00 -0.00000000000E+00 -0.50000000000E+03  0.50000000000E+03  0.00000000000E+00 0. -1.
        -11    1    1    2    0    0 -0.78047664431E+01 -0.19274976589E+01  0.49746363947E+03  0.49752859438E+03  0.00000000000E+00 0.  1.
         11    1    1    2    0    0 -0.12208141404E+01 -0.63409112274E+01 -0.47776339666E+03  0.47780703295E+03  0.00000000000E+00 0. -1.
        -15    1    1    2    0    0  0.26989251493E+01  0.60350587306E+01 -0.52273552608E+01  0.86133096349E+01  0.17770000000E+01 0. -1.
         15    1    1    2    0    0  0.63266554342E+01  0.22333501558E+01 -0.14472887545E+02  0.16051063042E+02  0.17770000000E+01 0.  1.
</event>
<event>
 6    1  0.1456524E-003  0.5000480E+03  0.7546771E-02  0.9399702E-01
        -11   -1    0    0    0    0  0.00000000000E+00  0.00000000000E+00  0.50000000000E+03  0.50000000000E+03  0.00000000000E+00 0.  1.
         11   -1    0    0    0    0 -0.00000000000E+00 -0.00000000000E+00 -0.50000000000E+03  0.50000000000E+03  0.00000000000E+00 0.  1.
        -11    1    1    2    0    0  0.48786978346E-01  0.78098649356E+01  0.49989094916E+03  0.49995195511E+03  0.00000000000E+00 0.  1.
         11    1    1    2    0    0 -0.31289727121E+01 -0.43957293060E+01 -0.22761937516E+03  0.22768331704E+03  0.00000000000E+00 0.  1.
        -15    1    1    2    0    0  0.25079047869E+01 -0.85845070091E+00 -0.75125453936E+02  0.75193205026E+02  0.17770000000E+01 0.  1.
         15    1    1    2    0    0  0.57228094685E+00 -0.25556849287E+01 -0.19714612006E+03  0.19717152283E+03  0.17770000000E+01 0. -1.
</event>
<event>
 6    1  0.6564965E-004  0.5051774E+03  0.7546771E-02  0.9388299E-01
        -11   -1    0    0    0    0  0.00000000000E+00  0.00000000000E+00  0.50000000000E+03  0.50000000000E+03  0.00000000000E+00 0.  1.
         11   -1    0    0    0    0 -0.00000000000E+00 -0.00000000000E+00 -0.50000000000E+03  0.50000000000E+03  0.00000000000E+00 0. -1.
        -11    1    1    2    0    0 -0.34983670498E+01  0.58970607791E+01  0.49477509733E+03  0.49482260542E+03  0.00000000000E+00 0.  1.
         11    1    1    2    0    0  0.24536031771E+00  0.10237445368E+02 -0.48355077293E+03  0.48365919354E+03  0.00000000000E+00 0. -1.
        -15    1    1    2    0    0  0.14825547358E+01 -0.12174245764E+02 -0.11384249422E+02  0.16827628840E+02  0.17770000000E+01 0. -1.
         15    1    1    2    0    0  0.17704519962E+01 -0.39602603831E+01  0.15992502291E+00  0.46905722024E+01  0.17770000000E+01 0.  1.
</event>
<event>
 6    1  0.6564965E-004  0.5049137E+03  0.7546771E-02  0.9388881E-01
        -11   -1    0    0    0    0  0.00000000000E+00  0.00000000000E+00  0.50000000000E+03  0.50000000000E+03  0.00000000000E+00 0. -1.
         11   -1    0    0    0    0 -0.00000000000E+00 -0.00000000000E+00 -0.50000000000E+03  0.50000000000E+03  0.00000000000E+00 0. -1.
        -11    1    1    2    0    0  0.88828469833E+01  0.54467657695E+01  0.48082779147E+03  0.48094067958E+03  0.00000000000E+00 0. -1.
         11    1    1    2    0    0  0.53479138473E+00  0.10608549733E+02 -0.49497229458E+03  0.49508625484E+03  0.00000000000E+00 0. -1.
        -15    1    1    2    0    0 -0.24623096429E+01 -0.64715562429E+01  0.35351253825E+01  0.79748886797E+01  0.17770000000E+01 0. -1.
         15    1    1    2    0    0 -0.69553287250E+01 -0.95837592594E+01  0.10609377729E+02  0.15998176896E+02  0.17770000000E+01 0.  1.
</event>
<event>
 6    1  0.6564965E-004  0.5007408E+03  0.7546771E-02  0.9398154E-01
        -11   -1    0    0    0    0  0.00000000000E+00  0.00000000000E+00  0.50000000000E+03  0.50000000000E+03  0.00000000000E+00 0. -1.
         11   -1    0    0    0    0 -0.00000000000E+00 -0.00000000000E+00 -0.50000000000E+03  0.50000000000E+03  0.00000000000E+00 0. -1.
        -11    1    1    2    0    0 -0.86578614048E+01 -0.11169094671E+02  0.17622047736E+03  0.17678620953E+03  0.00000000000E+00 0. -1.
         11    1    1    2    0    0  0.65112318849E+01 -0.24716252896E+01 -0.49921066299E+03  0.49925924239E+03  0.00000000000E+00 0. -1.
        -15    1    1    2    0    0 -0.45781205486E+01  0.22174920884E+00  0.20281801473E+02  0.20869057488E+02  0.17770000000E+01 0.  1.
         15    1    1    2    0    0  0.67247500685E+01  0.13418970752E+02  0.30270838415E+03  0.30308549059E+03  0.17770000000E+01 0. -1.
</event>
<event>
 6    1  0.6564965E-004  0.5015129E+03  0.7546771E-02  0.9396431E-01
        -11   -1    0    0    0    0  0.00000000000E+00  0.00000000000E+00  0.50000000000E+03  0.50000000000E+03  0.00000000000E+00 0.  1.
         11   -1    0    0    0    0 -0.00000000000E+00 -0.00000000000E+00 -0.50000000000E+03  0.50000000000E+03  0.00000000000E+00 0. -1.
        -11    1    1    2    0    0  0.14961678637E+02 -0.31355850302E+01  0.39848949752E+02  0.42680469977E+02  0.00000000000E+00 0.  1.
         11    1    1    2    0    0 -0.12824792148E+02 -0.13680444348E+02 -0.49813423096E+03  0.49848705289E+03  0.00000000000E+00 0. -1.
        -15    1    1    2    0    0  0.26772835011E+01  0.90656830468E+00  0.18862690211E+03  0.18865644871E+03  0.17770000000E+01 0. -1.
         15    1    1    2    0    0 -0.48141699909E+01  0.15909461074E+02  0.26965837910E+03  0.27017602842E+03  0.17770000000E+01 0.  1.
</event>
<event>
 6    1  0.6564965E-004  0.5007949E+03  0.7546771E-02  0.9398033E-01
        -11   -1    0    0    0    0  0.00000000000E+00  0.00000000000E+00  0.50000000000E+03  0.50000000000E+03  0.00000000000E+00 0.  1.
         11   -1    0    0    0    0 -0.00000000000E+00 -0.00000000000E+00 -0.50000000000E+03  0.50000000000E+03  0.00000000000E+00 0.  1.
        -11    1    1    2    0    0  0.15444415244E+02  0.16980623959E+02  0.29606178857E+03  0.29695025543E+03  0.00000000000E+00 0.  1.
         11    1    1    2    0    0 -0.39004153943E+01 -0.13047433041E+02 -0.49901936773E+03  0.49920514632E+03  0.00000000000E+00 0.  1.
        -15    1    1    2    0    0  0.78872813568E+00 -0.13862306816E+01  0.10945952417E+03  0.10948556474E+03  0.17770000000E+01 0. -1.
         15    1    1    2    0    0 -0.12332727985E+02 -0.25469602357E+01  0.93498054995E+02  0.94359033499E+02  0.17770000000E+01 0.  1.
</event>
<event>
 6    1  0.6564965E-004  0.4917698E+03  0.7546771E-02  0.9418416E-01
        -11   -1    0    0    0    0  0.00000000000E+00  0.00000000000E+00  0.50000000000E+03  0.50000000000E+03  0.00000000000E+00 0.  1.
         11   -1    0    0    0    0 -0.00000000000E+00 -0.00000000000E+00 -0.50000000000E+03  0.50000000000E+03  0.00000000000E+00 0. -1.
        -11    1    1    2    0    0  0.90699249845E+01 -0.92888661422E+01  0.49113282768E+03  0.49130438732E+03  0.00000000000E+00 0.  1.
         11    1    1    2    0    0  0.34584625828E+01  0.72702351429E+01 -0.49225180578E+03  0.49231763890E+03  0.00000000000E+00 0. -1.
        -15    1    1    2    0    0 -0.13442376497E+02  0.20158445748E+01  0.25192539776E+01  0.13937915369E+02  0.17770000000E+01 0. -1.
         15    1    1    2    0    0  0.91398892967E+00  0.27864245358E-02 -0.14002758778E+01  0.24400584136E+01  0.17770000000E+01 0. -1.
</event>
<event>
 6    1  0.6564965E-004  0.4832358E+03  0.7546771E-02  0.9438122E-01
        -11   -1    0    0    0    0  0.00000000000E+00  0.00000000000E+00  0.50000000000E+03  0.50000000000E+03  0.00000000000E+00 0.  1.
         11   -1    0    0    0    0 -0.00000000000E+00 -0.00000000000E+00 -0.50000000000E+03  0.50000000000E+03  0.00000000000E+00 0. -1.
        -11    1    1    2    0    0  0.94707098784E+01  0.19192482740E+02  0.48281747122E+03  0.48329158513E+03  0.00000000000E+00 0.  1.
         11    1    1    2    0    0  0.90319364284E+01  0.28971322232E-01 -0.48346410197E+03  0.48354846149E+03  0.00000000000E+00 0. -1.
        -15    1    1    2    0    0 -0.46579846140E+01 -0.54502900353E+01 -0.87213057974E+01  0.11428971342E+02  0.17770000000E+01 0. -1.
         15    1    1    2    0    0 -0.13844661693E+02 -0.13771164027E+02  0.93679365476E+01  0.21730982035E+02  0.17770000000E+01 0.  1.
</event>
<event>
 6    1  0.6564965E-004  0.5015519E+03  0.7546771E-02  0.9396344E-01
        -11   -1    0    0    0    0  0.00000000000E+00  0.00000000000E+00  0.50000000000E+03  0.50000000000E+03  0.00000000000E+00 0. -1.
         11   -1    0    0    0    0 -0.00000000000E+00 -0.00000000000E+00 -0.50000000000E+03  0.50000000000E+03  0.00000000000E+00 0. -1.
        -11    1    1    2    0    0  0.12691063748E+01  0.11131235292E+02  0.45419176907E+03  0.45432992210E+03  0.00000000000E+00 0. -1.
         11    1    1    2    0    0  0.72454069269E+01 -0.19337422511E+01 -0.49839171879E+03  0.49844813235E+03  0.00000000000E+00 0. -1.
        -15    1    1    2    0    0 -0.57992888191E+00 -0.70961066720E+01  0.13178914671E+02  0.15084182720E+02  0.17770000000E+01 0. -1.
         15    1    1    2    0    0 -0.79345844198E+01 -0.21013863686E+01  0.31021035057E+02  0.32137762829E+02  0.17770000000E+01 0.  1.
</event>
<event>
 6    1  0.6564965E-004  0.5003892E+03  0.7546771E-02  0.9398939E-01
        -11   -1    0    0    0    0  0.00000000000E+00  0.00000000000E+00  0.50000000000E+03  0.50000000000E+03  0.00000000000E+00 0.  1.
         11   -1    0    0    0    0 -0.00000000000E+00 -0.00000000000E+00 -0.50000000000E+03  0.50000000000E+03  0.00000000000E+00 0. -1.
        -11    1    1    2    0    0 -0.10321366734E+02 -0.89748042535E+01  0.49942357504E+03  0.49961083358E+03  0.00000000000E+00 0.  1.
         11    1    1    2    0    0  0.77611587339E+01 -0.25461330826E+01 -0.38323996399E+03  0.38332699929E+03  0.00000000000E+00 0. -1.
        -15    1    1    2    0    0  0.25081010601E+01  0.10398224414E+01 -0.16713437717E+02  0.17025525865E+02  0.17770000000E+01 0.  1.
         15    1    1    2    0    0  0.52106939539E-01  0.10481114895E+02 -0.99470173332E+02  0.10003664127E+03  0.17770000000E+01 0. -1.
</event>
<event>
 6    1  0.6564965E-004  0.5035627E+03  0.7546771E-02  0.9391873E-01
        -11   -1    0    0    0    0  0.00000000000E+00  0.00000000000E+00  0.50000000000E+03  0.50000000000E+03  0.00000000000E+00 0.  1.
         11   -1    0    0    0    0 -0.00000000000E+00 -0.00000000000E+00 -0.50000000000E+03  0.50000000000E+03  0.00000000000E+00 0. -1.
        -11    1    1    2    0    0  0.22366309061E+02 -0.27835605340E+01  0.29808758168E+03  0.29893846581E+03  0.00000000000E+00 0.  1.
         11    1    1    2    0    0  0.59768504030E+01  0.35671541816E+01 -0.49638855205E+03  0.49643734946E+03  0.00000000000E+00 0. -1.
        -15    1    1    2    0    0 -0.26290407173E+02 -0.17113583307E+02  0.15730245092E+03  0.16040972239E+03  0.17770000000E+01 0. -1.
         15    1    1    2    0    0 -0.20527522911E+01  0.16329989659E+02  0.40998519451E+02  0.44214462345E+02  0.17770000000E+01 0.  1.
</event>
<event>
 6    1  0.6564965E-004  0.5015162E+03  0.7546771E-02  0.9396423E-01
        -11   -1    0    0    0    0  0.00000000000E+00  0.00000000000E+00  0.50000000000E+03  0.50000000000E+03  0.00000000000E+00 0.  1.
         11   -1    0    0    0    0 -0.00000000000E+00 -0.00000000000E+00 -0.50000000000E+03  0.50000000000E+03  0.00000000000E+00 0.  1.
        -11    1    1    2    0    0  0.10113700311E+02 -0.33549374111E+01  0.49836989861E+03  0.49848379952E+03  0.00000000000E+00 0.  1.
         11    1    1    2    0    0  0.30081100557E+01 -0.74798554926E+01 -0.44630792538E+03  0.44638073572E+03  0.00000000000E+00 0.  1.
        -15    1    1    2    0    0 -0.52185817708E+01  0.14077085441E+01 -0.14857663998E+02  0.15909844359E+02  0.17770000000E+01 0. -1.
         15    1    1    2    0    0 -0.79032285960E+01  0.94270843596E+01 -0.37204309234E+02  0.39225620407E+02  0.17770000000E+01 0.  1.
</event>
<event>
 6    1  0.6564965E-004  0.5100952E+03  0.7546771E-02  0.9377500E-01
        -11   -1    0    0    0    0  0.00000000000E+00  0.00000000000E+00  0.50000000000E+03  0.50000000000E+03  0.00000000000E+00 0.  1.
         11   -1    0    0    0    0 -0.00000000000E+00 -0.00000000000E+00 -0.50000000000E+03  0.50000000000E+03  0.00000000000E+00 0. -1.
        -11    1    1    2    0    0  0.17692186445E+02 -0.19828183444E+01  0.48958126642E+03  0.48990484939E+03  0.00000000000E+00 0.  1.
         11    1    1    2    0    0 -0.21838595915E+02 -0.48045137247E+01 -0.47585509976E+03  0.47638018807E+03  0.00000000000E+00 0. -1.
        -15    1    1    2    0    0  0.13440452912E+02 -0.17742987914E+01 -0.15681380488E+02  0.20805223712E+02  0.17770000000E+01 0.  1.
         15    1    1    2    0    0 -0.92940434413E+01  0.85616308604E+01  0.19552138294E+01  0.12909738828E+02  0.17770000000E+01 0. -1.
</event>
<event>
 6    1  0.6564965E-004  0.5002018E+03  0.7546771E-02  0.9399358E-01
        -11   -1    0    0    0    0  0.00000000000E+00  0.00000000000E+00  0.50000000000E+03  0.50000000000E+03  0.00000000000E+00 0. -1.
         11   -1    0    0    0    0 -0.00000000000E+00 -0.00000000000E+00 -0.50000000000E+03  0.50000000000E+03  0.00000000000E+00 0.  1.
        -11    1    1    2    0    0 -0.85075809005E+00  0.16078628864E+00 -0.64253303309E+00  0.10781884144E+01  0.00000000000E+00 0. -1.
         11    1    1    2    0    0 -0.73516247791E+01 -0.36314206191E+01 -0.49905623324E+03  0.49912358944E+03  0.00000000000E+00 0.  1.
        -15    1    1    2    0    0  0.27629825093E+01  0.15398217737E+01  0.25057739900E+03  0.25060366267E+03  0.17770000000E+01 0. -1.
         15    1    1    2    0    0  0.54394003598E+01  0.19308125567E+01  0.24912136727E+03  0.24919455948E+03  0.17770000000E+01 0. -1.
</event>
<event>
 6    1  0.6564965E-004  0.5001337E+03  0.7546771E-02  0.9399511E-01
        -11   -1    0    0    0    0  0.00000000000E+00  0.00000000000E+00  0.50000000000E+03  0.50000000000E+03  0.00000000000E+00 0. -1.
         11   -1    0    0    0    0 -0.00000000000E+00 -0.00000000000E+00 -0.50000000000E+03  0.50000000000E+03  0.00000000000E+00 0.  1.
        -11    1    1    2    0    0 -0.64027761474E+01  0.93633207586E+01  0.21706881193E+03  0.21736498437E+03  0.00000000000E+00 0. -1.
         11    1    1    2    0    0  0.52105203733E+01 -0.10774341667E+02 -0.49972298258E+03  0.49986627740E+03  0.00000000000E+00 0.  1.
        -15    1    1    2    0    0 -0.73616156065E+00 -0.13121613838E+01  0.31431570949E+02  0.31517694755E+02  0.17770000000E+01 0. -1.
         15    1    1    2    0    0  0.19284173348E+01  0.27231822925E+01  0.25122259971E+03  0.25125104348E+03  0.17770000000E+01 0. -1.
</event>
<event>
 6    1  0.6564965E-004  0.5003313E+03  0.7546771E-02  0.9399069E-01
        -11   -1    0    0    0    0  0.00000000000E+00  0.00000000000E+00  0.50000000000E+03  0.50000000000E+03  0.00000000000E+00 0.  1.
         11   -1    0    0    0    0 -0.00000000000E+00 -0.00000000000E+00 -0.50000000000E+03  0.50000000000E+03  0.00000000000E+00 0. -1.
        -11    1    1    2    0    0 -0.81496538123E+01  0.39475437449E-01  0.14447776140E+03  0.14470743573E+03  0.00000000000E+00 0.  1.
         11    1    1    2    0    0 -0.29210031590E+01  0.65458565743E+01 -0.49961730879E+03  0.49966872599E+03  0.00000000000E+00 0. -1.
        -15    1    1    2    0    0 -0.12752009118E+01 -0.41546887562E+01  0.50049487131E+02  0.50269239770E+02  0.17770000000E+01 0. -1.
         15    1    1    2    0    0  0.12345857883E+02 -0.24306432556E+01  0.30509006025E+03  0.30535459851E+03  0.17770000000E+01 0.  1.
</event>
<event>
 6    1  0.6564965E-004  0.4713573E+03  0.7546771E-02  0.9466284E-01
        -11   -1    0    0    0    0  0.00000000000E+00  0.00000000000E+00  0.50000000000E+03  0.50000000000E+03  0.00000000000E+00 0.  1.
         11   -1    0    0    0    0 -0.00000000000E+00 -0.00000000000E+00 -0.50000000000E+03  0.50000000000E+03  0.00000000000E+00 0. -1.
        -11    1    1    2    0    0 -0.18816789103E+01 -0.20205344459E+02  0.47715003597E+03  0.47758135798E+03  0.00000000000E+00 0.  1.
         11    1    1    2    0    0 -0.69162819406E+01  0.18737854892E+01 -0.46537089875E+03  0.46542606226E+03  0.00000000000E+00 0. -1.
        -15    1    1    2    0    0  0.70645697270E+01  0.84644168287E+01 -0.32252061858E+02  0.34130744509E+02  0.17770000000E+01 0.  1.
         15    1    1    2    0    0  0.17333911239E+01  0.98671421408E+01  0.20472924638E+02  0.22861835251E+02  0.17770000000E+01 0. -1.
</event>
<event>
 6    1  0.6564965E-004  0.5046839E+03  0.7546771E-02  0.9389390E-01
        -11   -1    0    0    0    0  0.00000000000E+00  0.00000000000E+00  0.50000000000E+03  0.50000000000E+03  0.00000000000E+00 0. -1.
         11   -1    0    0    0    0 -0.00000000000E+00 -0.00000000000E+00 -0.50000000000E+03  0.50000000000E+03  0.00000000000E+00 0. -1.
        -11    1    1    2    0    0  0.13621051993E+02 -0.22297509704E+02  0.10150428149E+03  0.10481331575E+03  0.00000000000E+00 0. -1.
         11    1    1    2    0    0 -0.26909236121E+02  0.10810765872E+02 -0.49446646239E+03  0.49531612338E+03  0.00000000000E+00 0. -1.
        -15    1    1    2    0    0  0.17759948053E+02  0.74073364740E+01  0.23813485916E+02  0.30667967474E+02  0.17770000000E+01 0.  1.
         15    1    1    2    0    0 -0.44717639244E+01  0.40794073583E+01  0.36914869498E+03  0.36920259340E+03  0.17770000000E+01 0. -1.
</event>
<event>
 6    1  0.6564965E-004  0.5076243E+03  0.7546771E-02  0.9382909E-01
        -11   -1    0    0    0    0  0.00000000000E+00  0.00000000000E+00  0.50000000000E+03  0.50000000000E+03  0.00000000000E+00 0. -1.
         11   -1    0    0    0    0 -0.00000000000E+00 -0.00000000000E+00 -0.50000000000E+03  0.50000000000E+03  0.00000000000E+00 0.  1.
        -11    1    1    2    0    0 -0.57281672871E-01 -0.25159038236E+02  0.49173246317E+03  0.49237566534E+03  0.00000000000E+00 0. -1.
         11    1    1    2    0    0 -0.81654835205E+01  0.97519270484E+00 -0.47175048566E+03  0.47182215595E+03  0.00000000000E+00 0.  1.
        -15    1    1    2    0    0  0.90581911834E+01  0.15218263279E+02 -0.19797456074E+02  0.26622234330E+02  0.17770000000E+01 0. -1.
         15    1    1    2    0    0 -0.83542599000E+00  0.89655822518E+01 -0.18452143186E+00  0.91799443821E+01  0.17770000000E+01 0.  1.
</event>
<event>
 6    1  0.6564965E-004  0.5001628E+03  0.7546771E-02  0.9399446E-01
        -11   -1    0    0    0    0  0.00000000000E+00  0.00000000000E+00  0.50000000000E+03  0.50000000000E+03  0.00000000000E+00 0.  1.
         11   -1    0    0    0    0 -0.00000000000E+00 -0.00000000000E+00 -0.50000000000E+03  0.50000000000E+03  0.00000000000E+00 0. -1.
        -11    1    1    2    0    0 -0.35373620889E+01 -0.95607546811E+01  0.24827657951E+03  0.24848577604E+03  0.00000000000E+00 0.  1.
         11    1    1    2    0    0  0.86158810293E+01  0.24835663057E+01 -0.49975677170E+03  0.49983720587E+03  0.00000000000E+00 0. -1.
        -15    1    1    2    0    0 -0.37289254645E+01  0.44873708888E+01  0.12273543692E+03  0.12288688534E+03  0.17770000000E+01 0.  1.
         15    1    1    2    0    0 -0.13495934759E+01  0.25898174866E+01  0.12874475526E+03  0.12879013275E+03  0.17770000000E+01 0.  1.
</event>
<event>
 6    1  0.6564965E-004  0.5007651E+03  0.7546771E-02  0.9398099E-01
        -11   -1    0    0    0    0  0.00000000000E+00  0.00000000000E+00  0.50000000000E+03  0.50000000000E+03  0.00000000000E+00 0.  1.
         11   -1    0    0    0    0 -0.00000000000E+00 -0.00000000000E+00 -0.50000000000E+03  0.50000000000E+03  0.00000000000E+00 0.  1.
        -11    1    1    2    0    0  0.11247556599E+03  0.58311980978E+02  0.48289171566E+03  0.49923486369E+03  0.00000000000E+00 0.  1.
         11    1    1    2    0    0 -0.11078080244E+03 -0.58772730210E+02 -0.44341518106E+03  0.46080759846E+03  0.00000000000E+00 0.  1.
        -15    1    1    2    0    0  0.14491623963E+01  0.25949770726E+00 -0.21298878798E+02  0.21423523935E+02  0.17770000000E+01 0.  1.
         15    1    1    2    0    0 -0.31439259459E+01  0.20125152544E+00 -0.18177655800E+02  0.18534013918E+02  0.17770000000E+01 0. -1.
</event>
<event>
 6    1  0.6564965E-004  0.5000731E+03  0.7546771E-02  0.9399646E-01
        -11   -1    0    0    0    0  0.00000000000E+00  0.00000000000E+00  0.50000000000E+03  0.50000000000E+03  0.00000000000E+00 0.  1.
         11   -1    0    0    0    0 -0.00000000000E+00 -0.00000000000E+00 -0.50000000000E+03  0.50000000000E+03  0.00000000000E+00 0. -1.
        -11    1    1    2    0    0 -0.64042378054E+00  0.22585488524E+01  0.36101226083E+02  0.36177475178E+02  0.00000000000E+00 0.  1.
         11    1    1    2    0    0  0.10148837973E+02 -0.94084193314E+01 -0.49973532889E+03  0.49992691087E+03  0.00000000000E+00 0. -1.
        -15    1    1    2    0    0 -0.57145598306E+01  0.30782053179E+01  0.37916985596E+03  0.37922957287E+03  0.17770000000E+01 0.  1.
         15    1    1    2    0    0 -0.37938543617E+01  0.40716651611E+01  0.84464246852E+02  0.84666041087E+02  0.17770000000E+01 0. -1.
</event>
<event>
 6    1  0.6564965E-004  0.5013049E+03  0.7546771E-02  0.9396895E-01
        -11   -1    0    0    0    0  0.00000000000E+00  0.00000000000E+00  0.50000000000E+03  0.50000000000E+03  0.00000000000E+00 0. -1.
         11   -1    0    0    0    0 -0.00000000000E+00 -0.00000000000E+00 -0.50000000000E+03  0.50000000000E+03  0.00000000000E+00 0.  1.
        -11    1    1    2    0    0  0.64551310541E+01 -0.43521505256E+01  0.44801586875E+03  0.44808350626E+03  0.00000000000E+00 0. -1.
         11    1    1    2    0    0  0.69667768515E+01 -0.41197558415E-01 -0.49864645077E+03  0.49869511782E+03  0.00000000000E+00 0.  1.
        -15    1    1    2    0    0 -0.61649593551E+01  0.11696953708E+01  0.34970222426E+02  0.35573151345E+02  0.17770000000E+01 0. -1.
         15    1    1    2    0    0 -0.72569485504E+01  0.32236527132E+01  0.15660359588E+02  0.17648224571E+02  0.17770000000E+01 0.  1.
</event>
<event>
 6    1  0.6564965E-004  0.4856032E+03  0.7546771E-02  0.9432613E-01
        -11   -1    0    0    0    0  0.00000000000E+00  0.00000000000E+00  0.50000000000E+03  0.50000000000E+03  0.00000000000E+00 0.  1.
         11   -1    0    0    0    0 -0.00000000000E+00 -0.00000000000E+00 -0.50000000000E+03  0.50000000000E+03  0.00000000000E+00 0. -1.
        -11    1    1    2    0    0 -0.69707051450E+01 -0.10582139616E+02  0.48550701721E+03  0.48567235475E+03  0.00000000000E+00 0.  1.
         11    1    1    2    0    0 -0.13668240721E+02  0.43373449282E+01 -0.48556160606E+03  0.48577330787E+03  0.00000000000E+00 0. -1.
        -15    1    1    2    0    0 -0.66392166335E+00 -0.20669515950E+00 -0.52651104636E+01  0.56002350002E+01  0.17770000000E+01 0. -1.
         15    1    1    2    0    0  0.21302867529E+02  0.64514898475E+01  0.53196993118E+01  0.22954102378E+02  0.17770000000E+01 0.  1.
</event>
<event>
 6    1  0.6564965E-004  0.5003409E+03  0.7546771E-02  0.9399047E-01
        -11   -1    0    0    0    0  0.00000000000E+00  0.00000000000E+00  0.50000000000E+03  0.50000000000E+03  0.00000000000E+00 0. -1.
         11   -1    0    0    0    0 -0.00000000000E+00 -0.00000000000E+00 -0.50000000000E+03  0.50000000000E+03  0.00000000000E+00 0.  1.
        -11    1    1    2    0    0  0.20970688243E+00 -0.77039691691E+01  0.72805485718E+02  0.73212252175E+02  0.00000000000E+00 0. -1.
         11    1    1    2    0    0 -0.32897326238E+00  0.71710801941E+01 -0.49960753773E+03  0.49965910817E+03  0.00000000000E+00 0.  1.
        -15    1    1    2    0    0  0.23173728933E+01  0.69542506160E+01  0.32384217061E+03  0.32392999400E+03  0.17770000000E+01 0. -1.
         15    1    1    2    0    0 -0.21981065133E+01 -0.64213616410E+01  0.10295988140E+03  0.10319864565E+03  0.17770000000E+01 0.  1.
</event>
<event>
 6    1  0.6564965E-004  0.5005603E+03  0.7546771E-02  0.9398557E-01
        -11   -1    0    0    0    0  0.00000000000E+00  0.00000000000E+00  0.50000000000E+03  0.50000000000E+03  0.00000000000E+00 0. -1.
         11   -1    0    0    0    0 -0.00000000000E+00 -0.00000000000E+00 -0.50000000000E+03  0.50000000000E+03  0.00000000000E+00 0.  1.
        -11    1    1    2    0    0 -0.51237082957E+01  0.12647600773E+02  0.49925323162E+03  0.49943968953E+03  0.00000000000E+00 0. -1.
         11    1    1    2    0    0  0.61508620122E+01 -0.14412406959E+01 -0.43858919348E+03  0.43863468959E+03  0.00000000000E+00 0.  1.
        -15    1    1    2    0    0 -0.75154735054E+00 -0.76165889729E+01 -0.30510723605E+02  0.31506177726E+02  0.17770000000E+01 0.  1.
         15    1    1    2    0    0 -0.27560636600E+00 -0.35897711040E+01 -0.30153314537E+02  0.30419443158E+02  0.17770000000E+01 0. -1.
</event>
<event>
 6    1  0.6564965E-004  0.5019493E+03  0.7546771E-02  0.9395459E-01
        -11   -1    0    0    0    0  0.00000000000E+00  0.00000000000E+00  0.50000000000E+03  0.50000000000E+03  0.00000000000E+00 0. -1.
         11   -1    0    0    0    0 -0.00000000000E+00 -0.00000000000E+00 -0.50000000000E+03  0.50000000000E+03  0.00000000000E+00 0. -1.
        -11    1    1    2    0    0 -0.31967861821E+01  0.70047087762E+01  0.49799116186E+03  0.49805068284E+03  0.00000000000E+00 0. -1.
         11    1    1    2    0    0 -0.63325635334E+01  0.17245984340E+01 -0.47433015553E+03  0.47437556013E+03  0.00000000000E+00 0. -1.
        -15    1    1    2    0    0  0.37570720086E+01 -0.89012333007E+00 -0.65885996738E+01  0.78406175957E+01  0.17770000000E+01 0. -1.
         15    1    1    2    0    0  0.57722777069E+01 -0.78391838802E+01 -0.17072406657E+02  0.19733139433E+02  0.17770000000E+01 0.  1.
</event>
<event>
 6    1  0.6564965E-004  0.5008157E+03  0.7546771E-02  0.9397986E-01
        -11   -1    0    0    0    0  0.00000000000E+00  0.00000000000E+00  0.50000000000E+03  0.50000000000E+03  0.00000000000E+00 0.  1.
         11   -1    0    0    0    0 -0.00000000000E+00 -0.00000000000E+00 -0.50000000000E+03  0.50000000000E+03  0.00000000000E+00 0.  1.
        -11    1    1    2    0    0  0.94071791655E+01 -0.94217532315E+01  0.24876527829E+03  0.24912131209E+03  0.00000000000E+00 0.  1.
         11    1    1    2    0    0  0.10271460975E+02  0.37153362101E+01 -0.49906474990E+03  0.49918426580E+03  0.00000000000E+00 0.  1.
        -15    1    1    2    0    0 -0.96775781058E+01  0.50416831728E+01  0.20352658110E+03  0.20382664456E+03  0.17770000000E+01 0. -1.
         15    1    1    2    0    0 -0.10001062035E+02  0.66473384867E+00  0.46772890506E+02  0.47867777556E+02  0.17770000000E+01 0.  1.
</event>
<event>
 6    1  0.6564965E-004  0.5003455E+03  0.7546771E-02  0.9399037E-01
        -11   -1    0    0    0    0  0.00000000000E+00  0.00000000000E+00  0.50000000000E+03  0.50000000000E+03  0.00000000000E+00 0. -1.
         11   -1    0    0    0    0 -0.00000000000E+00 -0.00000000000E+00 -0.50000000000E+03  0.50000000000E+03  0.00000000000E+00 0. -1.
        -11    1    1    2    0    0 -0.10080378147E+01 -0.65055054136E+01  0.40344794934E+03  0.40350165498E+03  0.00000000000E+00 0. -1.
         11    1    1    2    0    0  0.99953195712E+01  0.37543904541E+01 -0.49954043879E+03  0.49965453250E+03  0.00000000000E+00 0. -1.
        -15    1    1    2    0    0 -0.31513004528E+01  0.13627599626E+01  0.65720628638E+02  0.65834235523E+02  0.17770000000E+01 0.  1.
         15    1    1    2    0    0 -0.58359813037E+01  0.13883549969E+01  0.30371860810E+02  0.31009576996E+02  0.17770000000E+01 0. -1.
</event>
<event>
 6    1  0.6564965E-004  0.4864291E+03  0.7546771E-02  0.9430698E-01
        -11   -1    0    0    0    0  0.00000000000E+00  0.00000000000E+00  0.50000000000E+03  0.50000000000E+03  0.00000000000E+00 0. -1.
         11   -1    0    0    0    0 -0.00000000000E+00 -0.00000000000E+00 -0.50000000000E+03  0.50000000000E+03  0.00000000000E+00 0. -1.
        -11    1    1    2    0    0  0.57946303306E+01  0.17438481176E+02  0.48162861343E+03  0.48197904481E+03  0.00000000000E+00 0. -1.
         11    1    1    2    0    0  0.70488950940E+01 -0.31102775911E+01 -0.49105465134E+03  0.49111508973E+03  0.00000000000E+00 0. -1.
        -15    1    1    2    0    0 -0.52122181348E-01 -0.99917952368E+01  0.85234620320E+01  0.13253143883E+02  0.17770000000E+01 0. -1.
         15    1    1    2    0    0 -0.12791403243E+02 -0.43364083480E+01  0.90257588575E+00  0.13652721579E+02  0.17770000000E+01 0.  1.
</event>
<event>
 6    1  0.6564965E-004  0.5020469E+03  0.7546771E-02  0.9395241E-01
        -11   -1    0    0    0    0  0.00000000000E+00  0.00000000000E+00  0.50000000000E+03  0.50000000000E+03  0.00000000000E+00 0. -1.
         11   -1    0    0    0    0 -0.00000000000E+00 -0.00000000000E+00 -0.50000000000E+03  0.50000000000E+03  0.00000000000E+00 0. -1.
        -11    1    1    2    0    0  0.15231762031E+02  0.26588634418E+02  0.49700939498E+03  0.49795311100E+03  0.00000000000E+00 0. -1.
         11    1    1    2    0    0 -0.70073457340E+01 -0.56354089071E+01 -0.39946012728E+03  0.39956132697E+03  0.00000000000E+00 0. -1.
        -15    1    1    2    0    0  0.55950229515E+01  0.17819148292E+00 -0.23786235105E+02  0.24500586595E+02  0.17770000000E+01 0.  1.
         15    1    1    2    0    0 -0.13819439248E+02 -0.21131416994E+02 -0.73763032601E+02  0.77984975430E+02  0.17770000000E+01 0. -1.
</event>
<event>
 6    1  0.6564965E-004  0.5045868E+03  0.7546771E-02  0.9389605E-01
        -11   -1    0    0    0    0  0.00000000000E+00  0.00000000000E+00  0.50000000000E+03  0.50000000000E+03  0.00000000000E+00 0. -1.
         11   -1    0    0    0    0 -0.00000000000E+00 -0.00000000000E+00 -0.50000000000E+03  0.50000000000E+03  0.00000000000E+00 0. -1.
        -11    1    1    2    0    0 -0.66622806554E+00 -0.32179497754E+02  0.42252050635E+03  0.42374466631E+03  0.00000000000E+00 0. -1.
         11    1    1    2    0    0 -0.81492163023E+01 -0.55897824957E+00 -0.49534588385E+03  0.49541322836E+03  0.00000000000E+00 0. -1.
        -15    1    1    2    0    0  0.61317877126E+01  0.20485638695E+02  0.54426907128E+02  0.58503898689E+02  0.17770000000E+01 0. -1.
         15    1    1    2    0    0  0.26836566553E+01  0.12252837309E+02  0.18398470374E+02  0.22338206648E+02  0.17770000000E+01 0.  1.
</event>
<event>
 6    1  0.6564965E-004  0.5051571E+03  0.7546771E-02  0.9388344E-01
        -11   -1    0    0    0    0  0.00000000000E+00  0.00000000000E+00  0.50000000000E+03  0.50000000000E+03  0.00000000000E+00 0.  1.
         11   -1    0    0    0    0 -0.00000000000E+00 -0.00000000000E+00 -0.50000000000E+03  0.50000000000E+03  0.00000000000E+00 0.  1.
        -11    1    1    2    0    0  0.56569541059E+02 -0.30650721865E+01  0.21044170982E+03  0.21793398284E+03  0.00000000000E+00 0.  1.
         11    1    1    2    0    0 -0.16106642442E+02  0.10436543925E+02 -0.49447054781E+03  0.49484287207E+03  0.00000000000E+00 0.  1.
        -15    1    1    2    0    0 -0.12207084924E+01 -0.18436868334E+01  0.12947422729E+02  0.13254538645E+02  0.17770000000E+01 0. -1.
         15    1    1    2    0    0 -0.39242190125E+02 -0.55277849048E+01  0.27108141526E+03  0.27396860645E+03  0.17770000000E+01 0.  1.
</event>
<event>
 6    1  0.6564965E-004  0.5006137E+03  0.7546771E-02  0.9398438E-01
        -11   -1    0    0    0    0  0.00000000000E+00  0.00000000000E+00  0.50000000000E+03  0.50000000000E+03  0.00000000000E+00 0. -1.
         11   -1    0    0    0    0 -0.00000000000E+00 -0.00000000000E+00 -0.50000000000E+03  0.50000000000E+03  0.00000000000E+00 0. -1.
        -11    1    1    2    0    0 -0.38386522157E+01  0.13612405864E+02  0.30616653718E+03  0.30649303636E+03  0.00000000000E+00 0. -1.
         11    1    1    2    0    0  0.11385762713E+02 -0.13663170546E+02 -0.49906949689E+03  0.49938630393E+03  0.00000000000E+00 0. -1.
        -15    1    1    2    0    0 -0.99736450248E+01  0.35732730806E+01  0.18143354917E+03  0.18175129262E+03  0.17770000000E+01 0. -1.
         15    1    1    2    0    0  0.24265345273E+01 -0.35225083988E+01  0.11469410537E+02  0.12369367094E+02  0.17770000000E+01 0. -1.
</event>
<event>
 6    1  0.6564965E-004  0.5010927E+03  0.7546771E-02  0.9397368E-01
        -11   -1    0    0    0    0  0.00000000000E+00  0.00000000000E+00  0.50000000000E+03  0.50000000000E+03  0.00000000000E+00 0.  1.
         11   -1    0    0    0    0 -0.00000000000E+00 -0.00000000000E+00 -0.50000000000E+03  0.50000000000E+03  0.00000000000E+00 0. -1.
        -11    1    1    2    0    0 -0.11437005231E+02 -0.15304799293E+02  0.19485360131E+03  0.19578806888E+03  0.00000000000E+00 0.  1.
         11    1    1    2    0    0  0.27147629941E+01 -0.90928685880E+01 -0.49881707305E+03  0.49890732863E+03  0.00000000000E+00 0. -1.
        -15    1    1    2    0    0  0.78209274309E+01  0.61064339079E+01  0.95387794443E+02  0.95918947548E+02  0.17770000000E+01 0. -1.
         15    1    1    2    0    0  0.90131480602E+00  0.18291233973E+02  0.20857567729E+03  0.20938565494E+03  0.17770000000E+01 0.  1.
</event>
<event>
 6    1  0.6564965E-004  0.4307278E+03  0.7546771E-02  0.9569728E-01
        -11   -1    0    0    0    0  0.00000000000E+00  0.00000000000E+00  0.50000000000E+03  0.50000000000E+03  0.00000000000E+00 0.  1.
         11   -1    0    0    0    0 -0.00000000000E+00 -0.00000000000E+00 -0.50000000000E+03  0.50000000000E+03  0.00000000000E+00 0. -1.
        -11    1    1    2    0    0  0.10658866466E+03 -0.54001860546E+02  0.48874934807E+02  0.12909726422E+03  0.00000000000E+00 0.  1.
         11    1    1    2    0    0 -0.11030856874E+03  0.63812937052E+02 -0.45089570169E+03  0.46855843294E+03  0.00000000000E+00 0. -1.
        -15    1    1    2    0    0  0.74820977613E+01 -0.81036561646E+01  0.32534105359E+03  0.32553280927E+03  0.17770000000E+01 0.  1.
         15    1    1    2    0    0 -0.37621936847E+01 -0.17074203417E+01  0.76679713292E+02  0.76811493574E+02  0.17770000000E+01 0. -1.
</event>
<event>
 6    1  0.6564965E-004  0.5136282E+03  0.7546771E-02  0.9369822E-01
        -11   -1    0    0    0    0  0.00000000000E+00  0.00000000000E+00  0.50000000000E+03  0.50000000000E+03  0.00000000000E+00 0.  1.
         11   -1    0    0    0    0 -0.00000000000E+00 -0.00000000000E+00 -0.50000000000E+03  0.50000000000E+03  0.00000000000E+00 0. -1.
        -11    1    1    2    0    0 -0.87892871154E+01 -0.25416251887E+02  0.48562774618E+03  0.48637181794E+03  0.00000000000E+00 0.  1.
         11    1    1    2    0    0 -0.73005678976E+00  0.87149473722E+01 -0.47062022313E+03  0.47070147409E+03  0.00000000000E+00 0. -1.
        -15    1    1    2    0    0  0.53195473048E+01  0.26629909539E+02 -0.16612134551E+02  0.31883701306E+02  0.17770000000E+01 0. -1.
         15    1    1    2    0    0  0.41997966004E+01 -0.99286050247E+01  0.16046114995E+01  0.11043006669E+02  0.17770000000E+01 0.  1.
</event>
<event>
 6    1  0.6564965E-004  0.5081144E+03  0.7546771E-02  0.9381834E-01
        -11   -1    0    0    0    0  0.00000000000E+00  0.00000000000E+00  0.50000000000E+03  0.50000000000E+03  0.00000000000E+00 0. -1.
         11   -1    0    0    0    0 -0.00000000000E+00 -0.00000000000E+00 -0.50000000000E+03  0.50000000000E+03  0.00000000000E+00 0. -1.
        -11    1    1    2    0    0  0.19649914576E+02  0.16548398890E+02  0.35350030880E+03  0.35443255631E+03  0.00000000000E+00 0. -1.
         11    1    1    2    0    0  0.18840964979E+02  0.15963174944E+02 -0.49126530123E+03  0.49188555692E+03  0.00000000000E+00 0. -1.
        -15    1    1    2    0    0 -0.56939178669E+01  0.94060464315E+01  0.48296857926E+02  0.49564489553E+02  0.17770000000E+01 0.  1.
         15    1    1    2    0    0 -0.32796961687E+02 -0.41917620265E+02  0.89468134502E+02  0.10411739722E+03  0.17770000000E+01 0. -1.
</event>
<event>
 6    1  0.6564965E-004  0.5034130E+03  0.7546771E-02  0.9392205E-01
        -11   -1    0    0    0    0  0.00000000000E+00  0.00000000000E+00  0.50000000000E+03  0.50000000000E+03  0.00000000000E+00 0. -1.
         11   -1    0    0    0    0 -0.00000000000E+00 -0.00000000000E+00 -0.50000000000E+03  0.50000000000E+03  0.00000000000E+00 0.  1.
        -11    1    1    2    0    0  0.18382117196E+01 -0.13029821135E+02  0.44217080250E+03  0.44236656049E+03  0.00000000000E+00 0. -1.
         11    1    1    2    0    0  0.12137725259E+02 -0.67705545739E+01 -0.49639242649E+03  0.49658695700E+03  0.00000000000E+00 0.  1.
        -15    1    1    2    0    0  0.17587877527E+01  0.46665242503E+01  0.55330666244E+01  0.76578285569E+01  0.17770000000E+01 0. -1.
         15    1    1    2    0    0 -0.15734724731E+02  0.15133851459E+02  0.48688557374E+02  0.53388653949E+02  0.17770000000E+01 0.  1.
</event>
<event>
 6    1  0.6564965E-004  0.5011163E+03  0.7546771E-02  0.9397315E-01
        -11   -1    0    0    0    0  0.00000000000E+00  0.00000000000E+00  0.50000000000E+03  0.50000000000E+03  0.00000000000E+00 0. -1.
         11   -1    0    0    0    0 -0.00000000000E+00 -0.00000000000E+00 -0.50000000000E+03  0.50000000000E+03  0.00000000000E+00 0.  1.
        -11    1    1    2    0    0  0.16186202578E+02 -0.19104281612E+02  0.49825496883E+03  0.49888373465E+03  0.00000000000E+00 0. -1.
         11    1    1    2    0    0 -0.17104225366E+01 -0.46383531438E+01 -0.31069362099E+03  0.31073294964E+03  0.00000000000E+00 0.  1.
        -15    1    1    2    0    0 -0.66029064218E+00  0.17135640830E+02 -0.98252498763E+02  0.99753583457E+02  0.17770000000E+01 0.  1.
         15    1    1    2    0    0 -0.13815489399E+02  0.66069939263E+01 -0.89308849081E+02  0.90629732258E+02  0.17770000000E+01 0. -1.
</event>
<event>
 6    1  0.6564965E-004  0.5002485E+03  0.7546771E-02  0.9399254E-01
        -11   -1    0    0    0    0  0.00000000000E+00  0.00000000000E+00  0.50000000000E+03  0.50000000000E+03  0.00000000000E+00 0.  1.
         11   -1    0    0    0    0 -0.00000000000E+00 -0.00000000000E+00 -0.50000000000E+03  0.50000000000E+03  0.00000000000E+00 0. -1.
        -11    1    1    2    0    0 -0.47223212520E+01 -0.22342987934E+02  0.49922950526E+03  0.49975154662E+03  0.00000000000E+00 0.  1.
         11    1    1    2    0    0 -0.28794719107E+01  0.23877940771E+00 -0.16014980071E+03  0.16017586285E+03  0.00000000000E+00 0. -1.
        -15    1    1    2    0    0  0.23690405388E+01  0.63517983411E+01 -0.47370401809E+02  0.47886014574E+02  0.17770000000E+01 0.  1.
         15    1    1    2    0    0  0.52327526239E+01  0.15752410185E+02 -0.29170930275E+03  0.29218657595E+03  0.17770000000E+01 0. -1.
</event>
<event>
 6    1  0.6564965E-004  0.5011022E+03  0.7546771E-02  0.9397347E-01
        -11   -1    0    0    0    0  0.00000000000E+00  0.00000000000E+00  0.50000000000E+03  0.50000000000E+03  0.00000000000E+00 0.  1.
         11   -1    0    0    0    0 -0.00000000000E+00 -0.00000000000E+00 -0.50000000000E+03  0.50000000000E+03  0.00000000000E+00 0.  1.
        -11    1    1    2    0    0  0.93198585386E+01  0.19699075756E+02  0.32327969483E+03  0.32401338620E+03  0.00000000000E+00 0.  1.
         11    1    1    2    0    0  0.70896833810E+00 -0.69089354181E+01 -0.49884946510E+03  0.49889781004E+03  0.00000000000E+00 0.  1.
        -15    1    1    2    0    0 -0.18348759190E+00 -0.13217720515E+01  0.24749415472E+01  0.33262311577E+01  0.17770000000E+01 0. -1.
         15    1    1    2    0    0 -0.98453392848E+01 -0.11468368286E+02  0.17309482873E+03  0.17376257261E+03  0.17770000000E+01 0. -1.
</event>
<event>
 6    1  0.6564965E-004  0.5098951E+03  0.7546771E-02  0.9377937E-01
        -11   -1    0    0    0    0  0.00000000000E+00  0.00000000000E+00  0.50000000000E+03  0.50000000000E+03  0.00000000000E+00 0. -1.
         11   -1    0    0    0    0 -0.00000000000E+00 -0.00000000000E+00 -0.50000000000E+03  0.50000000000E+03  0.00000000000E+00 0. -1.
        -11    1    1    2    0    0  0.18434604836E+02 -0.79057511154E+01  0.48969431668E+03  0.49010494727E+03  0.00000000000E+00 0. -1.
         11    1    1    2    0    0  0.14234366227E+02  0.30311811058E-01 -0.46718967789E+03  0.46740647538E+03  0.00000000000E+00 0. -1.
        -15    1    1    2    0    0 -0.43370578489E+01  0.32645510415E+01 -0.91338461228E+01  0.10772754443E+02  0.17770000000E+01 0. -1.
         15    1    1    2    0    0 -0.28331913213E+02  0.46108882628E+01 -0.13370792664E+02  0.31715822902E+02  0.17770000000E+01 0.  1.
</event>
<event>
 6    1  0.6564965E-004  0.5051404E+03  0.7546771E-02  0.9388381E-01
        -11   -1    0    0    0    0  0.00000000000E+00  0.00000000000E+00  0.50000000000E+03  0.50000000000E+03  0.00000000000E+00 0.  1.
         11   -1    0    0    0    0 -0.00000000000E+00 -0.00000000000E+00 -0.50000000000E+03  0.50000000000E+03  0.00000000000E+00 0. -1.
        -11    1    1    2    0    0  0.64653246597E+02  0.14928396523E+02  0.17351439612E+03  0.18576906357E+03  0.00000000000E+00 0.  1.
         11    1    1    2    0    0 -0.45141647508E+02 -0.34809468331E+02 -0.49156538102E+03  0.49485956719E+03  0.00000000000E+00 0. -1.
        -15    1    1    2    0    0 -0.10779703421E+02  0.14917601461E+02  0.18127690239E+03  0.18221747970E+03  0.17770000000E+01 0.  1.
         15    1    1    2    0    0 -0.87318956681E+01  0.49634703478E+01  0.13677408251E+03  0.13715388954E+03  0.17770000000E+01 0.  1.
</event>
<event>
 6    1  0.6564965E-004  0.5044915E+03  0.7546771E-02  0.9389815E-01
        -11   -1    0    0    0    0  0.00000000000E+00  0.00000000000E+00  0.50000000000E+03  0.50000000000E+03  0.00000000000E+00 0. -1.
         11   -1    0    0    0    0 -0.00000000000E+00 -0.00000000000E+00 -0.50000000000E+03  0.50000000000E+03  0.00000000000E+00 0. -1.
        -11    1    1    2    0    0  0.77203393007E+01  0.45040897439E+01  0.48387665647E+03  0.48395920194E+03  0.00000000000E+00 0. -1.
         11    1    1    2    0    0  0.11734626024E+01 -0.67670780881E+01 -0.49546093771E+03  0.49550853793E+03  0.00000000000E+00 0. -1.
        -15    1    1    2    0    0 -0.12576537767E+02  0.19482518258E+01  0.86817406928E+01  0.15507912104E+02  0.17770000000E+01 0. -1.
         15    1    1    2    0    0  0.36827358638E+01  0.31473651848E+00  0.29025405483E+01  0.50243480327E+01  0.17770000000E+01 0.  1.
</event>
<event>
 6    1  0.6564965E-004  0.4758800E+03  0.7546771E-02  0.9455459E-01
        -11   -1    0    0    0    0  0.00000000000E+00  0.00000000000E+00  0.50000000000E+03  0.50000000000E+03  0.00000000000E+00 0. -1.
         11   -1    0    0    0    0 -0.00000000000E+00 -0.00000000000E+00 -0.50000000000E+03  0.50000000000E+03  0.00000000000E+00 0. -1.
        -11    1    1    2    0    0 -0.11421079735E+02  0.34406795163E+01  0.48316877772E+03  0.48331599094E+03  0.00000000000E+00 0. -1.
         11    1    1    2    0    0 -0.18326081020E+02  0.27990386519E+02 -0.46834924440E+03  0.46954267294E+03  0.00000000000E+00 0. -1.
        -15    1    1    2    0    0  0.57991041209E+01 -0.13061718061E+02 -0.32082916606E+01  0.14754285876E+02  0.17770000000E+01 0.  1.
         15    1    1    2    0    0  0.23948056635E+02 -0.18369347973E+02 -0.11611241657E+02  0.32387050242E+02  0.17770000000E+01 0. -1.
</event>
<event>
 6    1  0.6564965E-004  0.5021224E+03  0.7546771E-02  0.9395073E-01
        -11   -1    0    0    0    0  0.00000000000E+00  0.00000000000E+00  0.50000000000E+03  0.50000000000E+03  0.00000000000E+00 0. -1.
         11   -1    0    0    0    0 -0.00000000000E+00 -0.00000000000E+00 -0.50000000000E+03  0.50000000000E+03  0.00000000000E+00 0. -1.
        -11    1    1    2    0    0 -0.35223064772E+01 -0.31995855380E+02  0.32781803489E+03  0.32939460439E+03  0.00000000000E+00 0. -1.
         11    1    1    2    0    0 -0.52167542823E+01  0.52509927954E+02 -0.49507332152E+03  0.49787759614E+03  0.00000000000E+00 0. -1.
        -15    1    1    2    0    0 -0.78673851619E+01 -0.20308609042E+02  0.13100189558E+03  0.13281185837E+03  0.17770000000E+01 0. -1.
         15    1    1    2    0    0  0.16606445921E+02 -0.20546353085E+00  0.36253391053E+02  0.39915941092E+02  0.17770000000E+01 0.  1.
</event>
<event>
 6    1  0.7601553E-004  0.5001077E+03  0.7546771E-02  0.9399569E-01
        -11   -1    0    0    0    0  0.00000000000E+00  0.00000000000E+00  0.50000000000E+03  0.50000000000E+03  0.00000000000E+00 0.  1.
         11   -1    0    0    0    0 -0.00000000000E+00 -0.00000000000E+00 -0.50000000000E+03  0.50000000000E+03  0.00000000000E+00 0.  1.
        -11    1    1    2    0    0 -0.68074390215E+01  0.73742175196E+01  0.49979153098E+03  0.49989228315E+03  0.00000000000E+00 0.  1.
         11    1    1    2    0    0  0.22324124207E+01 -0.44729475941E+01 -0.23577706007E+03  0.23583005105E+03  0.00000000000E+00 0.  1.
        -15    1    1    2    0    0  0.44453529405E+01 -0.50524058014E+01 -0.10112617423E+03  0.10136542217E+03  0.17770000000E+01 0.  1.
         15    1    1    2    0    0  0.12967366024E+00  0.21511358759E+01 -0.16288829668E+03  0.16291224363E+03  0.17770000000E+01 0. -1.
</event>
<event>
 6    1  0.6564965E-004  0.4929617E+03  0.7546771E-02  0.9415698E-01
        -11   -1    0    0    0    0  0.00000000000E+00  0.00000000000E+00  0.50000000000E+03  0.50000000000E+03  0.00000000000E+00 0.  1.
         11   -1    0    0    0    0 -0.00000000000E+00 -0.00000000000E+00 -0.50000000000E+03  0.50000000000E+03  0.00000000000E+00 0. -1.
        -11    1    1    2    0    0 -0.14639018561E+02  0.90827621114E+00  0.25895462971E+01  0.14894011553E+02  0.00000000000E+00 0.  1.
         11    1    1    2    0    0 -0.30719875623E+01 -0.66554993840E+01 -0.49317789156E+03  0.49323236461E+03  0.00000000000E+00 0. -1.
        -15    1    1    2    0    0  0.15162230685E+02  0.14415780808E+02  0.43667482186E+03  0.43717932905E+03  0.17770000000E+01 0.  1.
         15    1    1    2    0    0  0.25487754383E+01 -0.86685576351E+01  0.53913523401E+02  0.54694294786E+02  0.17770000000E+01 0. -1.
</event>
<event>
 6    1  0.6564965E-004  0.5021143E+03  0.7546771E-02  0.9395091E-01
        -11   -1    0    0    0    0  0.00000000000E+00  0.00000000000E+00  0.50000000000E+03  0.50000000000E+03  0.00000000000E+00 0.  1.
         11   -1    0    0    0    0 -0.00000000000E+00 -0.00000000000E+00 -0.50000000000E+03  0.50000000000E+03  0.00000000000E+00 0. -1.
        -11    1    1    2    0    0  0.11765781658E+02  0.90146596858E+02  0.48951537645E+03  0.49788567596E+03  0.00000000000E+00 0.  1.
         11    1    1    2    0    0 -0.50565372989E+01 -0.70762566266E+00 -0.10244551838E+03  0.10257267442E+03  0.00000000000E+00 0. -1.
        -15    1    1    2    0    0  0.14698874452E+02 -0.33146769653E+02 -0.19113302654E+03  0.19455013958E+03  0.17770000000E+01 0.  1.
         15    1    1    2    0    0 -0.21408118810E+02 -0.56292201543E+02 -0.19593683154E+03  0.20499151004E+03  0.17770000000E+01 0. -1.
</event>
<event>
 6    1  0.6564965E-004  0.5010500E+03  0.7546771E-02  0.9397463E-01
        -11   -1    0    0    0    0  0.00000000000E+00  0.00000000000E+00  0.50000000000E+03  0.50000000000E+03  0.00000000000E+00 0.  1.
         11   -1    0    0    0    0 -0.00000000000E+00 -0.00000000000E+00 -0.50000000000E+03  0.50000000000E+03  0.00000000000E+00 0. -1.
        -11    1    1    2    0    0  0.27037178158E+01  0.75919511073E+01  0.49888489298E+03  0.49894998172E+03  0.00000000000E+00 0.  1.
         11    1    1    2    0    0  0.77416806647E+01 -0.91489247711E+01 -0.46448866373E+03  0.46464325581E+03  0.00000000000E+00 0. -1.
        -15    1    1    2    0    0 -0.69696781090E+01 -0.96103897479E+00 -0.19709544630E+02  0.21002949492E+02  0.17770000000E+01 0. -1.
         15    1    1    2    0    0 -0.34757203715E+01  0.25180126386E+01 -0.14686684628E+02  0.15403812973E+02  0.17770000000E+01 0.  1.
</event>
<event>
 6    1  0.6564965E-004  0.4887892E+03  0.7546771E-02  0.9425250E-01
        -11   -1    0    0    0    0  0.00000000000E+00  0.00000000000E+00  0.50000000000E+03  0.50000000000E+03  0.00000000000E+00 0. -1.
         11   -1    0    0    0    0 -0.00000000000E+00 -0.00000000000E+00 -0.50000000000E+03  0.50000000000E+03  0.00000000000E+00 0. -1.
        -11    1    1    2    0    0 -0.12953844189E+02 -0.45215316787E+01  0.48790594638E+03  0.48809882077E+03  0.00000000000E+00 0. -1.
         11    1    1    2    0    0 -0.12377550023E+01 -0.10153510421E+02 -0.48958736727E+03  0.48969420662E+03  0.00000000000E+00 0. -1.
        -15    1    1    2    0    0  0.72989665120E+01  0.11341292147E+02  0.36884320566E+01  0.14094753625E+02  0.17770000000E+01 0.  1.
         15    1    1    2    0    0  0.68926326789E+01  0.33337499520E+01 -0.20070111646E+01  0.81122189815E+01  0.17770000000E+01 0. -1.
</event>
<event>
 6    1  0.6564965E-004  0.5002425E+03  0.7546771E-02  0.9399267E-01
        -11   -1    0    0    0    0  0.00000000000E+00  0.00000000000E+00  0.50000000000E+03  0.50000000000E+03  0.00000000000E+00 0. -1.
         11   -1    0    0    0    0 -0.00000000000E+00 -0.00000000000E+00 -0.50000000000E+03  0.50000000000E+03  0.00000000000E+00 0. -1.
        -11    1    1    2    0    0 -0.18892624488E+01  0.40388770262E+01  0.29017329413E+02  0.29357916249E+02  0.00000000000E+00 0. -1.
         11    1    1    2    0    0  0.46979648164E+01  0.66438911142E+01 -0.49969121455E+03  0.49975746324E+03  0.00000000000E+00 0. -1.
        -15    1    1    2    0    0 -0.55934613202E+01 -0.71321366555E+01  0.30884803827E+03  0.30898612049E+03  0.17770000000E+01 0. -1.
         15    1    1    2    0    0  0.27847589527E+01 -0.35506314850E+01  0.16182584686E+03  0.16189850002E+03  0.17770000000E+01 0.  1.
</event>
<event>
 6    1  0.6564965E-004  0.5000515E+03  0.7546771E-02  0.9399694E-01
        -11   -1    0    0    0    0  0.00000000000E+00  0.00000000000E+00  0.50000000000E+03  0.50000000000E+03  0.00000000000E+00 0. -1.
         11   -1    0    0    0    0 -0.00000000000E+00 -0.00000000000E+00 -0.50000000000E+03  0.50000000000E+03  0.00000000000E+00 0.  1.
        -11    1    1    2    0    0  0.94477252080E+01  0.33690798385E+01  0.22342988984E+03  0.22365492592E+03  0.00000000000E+00 0. -1.
         11    1    1    2    0    0 -0.14291448614E+02 -0.45622283053E+01 -0.49972332421E+03  0.49994845753E+03  0.00000000000E+00 0.  1.
        -15    1    1    2    0    0 -0.46897980571E-01  0.15184701209E+01  0.86429560617E+02  0.86461174110E+02  0.17770000000E+01 0. -1.
         15    1    1    2    0    0  0.48906213868E+01 -0.32532165409E+00  0.18986387375E+03  0.18993544244E+03  0.17770000000E+01 0. -1.
</event>
<event>
 6    1  0.6564965E-004  0.5021410E+03  0.7546771E-02  0.9395032E-01
        -11   -1    0    0    0    0  0.00000000000E+00  0.00000000000E+00  0.50000000000E+03  0.50000000000E+03  0.00000000000E+00 0. -1.
         11   -1    0    0    0    0 -0.00000000000E+00 -0.00000000000E+00 -0.50000000000E+03  0.50000000000E+03  0.00000000000E+00 0.  1.
        -11    1    1    2    0    0 -0.70413794425E+01  0.50389581442E+01  0.49778368997E+03  0.49785899020E+03  0.00000000000E+00 0. -1.
         11    1    1    2    0    0 -0.61803118714E+01  0.92815503927E+00 -0.45365940474E+03  0.45370245010E+03  0.00000000000E+00 0.  1.
        -15    1    1    2    0    0  0.36541538655E+01 -0.70943510095E+01 -0.98976561197E+01  0.12837600336E+02  0.17770000000E+01 0. -1.
         15    1    1    2    0    0  0.95675374484E+01  0.11272378260E+01 -0.34226629113E+02  0.35600959360E+02  0.17770000000E+01 0.  1.
</event>
<event>
 6    1  0.6564965E-004  0.5125920E+03  0.7546771E-02  0.9372067E-01
        -11   -1    0    0    0    0  0.00000000000E+00  0.00000000000E+00  0.50000000000E+03  0.50000000000E+03  0.00000000000E+00 0. -1.
         11   -1    0    0    0    0 -0.00000000000E+00 -0.00000000000E+00 -0.50000000000E+03  0.50000000000E+03  0.00000000000E+00 0.  1.
        -11    1    1    2    0    0 -0.17178605582E+02  0.46685968289E+02  0.48486270207E+03  0.48740796463E+03  0.00000000000E+00 0. -1.
         11    1    1    2    0    0  0.71607853812E+01  0.11056553484E+01 -0.44012045634E+03  0.44018009429E+03  0.00000000000E+00 0.  1.
        -15    1    1    2    0    0  0.35309602315E+01  0.27115117649E+01 -0.29916124775E+00  0.48028327745E+01  0.17770000000E+01 0. -1.
         15    1    1    2    0    0  0.64868599691E+01 -0.50503135403E+02 -0.44443084488E+02  0.67609108303E+02  0.17770000000E+01 0.  1.
</event>
<event>
 6    1  0.6564965E-004  0.5095948E+03  0.7546771E-02  0.9378593E-01
        -11   -1    0    0    0    0  0.00000000000E+00  0.00000000000E+00  0.50000000000E+03  0.50000000000E+03  0.00000000000E+00 0.  1.
         11   -1    0    0    0    0 -0.00000000000E+00 -0.00000000000E+00 -0.50000000000E+03  0.50000000000E+03  0.00000000000E+00 0.  1.
        -11    1    1    2    0    0  0.19469229027E+02  0.45438303396E+01  0.48999753354E+03  0.49040522035E+03  0.00000000000E+00 0.  1.
         11    1    1    2    0    0 -0.21753581177E+02 -0.15557520515E+02 -0.39986952366E+03  0.40076288587E+03  0.00000000000E+00 0.  1.
        -15    1    1    2    0    0 -0.21367615413E+01 -0.15965799797E+02 -0.76565297998E+02  0.78261581249E+02  0.17770000000E+01 0.  1.
         15    1    1    2    0    0  0.44211136910E+01  0.26979489973E+02 -0.13562711877E+02  0.30570312526E+02  0.17770000000E+01 0. -1.
</event>
<event>
 6    1  0.7340900E-004  0.5003343E+03  0.7546771E-02  0.9399062E-01
        -11   -1    0    0    0    0  0.00000000000E+00  0.00000000000E+00  0.50000000000E+03  0.50000000000E+03  0.00000000000E+00 0.  1.
         11   -1    0    0    0    0 -0.00000000000E+00 -0.00000000000E+00 -0.50000000000E+03  0.50000000000E+03  0.00000000000E+00 0.  1.
        -11    1    1    2    0    0  0.22878055148E+01  0.96808104719E+01  0.49956669952E+03  0.49966572767E+03  0.00000000000E+00 0.  1.
         11    1    1    2    0    0 -0.59707915055E+01 -0.79035864794E+00 -0.27881229596E+03  0.27887734113E+03  0.00000000000E+00 0.  1.
        -15    1    1    2    0    0 -0.19413004300E+01 -0.79083849931E+01 -0.58327233418E+02  0.58919734281E+02  0.17770000000E+01 0.  1.
         15    1    1    2    0    0  0.56242864207E+01 -0.98206683085E+00 -0.16242717014E+03  0.16253719691E+03  0.17770000000E+01 0. -1.
</event>
<event>
 6    1  0.6564965E-004  0.5002774E+03  0.7546771E-02  0.9399189E-01
        -11   -1    0    0    0    0  0.00000000000E+00  0.00000000000E+00  0.50000000000E+03  0.50000000000E+03  0.00000000000E+00 0. -1.
         11   -1    0    0    0    0 -0.00000000000E+00 -0.00000000000E+00 -0.50000000000E+03  0.50000000000E+03  0.00000000000E+00 0.  1.
        -11    1    1    2    0    0  0.10126421097E+01  0.16732359151E+02  0.49944137545E+03  0.49972260785E+03  0.00000000000E+00 0. -1.
         11    1    1    2    0    0  0.42519632622E+01 -0.19568917784E+01 -0.16680837226E+03  0.16687402936E+03  0.00000000000E+00 0.  1.
        -15    1    1    2    0    0 -0.86306743225E+01 -0.15846663912E+02 -0.23894902539E+03  0.23963597343E+03  0.17770000000E+01 0. -1.
         15    1    1    2    0    0  0.33660689506E+01  0.10711965396E+01 -0.93683977799E+02  0.93767389360E+02  0.17770000000E+01 0.  1.
</event>
<event>
 6    1  0.6564965E-004  0.5040467E+03  0.7546771E-02  0.9390800E-01
        -11   -1    0    0    0    0  0.00000000000E+00  0.00000000000E+00  0.50000000000E+03  0.50000000000E+03  0.00000000000E+00 0. -1.
         11   -1    0    0    0    0 -0.00000000000E+00 -0.00000000000E+00 -0.50000000000E+03  0.50000000000E+03  0.00000000000E+00 0. -1.
        -11    1    1    2    0    0  0.26027855670E+02  0.23182777367E+02  0.27091773459E+03  0.27315070813E+03  0.00000000000E+00 0. -1.
         11    1    1    2    0    0 -0.69100766095E+01  0.59027391590E+01 -0.49587002722E+03  0.49595329960E+03  0.00000000000E+00 0. -1.
        -15    1    1    2    0    0  0.54385943265E+01 -0.46102787679E+01  0.12252941262E+03  0.12274953224E+03  0.17770000000E+01 0. -1.
         15    1    1    2    0    0 -0.24556373387E+02 -0.24475237758E+02  0.10242288001E+03  0.10814646002E+03  0.17770000000E+01 0.  1.
</event>
<event>
 6    1  0.6564965E-004  0.5034881E+03  0.7546771E-02  0.9392038E-01
        -11   -1    0    0    0    0  0.00000000000E+00  0.00000000000E+00  0.50000000000E+03  0.50000000000E+03  0.00000000000E+00 0. -1.
         11   -1    0    0    0    0 -0.00000000000E+00 -0.00000000000E+00 -0.50000000000E+03  0.50000000000E+03  0.00000000000E+00 0.  1.
        -11    1    1    2    0    0 -0.12973166539E+02  0.48430269351E+01  0.49631870812E+03  0.49651185081E+03  0.00000000000E+00 0. -1.
         11    1    1    2    0    0  0.12194752349E+02 -0.25842873657E+01 -0.48409180613E+03  0.48425227649E+03  0.00000000000E+00 0.  1.
        -15    1    1    2    0    0  0.73852385648E+01 -0.22048323445E+01 -0.54464687378E+01  0.96033736279E+01  0.17770000000E+01 0.  1.
         15    1    1    2    0    0 -0.66068243746E+01 -0.53907224887E-01 -0.67804332582E+01  0.96324990773E+01  0.17770000000E+01 0. -1.
</event>
<event>
 6    1  0.6564965E-004  0.4498130E+03  0.7546771E-02  0.9519688E-01
        -11   -1    0    0    0    0  0.00000000000E+00  0.00000000000E+00  0.50000000000E+03  0.50000000000E+03  0.00000000000E+00 0.  1.
         11   -1    0    0    0    0 -0.00000000000E+00 -0.00000000000E+00 -0.50000000000E+03  0.50000000000E+03  0.00000000000E+00 0. -1.
        -11    1    1    2    0    0 -0.51109991999E+01  0.79062211409E+02  0.46757820726E+03  0.47424290768E+03  0.00000000000E+00 0.  1.
         11    1    1    2    0    0  0.31305743060E+01 -0.55587602935E+01 -0.42915321825E+03  0.42920063496E+03  0.00000000000E+00 0. -1.
        -15    1    1    2    0    0  0.11258506079E+02 -0.20387504275E+02  0.86983856582E+01  0.24924364219E+02  0.17770000000E+01 0.  1.
         15    1    1    2    0    0 -0.92780811851E+01 -0.53115946841E+02 -0.47123374659E+02  0.71632093140E+02  0.17770000000E+01 0. -1.
</event>
<event>
 6    1  0.6564965E-004  0.5025484E+03  0.7546771E-02  0.9394125E-01
        -11   -1    0    0    0    0  0.00000000000E+00  0.00000000000E+00  0.50000000000E+03  0.50000000000E+03  0.00000000000E+00 0.  1.
         11   -1    0    0    0    0 -0.00000000000E+00 -0.00000000000E+00 -0.50000000000E+03  0.50000000000E+03  0.00000000000E+00 0.  1.
        -11    1    1    2    0    0  0.17920464183E+02 -0.21203262433E+02  0.49667628771E+03  0.49745156161E+03  0.00000000000E+00 0.  1.
         11    1    1    2    0    0  0.48341632879E+01 -0.47791690441E+01 -0.38312060030E+03  0.38318090240E+03  0.00000000000E+00 0.  1.
        -15    1    1    2    0    0 -0.20298975420E+02  0.26787357298E+02 -0.10384798335E+03  0.10916580183E+03  0.17770000000E+01 0. -1.
         15    1    1    2    0    0 -0.24556520516E+01 -0.80492582133E+00 -0.97077040607E+01  0.10201734152E+02  0.17770000000E+01 0.  1.
</event>
<event>
 6    1  0.6564965E-004  0.5099940E+03  0.7546771E-02  0.9377721E-01
        -11   -1    0    0    0    0  0.00000000000E+00  0.00000000000E+00  0.50000000000E+03  0.50000000000E+03  0.00000000000E+00 0. -1.
         11   -1    0    0    0    0 -0.00000000000E+00 -0.00000000000E+00 -0.50000000000E+03  0.50000000000E+03  0.00000000000E+00 0.  1.
        -11    1    1    2    0    0  0.42210365453E+02  0.38825815970E+02  0.48663819647E+03  0.49000601343E+03  0.00000000000E+00 0. -1.
         11    1    1    2    0    0  0.59721690861E+01  0.60017128551E+01 -0.39944296108E+03  0.39953268517E+03  0.00000000000E+00 0.  1.
        -15    1    1    2    0    0 -0.69555778268E+00  0.37891382308E+00 -0.11191644050E+01  0.22444674825E+01  0.17770000000E+01 0. -1.
         15    1    1    2    0    0 -0.47486976757E+02 -0.45206442648E+02 -0.86076070983E+02  0.10821683392E+03  0.17770000000E+01 0. -1.
</event>
<event>
 6    1  0.6564965E-004  0.4921976E+03  0.7546771E-02  0.9417439E-01
        -11   -1    0    0    0    0  0.00000000000E+00  0.00000000000E+00  0.50000000000E+03  0.50000000000E+03  0.00000000000E+00 0. -1.
         11   -1    0    0    0    0 -0.00000000000E+00 -0.00000000000E+00 -0.50000000000E+03  0.50000000000E+03  0.00000000000E+00 0. -1.
        -11    1    1    2    0    0  0.14500824517E+01 -0.13342504806E+02  0.49102316571E+03  0.49120654967E+03  0.00000000000E+00 0. -1.
         11    1    1    2    0    0  0.72033154356E+01  0.31410076217E+01 -0.49321935070E+03  0.49328194939E+03  0.00000000000E+00 0. -1.
        -15    1    1    2    0    0 -0.26888212848E+01  0.76512441414E+01  0.27920609976E+01  0.87592596963E+01  0.17770000000E+01 0.  1.
         15    1    1    2    0    0 -0.59645766024E+01  0.25502530425E+01 -0.59587600514E+00  0.67522412457E+01  0.17770000000E+01 0. -1.
</event>
<event>
 6    1  0.6564965E-004  0.4899786E+03  0.7546771E-02  0.9422517E-01
        -11   -1    0    0    0    0  0.00000000000E+00  0.00000000000E+00  0.50000000000E+03  0.50000000000E+03  0.00000000000E+00 0.  1.
         11   -1    0    0    0    0 -0.00000000000E+00 -0.00000000000E+00 -0.50000000000E+03  0.50000000000E+03  0.00000000000E+00 0.  1.
        -11    1    1    2    0    0  0.74776552398E+01  0.11297449767E+02  0.48814676695E+03  0.48833473538E+03  0.00000000000E+00 0.  1.
         11    1    1    2    0    0 -0.70013104760E+01  0.47598359555E+01 -0.49168754444E+03  0.49176042515E+03  0.00000000000E+00 0.  1.
        -15    1    1    2    0    0  0.23340499517E+01 -0.15802108375E+02  0.39349576462E+01  0.16546783342E+02  0.17770000000E+01 0.  1.
         15    1    1    2    0    0 -0.28103947156E+01 -0.25517734704E+00 -0.39418015177E+00  0.33580561234E+01  0.17770000000E+01 0. -1.
</event>
<event>
 6    1  0.6564965E-004  0.5018522E+03  0.7546771E-02  0.9395675E-01
        -11   -1    0    0    0    0  0.00000000000E+00  0.00000000000E+00  0.50000000000E+03  0.50000000000E+03  0.00000000000E+00 0. -1.
         11   -1    0    0    0    0 -0.00000000000E+00 -0.00000000000E+00 -0.50000000000E+03  0.50000000000E+03  0.00000000000E+00 0.  1.
        -11    1    1    2    0    0 -0.11925105395E+01  0.92269186848E+01  0.47602712600E+03  0.47611803452E+03  0.00000000000E+00 0. -1.
         11    1    1    2    0    0  0.71060318851E+01 -0.51788726254E+01 -0.49807018331E+03  0.49814779324E+03  0.00000000000E+00 0.  1.
        -15    1    1    2    0    0  0.44759262871E+00 -0.46486014955E+01  0.15999524624E+02  0.16761633340E+02  0.17770000000E+01 0. -1.
         15    1    1    2    0    0 -0.63611139743E+01  0.60055543611E+00  0.60435326861E+01  0.89725388912E+01  0.17770000000E+01 0.  1.
</event>
<event>
 6    1  0.6564965E-004  0.5003422E+03  0.7546771E-02  0.9399044E-01
        -11   -1    0    0    0    0  0.00000000000E+00  0.00000000000E+00  0.50000000000E+03  0.50000000000E+03  0.00000000000E+00 0.  1.
         11   -1    0    0    0    0 -0.00000000000E+00 -0.00000000000E+00 -0.50000000000E+03  0.50000000000E+03  0.00000000000E+00 0.  1.
        -11    1    1    2    0    0 -0.39558481037E+01 -0.83487693998E+01  0.49957234864E+03  0.49965776509E+03  0.00000000000E+00 0.  1.
         11    1    1    2    0    0 -0.73020378689E+01  0.16502453510E+01 -0.31302771813E+03  0.31311722307E+03  0.00000000000E+00 0.  1.
        -15    1    1    2    0    0  0.66876918869E+01  0.63078192044E+01 -0.76561254510E+02  0.77131687568E+02  0.17770000000E+01 0. -1.
         15    1    1    2    0    0  0.45701940858E+01  0.39070484451E+00 -0.10998337600E+03  0.11009332428E+03  0.17770000000E+01 0.  1.
</event>
<event>
 6    1  0.6564965E-004  0.4780379E+03  0.7546771E-02  0.9450339E-01
        -11   -1    0    0    0    0  0.00000000000E+00  0.00000000000E+00  0.50000000000E+03  0.50000000000E+03  0.00000000000E+00 0. -1.
         11   -1    0    0    0    0 -0.00000000000E+00 -0.00000000000E+00 -0.50000000000E+03  0.50000000000E+03  0.00000000000E+00 0. -1.
        -11    1    1    2    0    0 -0.23688849008E+02  0.95367915543E+01  0.47789643973E+03  0.47857822669E+03  0.00000000000E+00 0. -1.
         11    1    1    2    0    0 -0.16474002867E+02 -0.64688665136E+01 -0.47801815492E+03  0.47834568613E+03  0.00000000000E+00 0. -1.
        -15    1    1    2    0    0  0.77707827969E+01 -0.66541825342E+01 -0.89217307560E+00  0.10421943786E+02  0.17770000000E+01 0. -1.
         15    1    1    2    0    0  0.32392069078E+02  0.35862574935E+01  0.10138882702E+01  0.32654143388E+02  0.17770000000E+01 0.  1.
</event>
<event>
 6    1  0.6564965E-004  0.5011316E+03  0.7546771E-02  0.9397281E-01
        -11   -1    0    0    0    0  0.00000000000E+00  0.00000000000E+00  0.50000000000E+03  0.50000000000E+03  0.00000000000E+00 0. -1.
         11   -1    0    0    0    0 -0.00000000000E+00 -0.00000000000E+00 -0.50000000000E+03  0.50000000000E+03  0.00000000000E+00 0. -1.
        -11    1    1    2    0    0 -0.16939237763E+01  0.92372532679E+01  0.49878000306E+03  0.49886840718E+03  0.00000000000E+00 0. -1.
         11    1    1    2    0    0  0.90684983832E+01 -0.65963777054E+01 -0.44538590284E+03  0.44552705003E+03  0.00000000000E+00 0. -1.
        -15    1    1    2    0    0 -0.13626359981E+01 -0.73019803880E+01 -0.29081975382E+02  0.30068167812E+02  0.17770000000E+01 0.  1.
         15    1    1    2    0    0 -0.60119386087E+01  0.46611048255E+01 -0.24312124838E+02  0.25536374981E+02  0.17770000000E+01 0. -1.
</event>
<event>
 6    1  0.6564965E-004  0.5188694E+03  0.7546771E-02  0.9358551E-01
        -11   -1    0    0    0    0  0.00000000000E+00  0.00000000000E+00  0.50000000000E+03  0.50000000000E+03  0.00000000000E+00 0.  1.
         11   -1    0    0    0    0 -0.00000000000E+00 -0.00000000000E+00 -0.50000000000E+03  0.50000000000E+03  0.00000000000E+00 0. -1.
        -11    1    1    2    0    0  0.14297353892E+02  0.38971580830E+02  0.33758621446E+03  0.34012887357E+03  0.00000000000E+00 0.  1.
         11    1    1    2    0    0 -0.80207068921E+01 -0.32847094262E+01 -0.48105257464E+03  0.48113064819E+03  0.00000000000E+00 0. -1.
        -15    1    1    2    0    0  0.77334452812E+01 -0.70063691475E-01 -0.14318500097E+02  0.16370346938E+02  0.17770000000E+01 0.  1.
         15    1    1    2    0    0 -0.14010092281E+02 -0.35616807713E+02  0.15778486028E+03  0.16237013131E+03  0.17770000000E+01 0. -1.
</event>
<event>
 6    1  0.6564965E-004  0.5041340E+03  0.7546771E-02  0.9390607E-01
        -11   -1    0    0    0    0  0.00000000000E+00  0.00000000000E+00  0.50000000000E+03  0.50000000000E+03  0.00000000000E+00 0.  1.
         11   -1    0    0    0    0 -0.00000000000E+00 -0.00000000000E+00 -0.50000000000E+03  0.50000000000E+03  0.00000000000E+00 0.  1.
        -11    1    1    2    0    0  0.74949833280E+01 -0.22680741763E+02  0.46945812201E+03  0.47006544134E+03  0.00000000000E+00 0.  1.
         11    1    1    2    0    0  0.74871419850E+01  0.80791189050E+01 -0.49574366994E+03  0.49586602600E+03  0.00000000000E+00 0.  1.
        -15    1    1    2    0    0 -0.99889742291E+01  0.74711459775E+01  0.17588349252E+02  0.21635743269E+02  0.17770000000E+01 0.  1.
         15    1    1    2    0    0 -0.49931510839E+01  0.71304768809E+01  0.86971986772E+01  0.12432789394E+02  0.17770000000E+01 0. -1.
</event>
<event>
 6    1  0.6564965E-004  0.5001572E+03  0.7546771E-02  0.9399458E-01
        -11   -1    0    0    0    0  0.00000000000E+00  0.00000000000E+00  0.50000000000E+03  0.50000000000E+03  0.00000000000E+00 0.  1.
         11   -1    0    0    0    0 -0.00000000000E+00 -0.00000000000E+00 -0.50000000000E+03  0.50000000000E+03  0.00000000000E+00 0.  1.
        -11    1    1    2    0    0  0.94733394068E+00 -0.30176531958E+02  0.49893017084E+03  0.49984281119E+03  0.00000000000E+00 0.  1.
         11    1    1    2    0    0  0.69552395315E+00  0.20184446249E+01 -0.92985275377E+02  0.93009780718E+02  0.00000000000E+00 0.  1.
        -15    1    1    2    0    0  0.77786898291E+00  0.28195536079E+02 -0.36875849161E+03  0.36983993321E+03  0.17770000000E+01 0.  1.
         15    1    1    2    0    0 -0.24207268767E+01 -0.37448745931E-01 -0.37186403859E+02  0.37307474881E+02  0.17770000000E+01 0. -1.
</event>
<event>
 6    1  0.6564965E-004  0.5053627E+03  0.7546771E-02  0.9387889E-01
        -11   -1    0    0    0    0  0.00000000000E+00  0.00000000000E+00  0.50000000000E+03  0.50000000000E+03  0.00000000000E+00 0.  1.
         11   -1    0    0    0    0 -0.00000000000E+00 -0.00000000000E+00 -0.50000000000E+03  0.50000000000E+03  0.00000000000E+00 0.  1.
        -11    1    1    2    0    0 -0.17192865103E+02  0.32065824370E+01  0.42276979840E+03  0.42313139711E+03  0.00000000000E+00 0.  1.
         11    1    1    2    0    0 -0.27717273568E+01  0.14808940986E+02 -0.49440775496E+03  0.49463725635E+03  0.00000000000E+00 0.  1.
        -15    1    1    2    0    0  0.12910161669E+02  0.11985577659E+01  0.79519287776E+01  0.15313383536E+02  0.17770000000E+01 0. -1.
         15    1    1    2    0    0  0.70544307913E+01 -0.19214081189E+02  0.63686027784E+02  0.66917963011E+02  0.17770000000E+01 0.  1.
</event>
<event>
 6    1  0.6564965E-004  0.5129270E+03  0.7546771E-02  0.9371340E-01
        -11   -1    0    0    0    0  0.00000000000E+00  0.00000000000E+00  0.50000000000E+03  0.50000000000E+03  0.00000000000E+00 0. -1.
         11   -1    0    0    0    0 -0.00000000000E+00 -0.00000000000E+00 -0.50000000000E+03  0.50000000000E+03  0.00000000000E+00 0.  1.
        -11    1    1    2    0    0 -0.71718955089E+02 -0.19999029023E+02  0.31880465760E+03  0.32738353561E+03  0.00000000000E+00 0. -1.
         11    1    1    2    0    0  0.79393150063E+01 -0.25300254934E+02 -0.48635070957E+03  0.48707304209E+03  0.00000000000E+00 0.  1.
        -15    1    1    2    0    0  0.91799945815E+01  0.28465910316E+01  0.30439799353E+02  0.31970525405E+02  0.17770000000E+01 0.  1.
         15    1    1    2    0    0  0.54599645501E+02  0.42452692925E+02  0.13710625262E+03  0.15357289690E+03  0.17770000000E+01 0. -1.
</event>
<event>
 6    1  0.6564965E-004  0.4891503E+03  0.7546771E-02  0.9424419E-01
        -11   -1    0    0    0    0  0.00000000000E+00  0.00000000000E+00  0.50000000000E+03  0.50000000000E+03  0.00000000000E+00 0.  1.
         11   -1    0    0    0    0 -0.00000000000E+00 -0.00000000000E+00 -0.50000000000E+03  0.50000000000E+03  0.00000000000E+00 0. -1.
        -11    1    1    2    0    0  0.12971676903E+02 -0.48878125066E+01  0.48551210279E+03  0.48570995159E+03  0.00000000000E+00 0.  1.
         11    1    1    2    0    0  0.47467793462E+01  0.52468574591E+01 -0.49272696477E+03  0.49277776253E+03  0.00000000000E+00 0. -1.
        -15    1    1    2    0    0 -0.10022187931E+02  0.34597276093E+01  0.68174244924E+01  0.12729845709E+02  0.17770000000E+01 0.  1.
         15    1    1    2    0    0 -0.76962683188E+01 -0.38187725618E+01  0.39743748581E+00  0.87824401773E+01  0.17770000000E+01 0. -1.
</event>
<event>
 6    1  0.6564965E-004  0.5006085E+03  0.7546771E-02  0.9398449E-01
        -11   -1    0    0    0    0  0.00000000000E+00  0.00000000000E+00  0.50000000000E+03  0.50000000000E+03  0.00000000000E+00 0.  1.
         11   -1    0    0    0    0 -0.00000000000E+00 -0.00000000000E+00 -0.50000000000E+03  0.50000000000E+03  0.00000000000E+00 0. -1.
        -11    1    1    2    0    0  0.66272511723E+01 -0.83742672107E+01  0.49927728005E+03  0.49939148089E+03  0.00000000000E+00 0.  1.
         11    1    1    2    0    0  0.19223043988E+01 -0.78076671749E+01 -0.20426983015E+03  0.20442802750E+03  0.00000000000E+00 0. -1.
        -15    1    1    2    0    0 -0.16694538017E+01  0.69865604706E+01 -0.23151973896E+03  0.23163796399E+03  0.17770000000E+01 0.  1.
         15    1    1    2    0    0 -0.68801017694E+01  0.91953739150E+01 -0.63487710940E+02  0.64542527617E+02  0.17770000000E+01 0. -1.
</event>
<event>
 6    1  0.6564965E-004  0.5003798E+03  0.7546771E-02  0.9398960E-01
        -11   -1    0    0    0    0  0.00000000000E+00  0.00000000000E+00  0.50000000000E+03  0.50000000000E+03  0.00000000000E+00 0. -1.
         11   -1    0    0    0    0 -0.00000000000E+00 -0.00000000000E+00 -0.50000000000E+03  0.50000000000E+03  0.00000000000E+00 0. -1.
        -11    1    1    2    0    0 -0.67473584534E+01 -0.17536401418E+01  0.49957159511E+03  0.49962023652E+03  0.00000000000E+00 0. -1.
         11    1    1    2    0    0  0.43944338258E+01  0.81109021860E+01 -0.33372949413E+03  0.33385696493E+03  0.00000000000E+00 0. -1.
        -15    1    1    2    0    0  0.61053764200E+01 -0.35100368981E+00 -0.43579151467E+02  0.44042013991E+02  0.17770000000E+01 0. -1.
         15    1    1    2    0    0 -0.37524517923E+01 -0.60062583543E+01 -0.12226294951E+03  0.12248078456E+03  0.17770000000E+01 0.  1.
</event>
<event>
 6    1  0.6564965E-004  0.5030963E+03  0.7546771E-02  0.9392908E-01
        -11   -1    0    0    0    0  0.00000000000E+00  0.00000000000E+00  0.50000000000E+03  0.50000000000E+03  0.00000000000E+00 0. -1.
         11   -1    0    0    0    0 -0.00000000000E+00 -0.00000000000E+00 -0.50000000000E+03  0.50000000000E+03  0.00000000000E+00 0. -1.
        -11    1    1    2    0    0 -0.21027492648E+01 -0.10472762780E+02  0.49678886403E+03  0.49690368860E+03  0.00000000000E+00 0. -1.
         11    1    1    2    0    0 -0.55550941909E+01  0.38187722500E+01 -0.48512337401E+03  0.48517020736E+03  0.00000000000E+00 0. -1.
        -15    1    1    2    0    0  0.40773327479E+01  0.76288146102E+01 -0.51570932291E+01  0.10226279591E+02  0.17770000000E+01 0.  1.
         15    1    1    2    0    0  0.35805107077E+01 -0.97482407990E+00 -0.65083967888E+01  0.76998244574E+01  0.17770000000E+01 0. -1.
</event>
<event>
 6    1  0.6564965E-004  0.5016913E+03  0.7546771E-02  0.9396033E-01
        -11   -1    0    0    0    0  0.00000000000E+00  0.00000000000E+00  0.50000000000E+03  0.50000000000E+03  0.00000000000E+00 0.  1.
         11   -1    0    0    0    0 -0.00000000000E+00 -0.00000000000E+00 -0.50000000000E+03  0.50000000000E+03  0.00000000000E+00 0. -1.
        -11    1    1    2    0    0 -0.42795017207E+00  0.11790030328E+02  0.43704647609E+03  0.43720568411E+03  0.00000000000E+00 0.  1.
         11    1    1    2    0    0 -0.10145933165E+02 -0.85171250374E+00 -0.49820470357E+03  0.49830873164E+03  0.00000000000E+00 0. -1.
        -15    1    1    2    0    0  0.33060826749E+01  0.43335118976E+00  0.32031497297E+01  0.49533698729E+01  0.17770000000E+01 0. -1.
         15    1    1    2    0    0  0.72678006625E+01 -0.11371669014E+02  0.57955077752E+02  0.59532214379E+02  0.17770000000E+01 0.  1.
</event>
<event>
 6    1  0.6564965E-004  0.5019950E+03  0.7546771E-02  0.9395357E-01
        -11   -1    0    0    0    0  0.00000000000E+00  0.00000000000E+00  0.50000000000E+03  0.50000000000E+03  0.00000000000E+00 0.  1.
         11   -1    0    0    0    0 -0.00000000000E+00 -0.00000000000E+00 -0.50000000000E+03  0.50000000000E+03  0.00000000000E+00 0. -1.
        -11    1    1    2    0    0  0.75232323387E+01 -0.12562589498E+02  0.49778965897E+03  0.49800498216E+03  0.00000000000E+00 0.  1.
         11    1    1    2    0    0 -0.44350274040E+01  0.72962652761E+01 -0.46117718065E+03  0.46125621612E+03  0.00000000000E+00 0. -1.
        -15    1    1    2    0    0 -0.14576087840E+01 -0.26914254940E+01 -0.37441725621E+00  0.35589762346E+01  0.17770000000E+01 0.  1.
         15    1    1    2    0    0 -0.16305961507E+01  0.79577497161E+01 -0.36238061067E+02  0.37179825487E+02  0.17770000000E+01 0. -1.
</event>
<event>
 6    1  0.6564965E-004  0.5171065E+03  0.7546771E-02  0.9362326E-01
        -11   -1    0    0    0    0  0.00000000000E+00  0.00000000000E+00  0.50000000000E+03  0.50000000000E+03  0.00000000000E+00 0.  1.
         11   -1    0    0    0    0 -0.00000000000E+00 -0.00000000000E+00 -0.50000000000E+03  0.50000000000E+03  0.00000000000E+00 0.  1.
        -11    1    1    2    0    0  0.30662143716E+02 -0.32995732950E+02  0.43338413510E+03  0.43571859497E+03  0.00000000000E+00 0.  1.
         11    1    1    2    0    0 -0.36647016403E+00  0.79762590973E+01 -0.48282743843E+03  0.48289345648E+03  0.00000000000E+00 0.  1.
        -15    1    1    2    0    0 -0.36672428015E+02  0.23242699389E+02  0.56680167019E+02  0.71420509055E+02  0.17770000000E+01 0. -1.
         15    1    1    2    0    0  0.63767544628E+01  0.17767744636E+01 -0.72368636879E+01  0.99674394912E+01  0.17770000000E+01 0.  1.
</event>
<event>
 6    1  0.6564965E-004  0.5066538E+03  0.7546771E-02  0.9385043E-01
        -11   -1    0    0    0    0  0.00000000000E+00  0.00000000000E+00  0.50000000000E+03  0.50000000000E+03  0.00000000000E+00 0. -1.
         11   -1    0    0    0    0 -0.00000000000E+00 -0.00000000000E+00 -0.50000000000E+03  0.50000000000E+03  0.00000000000E+00 0. -1.
        -11    1    1    2    0    0 -0.26370255903E+02 -0.40525002384E+02  0.81999113496E+02  0.95192020825E+02  0.00000000000E+00 0. -1.
         11    1    1    2    0    0  0.37000037133E+02  0.73708975093E+01 -0.49190156779E+03  0.49334621238E+03  0.00000000000E+00 0. -1.
        -15    1    1    2    0    0 -0.99032118997E+01  0.30196659799E+02  0.34554735764E+03  0.34701015255E+03  0.17770000000E+01 0. -1.
         15    1    1    2    0    0 -0.72656933099E+00  0.29574450756E+01  0.64355096656E+02  0.64451614246E+02  0.17770000000E+01 0.  1.
</event>
<event>
 6    1  0.6564965E-004  0.5015470E+03  0.7546771E-02  0.9396355E-01
        -11   -1    0    0    0    0  0.00000000000E+00  0.00000000000E+00  0.50000000000E+03  0.50000000000E+03  0.00000000000E+00 0. -1.
         11   -1    0    0    0    0 -0.00000000000E+00 -0.00000000000E+00 -0.50000000000E+03  0.50000000000E+03  0.00000000000E+00 0.  1.
        -11    1    1    2    0    0 -0.55477182864E+02 -0.63054256973E+00  0.30103646377E+03  0.30610630167E+03  0.00000000000E+00 0. -1.
         11    1    1    2    0    0  0.53120832013E+02  0.22468305765E+02 -0.49510478212E+03  0.49845299963E+03  0.00000000000E+00 0.  1.
        -15    1    1    2    0    0 -0.18413302802E+01 -0.57487133369E+01  0.61786869036E+02  0.62106465980E+02  0.17770000000E+01 0.  1.
         15    1    1    2    0    0  0.41976811314E+01 -0.16089049858E+02  0.13228144932E+03  0.13333423272E+03  0.17770000000E+01 0. -1.
</event>
<event>
 6    1  0.6564965E-004  0.5028042E+03  0.7546771E-02  0.9393557E-01
        -11   -1    0    0    0    0  0.00000000000E+00  0.00000000000E+00  0.50000000000E+03  0.50000000000E+03  0.00000000000E+00 0. -1.
         11   -1    0    0    0    0 -0.00000000000E+00 -0.00000000000E+00 -0.50000000000E+03  0.50000000000E+03  0.00000000000E+00 0.  1.
        -11    1    1    2    0    0  0.24947209989E+02  0.14348023654E+02  0.49636220201E+03  0.49719580112E+03  0.00000000000E+00 0. -1.
         11    1    1    2    0    0  0.67550484965E+01  0.46144926554E+01 -0.27118439030E+03  0.27130775471E+03  0.00000000000E+00 0.  1.
        -15    1    1    2    0    0 -0.38464048753E+02 -0.14076618886E+02 -0.13962577729E+03  0.14552027233E+03  0.17770000000E+01 0. -1.
         15    1    1    2    0    0  0.67617902673E+01 -0.48858974235E+01 -0.85552034425E+02  0.85976171841E+02  0.17770000000E+01 0.  1.
</event>
<event>
 6    1  0.6564965E-004  0.5007670E+03  0.7546771E-02  0.9398095E-01
        -11   -1    0    0    0    0  0.00000000000E+00  0.00000000000E+00  0.50000000000E+03  0.50000000000E+03  0.00000000000E+00 0. -1.
         11   -1    0    0    0    0 -0.00000000000E+00 -0.00000000000E+00 -0.50000000000E+03  0.50000000000E+03  0.00000000000E+00 0.  1.
        -11    1    1    2    0    0  0.10738005141E+02 -0.31058795778E+01  0.49910788519E+03  0.49923304408E+03  0.00000000000E+00 0. -1.
         11    1    1    2    0    0 -0.41151814292E+00  0.78302696295E+01 -0.43436386939E+03  0.43443463663E+03  0.00000000000E+00 0.  1.
        -15    1    1    2    0    0 -0.57869340289E+01 -0.55010102232E+01 -0.25518691564E+02  0.26797594427E+02  0.17770000000E+01 0. -1.
         15    1    1    2    0    0 -0.45395529693E+01  0.77662017147E+00 -0.39225324231E+02  0.39534724864E+02  0.17770000000E+01 0.  1.
</event>
<event>
 6    1  0.6564965E-004  0.5035235E+03  0.7546771E-02  0.9391960E-01
        -11   -1    0    0    0    0  0.00000000000E+00  0.00000000000E+00  0.50000000000E+03  0.50000000000E+03  0.00000000000E+00 0. -1.
         11   -1    0    0    0    0 -0.00000000000E+00 -0.00000000000E+00 -0.50000000000E+03  0.50000000000E+03  0.00000000000E+00 0. -1.
        -11    1    1    2    0    0 -0.30729883364E+02  0.17486119513E+02  0.31530789253E+03  0.31728403237E+03  0.00000000000E+00 0. -1.
         11    1    1    2    0    0 -0.50164585086E+01 -0.81695947739E+01 -0.49638396399E+03  0.49647653202E+03  0.00000000000E+00 0. -1.
        -15    1    1    2    0    0  0.10268695321E+02 -0.63631398163E+01  0.10963846279E+03  0.11031629936E+03  0.17770000000E+01 0. -1.
         15    1    1    2    0    0  0.25477646552E+02 -0.29533849229E+01  0.71437608674E+02  0.75923136252E+02  0.17770000000E+01 0.  1.
</event>
<event>
 6    1  0.6564965E-004  0.5007921E+03  0.7546771E-02  0.9398039E-01
        -11   -1    0    0    0    0  0.00000000000E+00  0.00000000000E+00  0.50000000000E+03  0.50000000000E+03  0.00000000000E+00 0.  1.
         11   -1    0    0    0    0 -0.00000000000E+00 -0.00000000000E+00 -0.50000000000E+03  0.50000000000E+03  0.00000000000E+00 0.  1.
        -11    1    1    2    0    0 -0.81422097284E+01 -0.11798261119E+01  0.49914013839E+03  0.49920793796E+03  0.00000000000E+00 0.  1.
         11    1    1    2    0    0 -0.23721212023E+01  0.61483909542E+01 -0.44212565412E+03  0.44217476601E+03  0.00000000000E+00 0.  1.
        -15    1    1    2    0    0  0.50853720971E+01 -0.10213584802E+01 -0.37617969412E+02  0.38015438103E+02  0.17770000000E+01 0. -1.
         15    1    1    2    0    0  0.54289588337E+01 -0.39472063621E+01 -0.19396514861E+02  0.20601857922E+02  0.17770000000E+01 0.  1.
</event>
<event>
 6    1  0.6564965E-004  0.5025948E+03  0.7546771E-02  0.9394022E-01
        -11   -1    0    0    0    0  0.00000000000E+00  0.00000000000E+00  0.50000000000E+03  0.50000000000E+03  0.00000000000E+00 0. -1.
         11   -1    0    0    0    0 -0.00000000000E+00 -0.00000000000E+00 -0.50000000000E+03  0.50000000000E+03  0.00000000000E+00 0. -1.
        -11    1    1    2    0    0  0.62551986258E+01 -0.11646069100E+02  0.44055263838E+03  0.44075093377E+03  0.00000000000E+00 0. -1.
         11    1    1    2    0    0  0.11194287635E+01 -0.77311978941E+01 -0.49734387675E+03  0.49740522341E+03  0.00000000000E+00 0. -1.
        -15    1    1    2    0    0 -0.15435026017E+01  0.17384205309E+01  0.11291039411E+01  0.31364168941E+01  0.17770000000E+01 0.  1.
         15    1    1    2    0    0 -0.58311247876E+01  0.17638846463E+02  0.55662134428E+02  0.58707425927E+02  0.17770000000E+01 0. -1.
</event>
<event>
 6    1  0.6564965E-004  0.5016840E+03  0.7546771E-02  0.9396050E-01
        -11   -1    0    0    0    0  0.00000000000E+00  0.00000000000E+00  0.50000000000E+03  0.50000000000E+03  0.00000000000E+00 0. -1.
         11   -1    0    0    0    0 -0.00000000000E+00 -0.00000000000E+00 -0.50000000000E+03  0.50000000000E+03  0.00000000000E+00 0. -1.
        -11    1    1    2    0    0 -0.36790858225E+01  0.10915602871E+02  0.49818287292E+03  0.49831602516E+03  0.00000000000E+00 0. -1.
         11    1    1    2    0    0 -0.64731874395E+01 -0.51736838371E+01 -0.46259745921E+03  0.46267167455E+03  0.00000000000E+00 0. -1.
        -15    1    1    2    0    0  0.30504506325E+01 -0.70013402008E+01 -0.12448201534E+02  0.14711881732E+02  0.17770000000E+01 0.  1.
         15    1    1    2    0    0  0.71018226295E+01  0.12594211672E+01 -0.23137212170E+02  0.24300418563E+02  0.17770000000E+01 0. -1.
</event>
<event>
 6    1  0.6564965E-004  0.5110053E+03  0.7546771E-02  0.9375516E-01
        -11   -1    0    0    0    0  0.00000000000E+00  0.00000000000E+00  0.50000000000E+03  0.50000000000E+03  0.00000000000E+00 0. -1.
         11   -1    0    0    0    0 -0.00000000000E+00 -0.00000000000E+00 -0.50000000000E+03  0.50000000000E+03  0.00000000000E+00 0.  1.
        -11    1    1    2    0    0 -0.14030552864E+02 -0.31057510142E+01  0.48878346673E+03  0.48899466198E+03  0.00000000000E+00 0. -1.
         11    1    1    2    0    0  0.64009748968E+01  0.20869197863E+01 -0.47467980488E+03  0.47472754805E+03  0.00000000000E+00 0.  1.
        -15    1    1    2    0    0 -0.51841117745E+01  0.10675363936E+01 -0.20922243376E+02  0.21654390911E+02  0.17770000000E+01 0. -1.
         15    1    1    2    0    0  0.12813689742E+02 -0.48705165760E-01  0.68185815295E+01  0.14623399060E+02  0.17770000000E+01 0.  1.
</event>
<event>
 6    1  0.6564965E-004  0.5001052E+03  0.7546771E-02  0.9399574E-01
        -11   -1    0    0    0    0  0.00000000000E+00  0.00000000000E+00  0.50000000000E+03  0.50000000000E+03  0.00000000000E+00 0. -1.
         11   -1    0    0    0    0 -0.00000000000E+00 -0.00000000000E+00 -0.50000000000E+03  0.50000000000E+03  0.00000000000E+00 0.  1.
        -11    1    1    2    0    0  0.52638591646E+01 -0.83127208954E+01  0.33601202183E+03  0.33615604762E+03  0.00000000000E+00 0. -1.
         11    1    1    2    0    0 -0.14873943839E+02  0.73164151219E+01 -0.49961989885E+03  0.49989479639E+03  0.00000000000E+00 0.  1.
        -15    1    1    2    0    0  0.66317618219E+01  0.79017941568E+00  0.12246439291E+03  0.12265924306E+03  0.17770000000E+01 0. -1.
         15    1    1    2    0    0  0.29783228524E+01  0.20612635789E+00  0.41143484112E+02  0.41289912921E+02  0.17770000000E+01 0. -1.
</event>
<event>
 6    1  0.6564965E-004  0.5008027E+03  0.7546771E-02  0.9398015E-01
        -11   -1    0    0    0    0  0.00000000000E+00  0.00000000000E+00  0.50000000000E+03  0.50000000000E+03  0.00000000000E+00 0.  1.
         11   -1    0    0    0    0 -0.00000000000E+00 -0.00000000000E+00 -0.50000000000E+03  0.50000000000E+03  0.00000000000E+00 0. -1.
        -11    1    1    2    0    0 -0.20794865303E+02 -0.54131585022E+01  0.49873456933E+03  0.49919725495E+03  0.00000000000E+00 0.  1.
         11    1    1    2    0    0  0.61952226659E+01 -0.12724629027E+01 -0.34078486105E+03  0.34084354397E+03  0.00000000000E+00 0. -1.
        -15    1    1    2    0    0 -0.44501002103E+01  0.33673042944E+01 -0.36170777413E+02  0.36641847630E+02  0.17770000000E+01 0. -1.
         15    1    1    2    0    0  0.19049742847E+02  0.33183171105E+01 -0.12177893086E+03  0.12331735345E+03  0.17770000000E+01 0.  1.
</event>
<event>
 6    1  0.6564965E-004  0.5094490E+03  0.7546771E-02  0.9378912E-01
        -11   -1    0    0    0    0  0.00000000000E+00  0.00000000000E+00  0.50000000000E+03  0.50000000000E+03  0.00000000000E+00 0.  1.
         11   -1    0    0    0    0 -0.00000000000E+00 -0.00000000000E+00 -0.50000000000E+03  0.50000000000E+03  0.00000000000E+00 0. -1.
        -11    1    1    2    0    0 -0.19475390015E+01  0.40381853665E+02  0.48888215334E+03  0.49055096256E+03  0.00000000000E+00 0.  1.
         11    1    1    2    0    0  0.44430499080E-01 -0.95871701836E+01 -0.45025326046E+03  0.45035532012E+03  0.00000000000E+00 0. -1.
        -15    1    1    2    0    0  0.28767641431E+01  0.65225545201E+01 -0.62121436435E+01  0.96212237813E+01  0.17770000000E+01 0.  1.
         15    1    1    2    0    0 -0.97365564061E+00 -0.37317238001E+02 -0.32416749234E+02  0.49472493542E+02  0.17770000000E+01 0. -1.
</event>
<event>
 6    1  0.6564965E-004  0.5033968E+03  0.7546771E-02  0.9392241E-01
        -11   -1    0    0    0    0  0.00000000000E+00  0.00000000000E+00  0.50000000000E+03  0.50000000000E+03  0.00000000000E+00 0.  1.
         11   -1    0    0    0    0 -0.00000000000E+00 -0.00000000000E+00 -0.50000000000E+03  0.50000000000E+03  0.00000000000E+00 0.  1.
        -11    1    1    2    0    0 -0.92165949788E+01 -0.56116067012E+01  0.49648596111E+03  0.49660320713E+03  0.00000000000E+00 0.  1.
         11    1    1    2    0    0 -0.14452973121E+02  0.38756122590E+00 -0.43453871045E+03  0.43477917328E+03  0.00000000000E+00 0.  1.
        -15    1    1    2    0    0  0.19306688420E+02  0.45444796888E+01 -0.28119742878E+02  0.34456903255E+02  0.17770000000E+01 0.  1.
         15    1    1    2    0    0  0.43628796798E+01  0.67956578655E+00 -0.33827507783E+02  0.34160716336E+02  0.17770000000E+01 0. -1.
</event>
<event>
 6    1  0.6564965E-004  0.5000979E+03  0.7546771E-02  0.9399591E-01
        -11   -1    0    0    0    0  0.00000000000E+00  0.00000000000E+00  0.50000000000E+03  0.50000000000E+03  0.00000000000E+00 0.  1.
         11   -1    0    0    0    0 -0.00000000000E+00 -0.00000000000E+00 -0.50000000000E+03  0.50000000000E+03  0.00000000000E+00 0.  1.
        -11    1    1    2    0    0  0.14033090304E+01  0.21990609493E+01  0.16472381125E+02  0.16677664261E+02  0.00000000000E+00 0.  1.
         11    1    1    2    0    0 -0.67208853563E+01 -0.58100956965E+01 -0.49982315331E+03  0.49990210252E+03  0.00000000000E+00 0.  1.
        -15    1    1    2    0    0  0.21396911581E+01  0.35992546677E+01  0.27681887715E+03  0.27685624679E+03  0.17770000000E+01 0.  1.
         15    1    1    2    0    0  0.31778851678E+01  0.11780079459E-01  0.20653189504E+03  0.20656398643E+03  0.17770000000E+01 0.  1.
</event>
<event>
 6    1  0.6564965E-004  0.5023942E+03  0.7546771E-02  0.9394468E-01
        -11   -1    0    0    0    0  0.00000000000E+00  0.00000000000E+00  0.50000000000E+03  0.50000000000E+03  0.00000000000E+00 0.  1.
         11   -1    0    0    0    0 -0.00000000000E+00 -0.00000000000E+00 -0.50000000000E+03  0.50000000000E+03  0.00000000000E+00 0.  1.
        -11    1    1    2    0    0  0.25014672264E+02  0.15387535632E+02  0.83163180504E+02  0.88196511682E+02  0.00000000000E+00 0.  1.
         11    1    1    2    0    0 -0.14199088159E+02 -0.17458363770E+02 -0.49709672188E+03  0.49760582741E+03  0.00000000000E+00 0.  1.
        -15    1    1    2    0    0 -0.73429244489E+01 -0.32152858361E+01  0.22269090548E+03  0.22284221709E+03  0.17770000000E+01 0. -1.
         15    1    1    2    0    0 -0.34726596567E+01  0.52861139747E+01  0.19124263590E+03  0.19135544382E+03  0.17770000000E+01 0.  1.
</event>
<event>
 6    1  0.6564965E-004  0.5013210E+03  0.7546771E-02  0.9396859E-01
        -11   -1    0    0    0    0  0.00000000000E+00  0.00000000000E+00  0.50000000000E+03  0.50000000000E+03  0.00000000000E+00 0. -1.
         11   -1    0    0    0    0 -0.00000000000E+00 -0.00000000000E+00 -0.50000000000E+03  0.50000000000E+03  0.00000000000E+00 0.  1.
        -11    1    1    2    0    0 -0.11840900393E+02  0.21729448100E+01  0.49853368442E+03  0.49867901812E+03  0.00000000000E+00 0. -1.
         11    1    1    2    0    0  0.50964216159E+00  0.11583226438E+02 -0.41908142082E+03  0.41924177767E+03  0.00000000000E+00 0.  1.
        -15    1    1    2    0    0  0.15401361973E+01 -0.94798129585E+01 -0.38120183024E+02  0.39351555954E+02  0.17770000000E+01 0.  1.
         15    1    1    2    0    0  0.97911220341E+01 -0.42763582899E+01 -0.41332080579E+02  0.42727648249E+02  0.17770000000E+01 0. -1.
</event>
<event>
 6    1  0.6564965E-004  0.5000456E+03  0.7546771E-02  0.9399708E-01
        -11   -1    0    0    0    0  0.00000000000E+00  0.00000000000E+00  0.50000000000E+03  0.50000000000E+03  0.00000000000E+00 0.  1.
         11   -1    0    0    0    0 -0.00000000000E+00 -0.00000000000E+00 -0.50000000000E+03  0.50000000000E+03  0.00000000000E+00 0.  1.
        -11    1    1    2    0    0 -0.59444429672E+01 -0.95280620564E+00  0.22334540201E+03  0.22342652671E+03  0.00000000000E+00 0.  1.
         11    1    1    2    0    0  0.74136703367E+01 -0.10999525445E+00 -0.49989945552E+03  0.49995443816E+03  0.00000000000E+00 0.  1.
        -15    1    1    2    0    0 -0.48348762306E+00 -0.17394177163E+01  0.11459280455E+03  0.11462080055E+03  0.17770000000E+01 0. -1.
         15    1    1    2    0    0 -0.98573974648E+00  0.28022191764E+01  0.16196124895E+03  0.16199823458E+03  0.17770000000E+01 0.  1.
</event>
<event>
 6    1  0.6564965E-004  0.5010226E+03  0.7546771E-02  0.9397524E-01
        -11   -1    0    0    0    0  0.00000000000E+00  0.00000000000E+00  0.50000000000E+03  0.50000000000E+03  0.00000000000E+00 0.  1.
         11   -1    0    0    0    0 -0.00000000000E+00 -0.00000000000E+00 -0.50000000000E+03  0.50000000000E+03  0.00000000000E+00 0.  1.
        -11    1    1    2    0    0  0.29177373366E+01 -0.73180555427E+01  0.49891517407E+03  0.49897737228E+03  0.00000000000E+00 0.  1.
         11    1    1    2    0    0 -0.28741560001E+01 -0.66828327706E+01 -0.43874037297E+03  0.43880067901E+03  0.00000000000E+00 0.  1.
        -15    1    1    2    0    0 -0.18910818463E+01  0.11800177759E+02 -0.40670479694E+02  0.42427185073E+02  0.17770000000E+01 0. -1.
         15    1    1    2    0    0  0.18475005098E+01  0.22007105548E+01 -0.19504321403E+02  0.19794763638E+02  0.17770000000E+01 0.  1.
</event>
<event>
 6    1  0.6564965E-004  0.5006731E+03  0.7546771E-02  0.9398305E-01
        -11   -1    0    0    0    0  0.00000000000E+00  0.00000000000E+00  0.50000000000E+03  0.50000000000E+03  0.00000000000E+00 0. -1.
         11   -1    0    0    0    0 -0.00000000000E+00 -0.00000000000E+00 -0.50000000000E+03  0.50000000000E+03  0.00000000000E+00 0. -1.
        -11    1    1    2    0    0 -0.26051471607E+02 -0.67291861832E+01  0.49860143650E+03  0.49932690054E+03  0.00000000000E+00 0. -1.
         11    1    1    2    0    0  0.24076185209E+02  0.10557288803E+02 -0.46317766735E+03  0.46392313002E+03  0.00000000000E+00 0. -1.
        -15    1    1    2    0    0  0.25954737820E+01  0.19537094212E+01 -0.13521118415E+02  0.14018981306E+02  0.17770000000E+01 0.  1.
         15    1    1    2    0    0 -0.62018738439E+00 -0.57818120408E+01 -0.21902650741E+02  0.22730988129E+02  0.17770000000E+01 0. -1.
</event>
<event>
 6    1  0.6564965E-004  0.5000705E+03  0.7546771E-02  0.9399652E-01
        -11   -1    0    0    0    0  0.00000000000E+00  0.00000000000E+00  0.50000000000E+03  0.50000000000E+03  0.00000000000E+00 0.  1.
         11   -1    0    0    0    0 -0.00000000000E+00 -0.00000000000E+00 -0.50000000000E+03  0.50000000000E+03  0.00000000000E+00 0. -1.
        -11    1    1    2    0    0  0.69787609202E+00 -0.26591487458E+01  0.67556242841E+02  0.67612159039E+02  0.00000000000E+00 0.  1.
         11    1    1    2    0    0  0.81326463528E+01  0.35189454524E+01 -0.49985091674E+03  0.49992945691E+03  0.00000000000E+00 0. -1.
        -15    1    1    2    0    0 -0.85793664703E+01 -0.26228936652E+01  0.36983389511E+03  0.36994695945E+03  0.17770000000E+01 0.  1.
         15    1    1    2    0    0 -0.25115597449E+00  0.17630969585E+01  0.62460778789E+02  0.62511424605E+02  0.17770000000E+01 0.  1.
</event>
<event>
 6    1  0.6564965E-004  0.5023267E+03  0.7546771E-02  0.9394619E-01
        -11   -1    0    0    0    0  0.00000000000E+00  0.00000000000E+00  0.50000000000E+03  0.50000000000E+03  0.00000000000E+00 0. -1.
         11   -1    0    0    0    0 -0.00000000000E+00 -0.00000000000E+00 -0.50000000000E+03  0.50000000000E+03  0.00000000000E+00 0. -1.
        -11    1    1    2    0    0  0.14772335182E+02  0.77406278368E+01  0.42492900832E+03  0.42525615965E+03  0.00000000000E+00 0. -1.
         11    1    1    2    0    0 -0.80962869995E+01 -0.26596474894E+01 -0.49760037500E+03  0.49767334345E+03  0.00000000000E+00 0. -1.
        -15    1    1    2    0    0 -0.10985870073E+02 -0.70997181180E+01  0.70183094097E+02  0.71413722524E+02  0.17770000000E+01 0. -1.
         15    1    1    2    0    0  0.43098218901E+01  0.20187377706E+01  0.24882725814E+01  0.56567743768E+01  0.17770000000E+01 0.  1.
</event>
<event>
 6    1  0.6564965E-004  0.5027525E+03  0.7546771E-02  0.9393672E-01
        -11   -1    0    0    0    0  0.00000000000E+00  0.00000000000E+00  0.50000000000E+03  0.50000000000E+03  0.00000000000E+00 0. -1.
         11   -1    0    0    0    0 -0.00000000000E+00 -0.00000000000E+00 -0.50000000000E+03  0.50000000000E+03  0.00000000000E+00 0. -1.
        -11    1    1    2    0    0 -0.22202471762E+01  0.21596867480E+02  0.49677332641E+03  0.49724751584E+03  0.00000000000E+00 0. -1.
         11    1    1    2    0    0  0.10389352795E+02  0.33033111741E+01 -0.32899986889E+03  0.32918044329E+03  0.00000000000E+00 0. -1.
        -15    1    1    2    0    0 -0.21308303036E+02 -0.17704330951E+02 -0.84501114213E+02  0.88944269882E+02  0.17770000000E+01 0.  1.
         15    1    1    2    0    0  0.13139197417E+02 -0.71958477028E+01 -0.83272343308E+02  0.84627770985E+02  0.17770000000E+01 0. -1.
</event>
<event>
 6    1  0.6564965E-004  0.5007685E+03  0.7546771E-02  0.9398092E-01
        -11   -1    0    0    0    0  0.00000000000E+00  0.00000000000E+00  0.50000000000E+03  0.50000000000E+03  0.00000000000E+00 0.  1.
         11   -1    0    0    0    0 -0.00000000000E+00 -0.00000000000E+00 -0.50000000000E+03  0.50000000000E+03  0.00000000000E+00 0.  1.
        -11    1    1    2    0    0 -0.37805673186E+01 -0.92110702543E+01  0.49913219876E+03  0.49923149775E+03  0.00000000000E+00 0.  1.
         11    1    1    2    0    0 -0.56337617281E+01 -0.21664833969E+01 -0.42192525887E+03  0.42196843128E+03  0.00000000000E+00 0.  1.
        -15    1    1    2    0    0  0.88393865886E+01  0.97425926249E+01 -0.64073175427E+02  0.65433801698E+02  0.17770000000E+01 0. -1.
         15    1    1    2    0    0  0.57494245805E+00  0.16349610263E+01 -0.13133764461E+02  0.13366269274E+02  0.17770000000E+01 0.  1.
</event>
<event>
 6    1  0.6564965E-004  0.5025819E+03  0.7546771E-02  0.9394051E-01
        -11   -1    0    0    0    0  0.00000000000E+00  0.00000000000E+00  0.50000000000E+03  0.50000000000E+03  0.00000000000E+00 0.  1.
         11   -1    0    0    0    0 -0.00000000000E+00 -0.00000000000E+00 -0.50000000000E+03  0.50000000000E+03  0.00000000000E+00 0. -1.
        -11    1    1    2    0    0  0.27846179277E+02  0.85308418009E+01  0.49656479982E+03  0.49741811928E+03  0.00000000000E+00 0.  1.
         11    1    1    2    0    0 -0.32713109627E+01  0.16513659829E+02 -0.37364248575E+03  0.37402153627E+03  0.00000000000E+00 0. -1.
        -15    1    1    2    0    0 -0.21361209926E+02 -0.17098847224E+02 -0.75222886323E+02  0.80064425444E+02  0.17770000000E+01 0.  1.
         15    1    1    2    0    0 -0.32136583880E+01 -0.79456544061E+01 -0.47699427747E+02  0.48495919010E+02  0.17770000000E+01 0. -1.
</event>
<event>
 6    1  0.6564965E-004  0.5005739E+03  0.7546771E-02  0.9398526E-01
        -11   -1    0    0    0    0  0.00000000000E+00  0.00000000000E+00  0.50000000000E+03  0.50000000000E+03  0.00000000000E+00 0. -1.
         11   -1    0    0    0    0 -0.00000000000E+00 -0.00000000000E+00 -0.50000000000E+03  0.50000000000E+03  0.00000000000E+00 0.  1.
        -11    1    1    2    0    0 -0.14476303452E+02 -0.11812147748E+02  0.18896767853E+03  0.18988910902E+03  0.00000000000E+00 0. -1.
         11    1    1    2    0    0  0.10082969484E+02 -0.49200343141E-01 -0.49932428049E+03  0.49942607639E+03  0.00000000000E+00 0.  1.
        -15    1    1    2    0    0  0.21402534564E+01  0.95450602295E+00  0.76289261684E+02  0.76345929452E+02  0.17770000000E+01 0. -1.
         15    1    1    2    0    0  0.22530805114E+01  0.10906842069E+02  0.23406734027E+03  0.23433888514E+03  0.17770000000E+01 0. -1.
</event>
<event>
 6    1  0.6564965E-004  0.5005077E+03  0.7546771E-02  0.9398674E-01
        -11   -1    0    0    0    0  0.00000000000E+00  0.00000000000E+00  0.50000000000E+03  0.50000000000E+03  0.00000000000E+00 0.  1.
         11   -1    0    0    0    0 -0.00000000000E+00 -0.00000000000E+00 -0.50000000000E+03  0.50000000000E+03  0.00000000000E+00 0.  1.
        -11    1    1    2    0    0 -0.64714569322E+01 -0.70403877675E+01  0.49940078342E+03  0.49949233157E+03  0.00000000000E+00 0.  1.
         11    1    1    2    0    0  0.80979035128E+01  0.14013681083E+01 -0.41993090708E+03  0.42001131723E+03  0.00000000000E+00 0.  1.
        -15    1    1    2    0    0 -0.36118371874E+01 -0.20021834101E+01 -0.36000556907E+02  0.36280186505E+02  0.17770000000E+01 0.  1.
         15    1    1    2    0    0  0.19853906067E+01  0.76412030693E+01 -0.43469319429E+02  0.44216164701E+02  0.17770000000E+01 0. -1.
</event>
<event>
 6    1  0.6564965E-004  0.5069349E+03  0.7546771E-02  0.9384425E-01
        -11   -1    0    0    0    0  0.00000000000E+00  0.00000000000E+00  0.50000000000E+03  0.50000000000E+03  0.00000000000E+00 0. -1.
         11   -1    0    0    0    0 -0.00000000000E+00 -0.00000000000E+00 -0.50000000000E+03  0.50000000000E+03  0.00000000000E+00 0.  1.
        -11    1    1    2    0    0  0.25397153301E+02  0.50753218585E+02  0.13837310395E+03  0.14955942126E+03  0.00000000000E+00 0. -1.
         11    1    1    2    0    0 -0.30198867881E+02 -0.17648330290E+02 -0.49182287284E+03  0.49306508032E+03  0.00000000000E+00 0.  1.
        -15    1    1    2    0    0  0.19604619950E+02 -0.68321087167E+01  0.19169529585E+03  0.19282443572E+03  0.17770000000E+01 0. -1.
         15    1    1    2    0    0 -0.14802905370E+02 -0.26272779578E+02  0.16175447304E+03  0.16455106269E+03  0.17770000000E+01 0.  1.
</event>
<event>
 6    1  0.6564965E-004  0.5026450E+03  0.7546771E-02  0.9393911E-01
        -11   -1    0    0    0    0  0.00000000000E+00  0.00000000000E+00  0.50000000000E+03  0.50000000000E+03  0.00000000000E+00 0. -1.
         11   -1    0    0    0    0 -0.00000000000E+00 -0.00000000000E+00 -0.50000000000E+03  0.50000000000E+03  0.00000000000E+00 0. -1.
        -11    1    1    2    0    0 -0.76366461689E+01 -0.86752616845E+01  0.38702604655E+03  0.38719857856E+03  0.00000000000E+00 0. -1.
         11    1    1    2    0    0  0.10213283544E+02 -0.15257710793E+02 -0.49701593935E+03  0.49735495661E+03  0.00000000000E+00 0. -1.
        -15    1    1    2    0    0 -0.11930275191E+02  0.97278552291E+01  0.73939081122E+02  0.75545404093E+02  0.17770000000E+01 0.  1.
         15    1    1    2    0    0  0.93536378161E+01  0.14205117249E+02  0.36050811672E+02  0.39901060733E+02  0.17770000000E+01 0. -1.
</event>
<event>
 6    1  0.6564965E-004  0.5001972E+03  0.7546771E-02  0.9399368E-01
        -11   -1    0    0    0    0  0.00000000000E+00  0.00000000000E+00  0.50000000000E+03  0.50000000000E+03  0.00000000000E+00 0.  1.
         11   -1    0    0    0    0 -0.00000000000E+00 -0.00000000000E+00 -0.50000000000E+03  0.50000000000E+03  0.00000000000E+00 0. -1.
        -11    1    1    2    0    0  0.14318776688E+02  0.15974911800E+01  0.49959505190E+03  0.49980275632E+03  0.00000000000E+00 0.  1.
         11    1    1    2    0    0  0.26053198202E+01 -0.35367565939E+01 -0.17766837187E+03  0.17772266794E+03  0.00000000000E+00 0. -1.
        -15    1    1    2    0    0 -0.16090327038E+02  0.40040721901E+00 -0.26614883565E+03  0.26664099347E+03  0.17770000000E+01 0.  1.
         15    1    1    2    0    0 -0.83376946991E+00  0.15388581948E+01 -0.55777844381E+02  0.55833582268E+02  0.17770000000E+01 0. -1.
</event>
<event>
 6    1  0.6564965E-004  0.5012155E+03  0.7546771E-02  0.9397094E-01
        -11   -1    0    0    0    0  0.00000000000E+00  0.00000000000E+00  0.50000000000E+03  0.50000000000E+03  0.00000000000E+00 0.  1.
         11   -1    0    0    0    0 -0.00000000000E+00 -0.00000000000E+00 -0.50000000000E+03  0.50000000000E+03  0.00000000000E+00 0. -1.
        -11    1    1    2    0    0 -0.12660480174E+02  0.73910660833E+01  0.35999915795E+03  0.36029752891E+03  0.00000000000E+00 0.  1.
         11    1    1    2    0    0 -0.20934537983E+01  0.99601214530E+01 -0.49868069586E+03  0.49878454567E+03  0.00000000000E+00 0. -1.
        -15    1    1    2    0    0 -0.79920512446E+00 -0.94309377389E+00  0.82316586343E+01  0.85115267472E+01  0.17770000000E+01 0. -1.
         15    1    1    2    0    0  0.15553139097E+02 -0.16408093762E+02  0.13044987928E+03  0.13240639868E+03  0.17770000000E+01 0.  1.
</event>
<event>
 6    1  0.6564965E-004  0.5057903E+03  0.7546771E-02  0.9386946E-01
        -11   -1    0    0    0    0  0.00000000000E+00  0.00000000000E+00  0.50000000000E+03  0.50000000000E+03  0.00000000000E+00 0.  1.
         11   -1    0    0    0    0 -0.00000000000E+00 -0.00000000000E+00 -0.50000000000E+03  0.50000000000E+03  0.00000000000E+00 0. -1.
        -11    1    1    2    0    0  0.20758733931E+02  0.15129806873E+02  0.33774914727E+02  0.42433252942E+02  0.00000000000E+00 0.  1.
         11    1    1    2    0    0  0.42679856262E+01  0.80724786669E+01 -0.49412537840E+03  0.49420974312E+03  0.00000000000E+00 0. -1.
        -15    1    1    2    0    0 -0.12881014638E+01 -0.54745928865E+00  0.47808969235E+00  0.23119722766E+01  0.17770000000E+01 0.  1.
         15    1    1    2    0    0 -0.23738618093E+02 -0.22654826251E+02  0.45987237398E+03  0.46104503166E+03  0.17770000000E+01 0.  1.
</event>
<event>
 6    1  0.6564965E-004  0.4904700E+03  0.7546771E-02  0.9421390E-01
        -11   -1    0    0    0    0  0.00000000000E+00  0.00000000000E+00  0.50000000000E+03  0.50000000000E+03  0.00000000000E+00 0. -1.
         11   -1    0    0    0    0 -0.00000000000E+00 -0.00000000000E+00 -0.50000000000E+03  0.50000000000E+03  0.00000000000E+00 0. -1.
        -11    1    1    2    0    0  0.78273158430E+01 -0.64114125678E+01  0.48995408196E+03  0.49005854294E+03  0.00000000000E+00 0. -1.
         11    1    1    2    0    0 -0.59716701273E+01 -0.71806089154E+01 -0.49088904507E+03  0.49097787787E+03  0.00000000000E+00 0. -1.
        -15    1    1    2    0    0 -0.49519052454E+01  0.97453088090E+01 -0.39850913861E+01  0.11769923181E+02  0.17770000000E+01 0.  1.
         15    1    1    2    0    0  0.30962595297E+01  0.38467126742E+01  0.49200544989E+01  0.71936560069E+01  0.17770000000E+01 0. -1.
</event>
<event>
 6    1  0.6564965E-004  0.5029936E+03  0.7546771E-02  0.9393136E-01
        -11   -1    0    0    0    0  0.00000000000E+00  0.00000000000E+00  0.50000000000E+03  0.50000000000E+03  0.00000000000E+00 0.  1.
         11   -1    0    0    0    0 -0.00000000000E+00 -0.00000000000E+00 -0.50000000000E+03  0.50000000000E+03  0.00000000000E+00 0. -1.
        -11    1    1    2    0    0  0.14566722467E+02  0.15717589693E+01  0.43526239774E+03  0.43550891462E+03  0.00000000000E+00 0.  1.
         11    1    1    2    0    0 -0.33454075695E+01  0.70588524049E+01 -0.49694497275E+03  0.49700636323E+03  0.00000000000E+00 0. -1.
        -15    1    1    2    0    0  0.14755673675E+01  0.20809936675E+01 -0.45354392269E+00  0.31418569016E+01  0.17770000000E+01 0. -1.
         15    1    1    2    0    0 -0.12696882265E+02 -0.10711605042E+02  0.62136118941E+02  0.64342865244E+02  0.17770000000E+01 0.  1.
</event>
<event>
 6    1  0.6564965E-004  0.5019924E+03  0.7546771E-02  0.9395363E-01
        -11   -1    0    0    0    0  0.00000000000E+00  0.00000000000E+00  0.50000000000E+03  0.50000000000E+03  0.00000000000E+00 0. -1.
         11   -1    0    0    0    0 -0.00000000000E+00 -0.00000000000E+00 -0.50000000000E+03  0.50000000000E+03  0.00000000000E+00 0. -1.
        -11    1    1    2    0    0  0.96745096716E+01 -0.16146146341E+02  0.37186689044E+03  0.37234295801E+03  0.00000000000E+00 0. -1.
         11    1    1    2    0    0 -0.58342285298E+01 -0.45385870857E+01 -0.49795274946E+03  0.49800760807E+03  0.00000000000E+00 0. -1.
        -15    1    1    2    0    0  0.72546882088E+00  0.11319457532E+02  0.20179262528E+02  0.23216735106E+02  0.17770000000E+01 0. -1.
         15    1    1    2    0    0 -0.45657499627E+01  0.93652758949E+01  0.10590659650E+03  0.10643269881E+03  0.17770000000E+01 0.  1.
</event>
<event>
 6    1  0.6564965E-004  0.5001933E+03  0.7546771E-02  0.9399377E-01
        -11   -1    0    0    0    0  0.00000000000E+00  0.00000000000E+00  0.50000000000E+03  0.50000000000E+03  0.00000000000E+00 0.  1.
         11   -1    0    0    0    0 -0.00000000000E+00 -0.00000000000E+00 -0.50000000000E+03  0.50000000000E+03  0.00000000000E+00 0.  1.
        -11    1    1    2    0    0  0.33135121476E+01 -0.18928741650E+02  0.49943712429E+03  0.49980668037E+03  0.00000000000E+00 0.  1.
         11    1    1    2    0    0 -0.13931370478E+01  0.35873924548E+01 -0.10647175917E+03  0.10654128644E+03  0.00000000000E+00 0.  1.
        -15    1    1    2    0    0 -0.69944427126E+01  0.16019470895E+01 -0.19380636280E+03  0.19394729298E+03  0.17770000000E+01 0.  1.
         15    1    1    2    0    0  0.50740676127E+01  0.13739402106E+02 -0.19915900232E+03  0.19970474022E+03  0.17770000000E+01 0.  1.
</event>
<event>
 6    1  0.6564965E-004  0.5014576E+03  0.7546771E-02  0.9396554E-01
        -11   -1    0    0    0    0  0.00000000000E+00  0.00000000000E+00  0.50000000000E+03  0.50000000000E+03  0.00000000000E+00 0.  1.
         11   -1    0    0    0    0 -0.00000000000E+00 -0.00000000000E+00 -0.50000000000E+03  0.50000000000E+03  0.00000000000E+00 0.  1.
        -11    1    1    2    0    0  0.23071587573E+02 -0.14034876738E+01  0.12766628622E+03  0.12974185358E+03  0.00000000000E+00 0.  1.
         11    1    1    2    0    0 -0.96521065398E+01  0.33472977272E+01 -0.49843769637E+03  0.49854238007E+03  0.00000000000E+00 0.  1.
        -15    1    1    2    0    0 -0.90950283387E+01  0.41975561309E+01  0.60575169440E+02  0.61423512596E+02  0.17770000000E+01 0.  1.
         15    1    1    2    0    0 -0.43244526942E+01 -0.61413661842E+01  0.31019624070E+03  0.31029225376E+03  0.17770000000E+01 0. -1.
</event>
<event>
 6    1  0.6564965E-004  0.5003602E+03  0.7546771E-02  0.9399004E-01
        -11   -1    0    0    0    0  0.00000000000E+00  0.00000000000E+00  0.50000000000E+03  0.50000000000E+03  0.00000000000E+00 0.  1.
         11   -1    0    0    0    0 -0.00000000000E+00 -0.00000000000E+00 -0.50000000000E+03  0.50000000000E+03  0.00000000000E+00 0. -1.
        -11    1    1    2    0    0 -0.67823699387E+01 -0.67095574304E+01  0.61257661590E+02  0.61996127350E+02  0.00000000000E+00 0.  1.
         11    1    1    2    0    0  0.11700079085E+02  0.14026182131E+01 -0.49950084959E+03  0.49963982821E+03  0.00000000000E+00 0. -1.
        -15    1    1    2    0    0 -0.61991297762E+01  0.39786916242E+01  0.29137149734E+03  0.29147000941E+03  0.17770000000E+01 0.  1.
         15    1    1    2    0    0  0.12814206295E+01  0.13282475931E+01  0.14687169066E+03  0.14689403503E+03  0.17770000000E+01 0.  1.
</event>
<event>
 6    1  0.6564965E-004  0.5005822E+03  0.7546771E-02  0.9398508E-01
        -11   -1    0    0    0    0  0.00000000000E+00  0.00000000000E+00  0.50000000000E+03  0.50000000000E+03  0.00000000000E+00 0. -1.
         11   -1    0    0    0    0 -0.00000000000E+00 -0.00000000000E+00 -0.50000000000E+03  0.50000000000E+03  0.00000000000E+00 0. -1.
        -11    1    1    2    0    0 -0.23446088599E+02 -0.20938423224E+02  0.26534497108E+03  0.26720046841E+03  0.00000000000E+00 0. -1.
         11    1    1    2    0    0  0.18836411398E+02  0.21270576756E+02 -0.49860890863E+03  0.49941775258E+03  0.00000000000E+00 0. -1.
        -15    1    1    2    0    0  0.19602600929E+01  0.16517562494E-01  0.18103971991E+03  0.18105905337E+03  0.17770000000E+01 0. -1.
         15    1    1    2    0    0  0.26494171083E+01 -0.34867109416E+00  0.52224217629E+02  0.52322725641E+02  0.17770000000E+01 0.  1.
</event>
<event>
 6    1  0.6564965E-004  0.5005449E+03  0.7546771E-02  0.9398591E-01
        -11   -1    0    0    0    0  0.00000000000E+00  0.00000000000E+00  0.50000000000E+03  0.50000000000E+03  0.00000000000E+00 0.  1.
         11   -1    0    0    0    0 -0.00000000000E+00 -0.00000000000E+00 -0.50000000000E+03  0.50000000000E+03  0.00000000000E+00 0.  1.
        -11    1    1    2    0    0 -0.14297203365E+01  0.15271637943E+02  0.49921955163E+03  0.49945513087E+03  0.00000000000E+00 0.  1.
         11    1    1    2    0    0 -0.47166319121E+01  0.31660496366E+00 -0.31770345750E+03  0.31773862492E+03  0.00000000000E+00 0.  1.
        -15    1    1    2    0    0  0.28324258664E+01 -0.64259564199E+01 -0.13745674014E+03  0.13764747978E+03  0.17770000000E+01 0.  1.
         15    1    1    2    0    0  0.33139263822E+01 -0.91622864864E+01 -0.44059353994E+02  0.45158764433E+02  0.17770000000E+01 0. -1.
</event>
<event>
 6    1  0.6564965E-004  0.5034815E+03  0.7546771E-02  0.9392053E-01
        -11   -1    0    0    0    0  0.00000000000E+00  0.00000000000E+00  0.50000000000E+03  0.50000000000E+03  0.00000000000E+00 0.  1.
         11   -1    0    0    0    0 -0.00000000000E+00 -0.00000000000E+00 -0.50000000000E+03  0.50000000000E+03  0.00000000000E+00 0. -1.
        -11    1    1    2    0    0 -0.14451198592E+02  0.25421668954E+01  0.40608603608E+03  0.40635104092E+03  0.00000000000E+00 0.  1.
         11    1    1    2    0    0 -0.15185682638E+02  0.73979715266E+01 -0.49623103151E+03  0.49651845039E+03  0.00000000000E+00 0. -1.
        -15    1    1    2    0    0  0.86291723147E+01 -0.69105976613E+01  0.54236746802E+02  0.55380514692E+02  0.17770000000E+01 0. -1.
         15    1    1    2    0    0  0.21007708915E+02 -0.30295407607E+01  0.35908248624E+02  0.41749994004E+02  0.17770000000E+01 0.  1.
</event>
<event>
 6    1  0.6564965E-004  0.5025375E+03  0.7546771E-02  0.9394150E-01
        -11   -1    0    0    0    0  0.00000000000E+00  0.00000000000E+00  0.50000000000E+03  0.50000000000E+03  0.00000000000E+00 0.  1.
         11   -1    0    0    0    0 -0.00000000000E+00 -0.00000000000E+00 -0.50000000000E+03  0.50000000000E+03  0.00000000000E+00 0. -1.
        -11    1    1    2    0    0 -0.69630074904E+00 -0.86475854242E+01  0.48423576035E+03  0.48431346995E+03  0.00000000000E+00 0.  1.
         11    1    1    2    0    0  0.97367435122E+01  0.20380245205E+01 -0.49736300856E+03  0.49746248100E+03  0.00000000000E+00 0. -1.
        -15    1    1    2    0    0 -0.23471239457E+01  0.28115534731E+01  0.18885727197E+01  0.44875672325E+01  0.17770000000E+01 0. -1.
         15    1    1    2    0    0 -0.66933188174E+01  0.37980074306E+01  0.11238675484E+02  0.13736481823E+02  0.17770000000E+01 0.  1.
</event>
<event>
 6    1  0.6564965E-004  0.5026484E+03  0.7546771E-02  0.9393903E-01
        -11   -1    0    0    0    0  0.00000000000E+00  0.00000000000E+00  0.50000000000E+03  0.50000000000E+03  0.00000000000E+00 0. -1.
         11   -1    0    0    0    0 -0.00000000000E+00 -0.00000000000E+00 -0.50000000000E+03  0.50000000000E+03  0.00000000000E+00 0.  1.
        -11    1    1    2    0    0 -0.73864345846E+01 -0.18735082467E+02  0.49694370663E+03  0.49735159624E+03  0.00000000000E+00 0. -1.
         11    1    1    2    0    0 -0.12774520757E+02  0.36419761717E+01 -0.41091114634E+03  0.41112579895E+03  0.00000000000E+00 0.  1.
        -15    1    1    2    0    0  0.10732936042E+02  0.16220904598E+02 -0.40332710169E+02  0.44812932293E+02  0.17770000000E+01 0.  1.
         15    1    1    2    0    0  0.94280193004E+01 -0.11277983029E+01 -0.45699850115E+02  0.46709672515E+02  0.17770000000E+01 0. -1.
</event>
<event>
 6    1  0.6564965E-004  0.5001492E+03  0.7546771E-02  0.9399476E-01
        -11   -1    0    0    0    0  0.00000000000E+00  0.00000000000E+00  0.50000000000E+03  0.50000000000E+03  0.00000000000E+00 0.  1.
         11   -1    0    0    0    0 -0.00000000000E+00 -0.00000000000E+00 -0.50000000000E+03  0.50000000000E+03  0.00000000000E+00 0. -1.
        -11    1    1    2    0    0 -0.40305587359E+01  0.27109960971E+01  0.33778447838E+03  0.33781940255E+03  0.00000000000E+00 0.  1.
         11    1    1    2    0    0  0.53016491080E+01  0.47027494800E+01 -0.49980052639E+03  0.49985076724E+03  0.00000000000E+00 0. -1.
        -15    1    1    2    0    0 -0.20229564098E+01 -0.68428072118E+01  0.14641591955E+03  0.14660046244E+03  0.17770000000E+01 0.  1.
         15    1    1    2    0    0  0.75186603770E+00 -0.57093836537E+00  0.15600128467E+02  0.15729367766E+02  0.17770000000E+01 0.  1.
</event>
<event>
 6    1  0.6564965E-004  0.5144224E+03  0.7546771E-02  0.9368104E-01
        -11   -1    0    0    0    0  0.00000000000E+00  0.00000000000E+00  0.50000000000E+03  0.50000000000E+03  0.00000000000E+00 0.  1.
         11   -1    0    0    0    0 -0.00000000000E+00 -0.00000000000E+00 -0.50000000000E+03  0.50000000000E+03  0.00000000000E+00 0. -1.
        -11    1    1    2    0    0 -0.19250462471E+01  0.57526145952E+02  0.38110349346E+03  0.38542552588E+03  0.00000000000E+00 0.  1.
         11    1    1    2    0    0  0.13907698312E+01 -0.74539977378E+01 -0.48551839395E+03  0.48557760161E+03  0.00000000000E+00 0. -1.
        -15    1    1    2    0    0 -0.57934449743E+00  0.15152907080E+01 -0.63496734959E+01  0.67902745512E+01  0.17770000000E+01 0. -1.
         15    1    1    2    0    0  0.11136209133E+01 -0.51587438922E+02  0.11076457399E+03  0.12220659796E+03  0.17770000000E+01 0. -1.
</event>
<event>
 6    1  0.6564965E-004  0.4874746E+03  0.7546771E-02  0.9428281E-01
        -11   -1    0    0    0    0  0.00000000000E+00  0.00000000000E+00  0.50000000000E+03  0.50000000000E+03  0.00000000000E+00 0.  1.
         11   -1    0    0    0    0 -0.00000000000E+00 -0.00000000000E+00 -0.50000000000E+03  0.50000000000E+03  0.00000000000E+00 0. -1.
        -11    1    1    2    0    0 -0.79459357012E+01  0.39613060055E+01  0.48632357516E+03  0.48640461511E+03  0.00000000000E+00 0.  1.
         11    1    1    2    0    0  0.22560245002E+01 -0.76915336198E+01 -0.48850499035E+03  0.48857074711E+03  0.00000000000E+00 0. -1.
        -15    1    1    2    0    0  0.94300686293E+01 -0.43982284008E+01 -0.65286932908E+01  0.12411775558E+02  0.17770000000E+01 0.  1.
         15    1    1    2    0    0 -0.37401574283E+01  0.81284560150E+01  0.87101084753E+01  0.12612862222E+02  0.17770000000E+01 0. -1.
</event>
<event>
 6    1  0.6564965E-004  0.5001204E+03  0.7546771E-02  0.9399540E-01
        -11   -1    0    0    0    0  0.00000000000E+00  0.00000000000E+00  0.50000000000E+03  0.50000000000E+03  0.00000000000E+00 0. -1.
         11   -1    0    0    0    0 -0.00000000000E+00 -0.00000000000E+00 -0.50000000000E+03  0.50000000000E+03  0.00000000000E+00 0.  1.
        -11    1    1    2    0    0 -0.41970719826E+01 -0.59665993229E+01  0.81126811363E+02  0.81454129684E+02  0.00000000000E+00 0. -1.
         11    1    1    2    0    0  0.14974703805E+02  0.54306015725E+01 -0.49962572840E+03  0.49987958716E+03  0.00000000000E+00 0.  1.
        -15    1    1    2    0    0 -0.20906940799E+01  0.10871119252E+01  0.10740263684E+03  0.10744318006E+03  0.17770000000E+01 0. -1.
         15    1    1    2    0    0 -0.86869377422E+01 -0.55111417480E+00  0.31109628020E+03  0.31122310309E+03  0.17770000000E+01 0. -1.
</event>
<event>
 6    1  0.6564965E-004  0.5034479E+03  0.7546771E-02  0.9392128E-01
        -11   -1    0    0    0    0  0.00000000000E+00  0.00000000000E+00  0.50000000000E+03  0.50000000000E+03  0.00000000000E+00 0.  1.
         11   -1    0    0    0    0 -0.00000000000E+00 -0.00000000000E+00 -0.50000000000E+03  0.50000000000E+03  0.00000000000E+00 0.  1.
        -11    1    1    2    0    0 -0.82688951184E+01  0.20153594806E+01  0.49647915989E+03  0.49655210452E+03  0.00000000000E+00 0.  1.
         11    1    1    2    0    0  0.65475009986E+01  0.42396563869E+00 -0.48484830998E+03  0.48489270278E+03  0.00000000000E+00 0.  1.
        -15    1    1    2    0    0 -0.35749240587E+01  0.29409828220E+01 -0.91584142866E+01  0.10414592802E+02  0.17770000000E+01 0. -1.
         15    1    1    2    0    0  0.52963181785E+01 -0.53803079413E+01 -0.24724356167E+01  0.81405998963E+01  0.17770000000E+01 0.  1.
</event>
<event>
 6    1  0.6564965E-004  0.5017440E+03  0.7546771E-02  0.9395916E-01
        -11   -1    0    0    0    0  0.00000000000E+00  0.00000000000E+00  0.50000000000E+03  0.50000000000E+03  0.00000000000E+00 0.  1.
         11   -1    0    0    0    0 -0.00000000000E+00 -0.00000000000E+00 -0.50000000000E+03  0.50000000000E+03  0.00000000000E+00 0.  1.
        -11    1    1    2    0    0  0.16223246114E+02 -0.10376975476E+01  0.47756126022E+03  0.47783786769E+03  0.00000000000E+00 0.  1.
         11    1    1    2    0    0 -0.95675403067E+01  0.41064443326E+01 -0.49814721634E+03  0.49825600835E+03  0.00000000000E+00 0.  1.
        -15    1    1    2    0    0 -0.28905085270E+01 -0.40532448434E+01  0.36142089469E+01  0.64034419351E+01  0.17770000000E+01 0.  1.
         15    1    1    2    0    0 -0.37651972807E+01  0.98449805835E+00  0.16971747171E+02  0.17502682024E+02  0.17770000000E+01 0. -1.
</event>
<event>
 6    1  0.6564965E-004  0.5046507E+03  0.7546771E-02  0.9389463E-01
        -11   -1    0    0    0    0  0.00000000000E+00  0.00000000000E+00  0.50000000000E+03  0.50000000000E+03  0.00000000000E+00 0.  1.
         11   -1    0    0    0    0 -0.00000000000E+00 -0.00000000000E+00 -0.50000000000E+03  0.50000000000E+03  0.00000000000E+00 0.  1.
        -11    1    1    2    0    0  0.37436107794E+01  0.99191436296E+01  0.49523580499E+03  0.49534927735E+03  0.00000000000E+00 0.  1.
         11    1    1    2    0    0  0.71906224069E+01 -0.31302199849E+01 -0.46070199606E+03  0.46076874080E+03  0.00000000000E+00 0.  1.
        -15    1    1    2    0    0 -0.83094675690E+01 -0.23496010585E+01  0.10446552184E+00  0.88168315431E+01  0.17770000000E+01 0.  1.
         15    1    1    2    0    0 -0.26247656173E+01 -0.44393225863E+01 -0.34638274450E+02  0.35065150298E+02  0.17770000000E+01 0. -1.
</event>
<event>
 6    1  0.6564965E-004  0.5002717E+03  0.7546771E-02  0.9399202E-01
        -11   -1    0    0    0    0  0.00000000000E+00  0.00000000000E+00  0.50000000000E+03  0.50000000000E+03  0.00000000000E+00 0.  1.
         11   -1    0    0    0    0 -0.00000000000E+00 -0.00000000000E+00 -0.50000000000E+03  0.50000000000E+03  0.00000000000E+00 0. -1.
        -11    1    1    2    0    0 -0.40129535768E+01 -0.16027261536E+02  0.36027444062E+03  0.36065308743E+03  0.00000000000E+00 0.  1.
         11    1    1    2    0    0 -0.48052160159E+01  0.17839449907E+02 -0.49938668530E+03  0.49972832372E+03  0.00000000000E+00 0. -1.
        -15    1    1    2    0    0  0.34072120292E+01  0.20403437288E+00  0.96878495122E+02  0.96954892965E+02  0.17770000000E+01 0. -1.
         15    1    1    2    0    0  0.54109575635E+01 -0.20162227437E+01  0.42233749555E+02  0.42663695883E+02  0.17770000000E+01 0. -1.
</event>
<event>
 6    1  0.6564965E-004  0.5036004E+03  0.7546771E-02  0.9391789E-01
        -11   -1    0    0    0    0  0.00000000000E+00  0.00000000000E+00  0.50000000000E+03  0.50000000000E+03  0.00000000000E+00 0. -1.
         11   -1    0    0    0    0 -0.00000000000E+00 -0.00000000000E+00 -0.50000000000E+03  0.50000000000E+03  0.00000000000E+00 0. -1.
        -11    1    1    2    0    0 -0.88707359234E+02 -0.31325900017E+02  0.42366241908E+03  0.43398174262E+03  0.00000000000E+00 0. -1.
         11    1    1    2    0    0  0.78829931974E+02  0.14563909506E+02 -0.48988397668E+03  0.49639961346E+03  0.00000000000E+00 0. -1.
        -15    1    1    2    0    0  0.21527476764E+01  0.11809359131E+02  0.37208397756E+02  0.39137167479E+02  0.17770000000E+01 0.  1.
         15    1    1    2    0    0  0.77246795843E+01  0.49526313795E+01  0.29013159849E+02  0.30481476436E+02  0.17770000000E+01 0. -1.
</event>
<event>
 6    1  0.6564965E-004  0.5028237E+03  0.7546771E-02  0.9393514E-01
        -11   -1    0    0    0    0  0.00000000000E+00  0.00000000000E+00  0.50000000000E+03  0.50000000000E+03  0.00000000000E+00 0. -1.
         11   -1    0    0    0    0 -0.00000000000E+00 -0.00000000000E+00 -0.50000000000E+03  0.50000000000E+03  0.00000000000E+00 0. -1.
        -11    1    1    2    0    0 -0.39013297554E+02  0.46777425889E+02  0.49343098401E+03  0.49717632782E+03  0.00000000000E+00 0. -1.
         11    1    1    2    0    0  0.17532507398E+01  0.36390047647E+01 -0.26521655929E+03  0.26524731773E+03  0.00000000000E+00 0. -1.
        -15    1    1    2    0    0  0.46778798906E+00  0.60703333888E+00 -0.19108216698E+02  0.19205962342E+02  0.17770000000E+01 0. -1.
         15    1    1    2    0    0  0.36792258825E+02 -0.51023463992E+02 -0.20910620802E+03  0.21837039211E+03  0.17770000000E+01 0. -1.
</event>
<event>
 6    1  0.6564965E-004  0.5012076E+03  0.7546771E-02  0.9397112E-01
        -11   -1    0    0    0    0  0.00000000000E+00  0.00000000000E+00  0.50000000000E+03  0.50000000000E+03  0.00000000000E+00 0. -1.
         11   -1    0    0    0    0 -0.00000000000E+00 -0.00000000000E+00 -0.50000000000E+03  0.50000000000E+03  0.00000000000E+00 0. -1.
        -11    1    1    2    0    0  0.99823789748E+01 -0.25762283718E+02  0.49802665937E+03  0.49879243840E+03  0.00000000000E+00 0. -1.
         11    1    1    2    0    0 -0.10076199578E+02  0.47416789405E+00 -0.33005103747E+03  0.33020515134E+03  0.00000000000E+00 0. -1.
        -15    1    1    2    0    0 -0.56877718693E+01  0.19296342311E+02 -0.76134367412E+02  0.78767373993E+02  0.17770000000E+01 0. -1.
         15    1    1    2    0    0  0.57815924730E+01  0.59917735125E+01 -0.91841254489E+02  0.92235036274E+02  0.17770000000E+01 0.  1.
</event>
<event>
 6    1  0.6564965E-004  0.5121192E+03  0.7546771E-02  0.9373093E-01
        -11   -1    0    0    0    0  0.00000000000E+00  0.00000000000E+00  0.50000000000E+03  0.50000000000E+03  0.00000000000E+00 0.  1.
         11   -1    0    0    0    0 -0.00000000000E+00 -0.00000000000E+00 -0.50000000000E+03  0.50000000000E+03  0.00000000000E+00 0.  1.
        -11    1    1    2    0    0 -0.21489657502E+02 -0.29387832522E+02  0.48652052141E+03  0.48788079265E+03  0.00000000000E+00 0.  1.
         11    1    1    2    0    0  0.24671267413E+02  0.84859561665E+01 -0.41880205945E+03  0.41961392719E+03  0.00000000000E+00 0.  1.
        -15    1    1    2    0    0  0.22406748321E+02  0.50418752205E+00 -0.50955780852E+02  0.55695295192E+02  0.17770000000E+01 0. -1.
         15    1    1    2    0    0 -0.25588358232E+02  0.20397688834E+02 -0.16762681106E+02  0.36809984971E+02  0.17770000000E+01 0.  1.
</event>
<event>
 6    1  0.6564965E-004  0.5002965E+03  0.7546771E-02  0.9399146E-01
        -11   -1    0    0    0    0  0.00000000000E+00  0.00000000000E+00  0.50000000000E+03  0.50000000000E+03  0.00000000000E+00 0.  1.
         11   -1    0    0    0    0 -0.00000000000E+00 -0.00000000000E+00 -0.50000000000E+03  0.50000000000E+03  0.00000000000E+00 0.  1.
        -11    1    1    2    0    0  0.99286744145E+01 -0.44397765541E+01  0.49958509806E+03  0.49970347246E+03  0.00000000000E+00 0.  1.
         11    1    1    2    0    0 -0.33558851447E+01  0.53141989406E+01 -0.39270107273E+03  0.39275136563E+03  0.00000000000E+00 0.  1.
        -15    1    1    2    0    0 -0.46086507836E+01 -0.38744871770E+01 -0.35627529032E+02  0.36176371666E+02  0.17770000000E+01 0.  1.
         15    1    1    2    0    0 -0.19641384862E+01  0.30000647905E+01 -0.71256496290E+02  0.71368790246E+02  0.17770000000E+01 0. -1.
</event>
<event>
 6    1  0.6564965E-004  0.5008294E+03  0.7546771E-02  0.9397956E-01
        -11   -1    0    0    0    0  0.00000000000E+00  0.00000000000E+00  0.50000000000E+03  0.50000000000E+03  0.00000000000E+00 0.  1.
         11   -1    0    0    0    0 -0.00000000000E+00 -0.00000000000E+00 -0.50000000000E+03  0.50000000000E+03  0.00000000000E+00 0. -1.
        -11    1    1    2    0    0 -0.91777590754E+01 -0.10018286095E+02  0.49898562136E+03  0.49917055967E+03  0.00000000000E+00 0.  1.
         11    1    1    2    0    0  0.47246138301E+01 -0.38242822779E+01 -0.42019812340E+03  0.42024208502E+03  0.00000000000E+00 0. -1.
        -15    1    1    2    0    0  0.49962651840E+01  0.83861346479E+01 -0.63081041528E+02  0.63856600672E+02  0.17770000000E+01 0.  1.
         15    1    1    2    0    0 -0.54311993865E+00  0.54564337254E+01 -0.15706456431E+02  0.16730754642E+02  0.17770000000E+01 0. -1.
</event>
<event>
 6    1  0.6564965E-004  0.5046699E+03  0.7546771E-02  0.9389421E-01
        -11   -1    0    0    0    0  0.00000000000E+00  0.00000000000E+00  0.50000000000E+03  0.50000000000E+03  0.00000000000E+00 0. -1.
         11   -1    0    0    0    0 -0.00000000000E+00 -0.00000000000E+00 -0.50000000000E+03  0.50000000000E+03  0.00000000000E+00 0. -1.
        -11    1    1    2    0    0 -0.14666711597E+02  0.80709063376E+01  0.47697566320E+03  0.47726935293E+03  0.00000000000E+00 0. -1.
         11    1    1    2    0    0 -0.38721500299E+01 -0.81361116353E+01 -0.49524813744E+03  0.49533009952E+03  0.00000000000E+00 0. -1.
        -15    1    1    2    0    0  0.18452679459E+01  0.64942394318E+00  0.61238740410E+01  0.66698071577E+01  0.17770000000E+01 0. -1.
         15    1    1    2    0    0  0.16693593681E+02 -0.58421864547E+00  0.12148600194E+02  0.20730740389E+02  0.17770000000E+01 0.  1.
</event>
<event>
 6    1  0.6564965E-004  0.5040299E+03  0.7546771E-02  0.9390837E-01
        -11   -1    0    0    0    0  0.00000000000E+00  0.00000000000E+00  0.50000000000E+03  0.50000000000E+03  0.00000000000E+00 0. -1.
         11   -1    0    0    0    0 -0.00000000000E+00 -0.00000000000E+00 -0.50000000000E+03  0.50000000000E+03  0.00000000000E+00 0. -1.
        -11    1    1    2    0    0  0.24630144772E+02  0.12997501060E+02  0.49518757576E+03  0.49597007395E+03  0.00000000000E+00 0. -1.
         11    1    1    2    0    0  0.36725087520E+01 -0.54509595288E+01 -0.43616908401E+03  0.43621860360E+03  0.00000000000E+00 0. -1.
        -15    1    1    2    0    0 -0.28316954297E+02 -0.83701242634E+01 -0.46302134958E+02  0.54945011707E+02  0.17770000000E+01 0.  1.
         15    1    1    2    0    0  0.14300772733E-01  0.82358273173E+00 -0.12716356798E+02  0.12866310747E+02  0.17770000000E+01 0.  1.
</event>
<event>
 6    1  0.6564965E-004  0.5008435E+03  0.7546771E-02  0.9397924E-01
        -11   -1    0    0    0    0  0.00000000000E+00  0.00000000000E+00  0.50000000000E+03  0.50000000000E+03  0.00000000000E+00 0.  1.
         11   -1    0    0    0    0 -0.00000000000E+00 -0.00000000000E+00 -0.50000000000E+03  0.50000000000E+03  0.00000000000E+00 0.  1.
        -11    1    1    2    0    0  0.46696010673E+01  0.17410556366E+02  0.40766798501E+03  0.40806631648E+03  0.00000000000E+00 0.  1.
         11    1    1    2    0    0  0.68739024298E+00 -0.89313446837E+01 -0.49907606696E+03  0.49915645046E+03  0.00000000000E+00 0.  1.
        -15    1    1    2    0    0 -0.37001420457E+01 -0.10477843045E+02  0.83681046132E+02  0.84434302607E+02  0.17770000000E+01 0.  1.
         15    1    1    2    0    0 -0.16568492645E+01  0.19986313627E+01  0.77270358269E+01  0.83429304491E+01  0.17770000000E+01 0. -1.
</event>
<event>
 6    1  0.6564965E-004  0.5041463E+03  0.7546771E-02  0.9390579E-01
        -11   -1    0    0    0    0  0.00000000000E+00  0.00000000000E+00  0.50000000000E+03  0.50000000000E+03  0.00000000000E+00 0.  1.
         11   -1    0    0    0    0 -0.00000000000E+00 -0.00000000000E+00 -0.50000000000E+03  0.50000000000E+03  0.00000000000E+00 0. -1.
        -11    1    1    2    0    0 -0.77892600506E+01 -0.35345044154E+01  0.49577987139E+03  0.49585365398E+03  0.00000000000E+00 0.  1.
         11    1    1    2    0    0  0.32242286661E+01 -0.17973442169E+02 -0.46728154074E+03  0.46763819197E+03  0.00000000000E+00 0. -1.
        -15    1    1    2    0    0  0.17225010182E+01  0.11809235636E+02 -0.19106654015E+02  0.22597500143E+02  0.17770000000E+01 0.  1.
         15    1    1    2    0    0  0.28425303662E+01  0.96987109489E+01 -0.93916766374E+01  0.13910653903E+02  0.17770000000E+01 0. -1.
</event>
<event>
 6    1  0.6564965E-004  0.4919700E+03  0.7546771E-02  0.9417959E-01
        -11   -1    0    0    0    0  0.00000000000E+00  0.00000000000E+00  0.50000000000E+03  0.50000000000E+03  0.00000000000E+00 0. -1.
         11   -1    0    0    0    0 -0.00000000000E+00 -0.00000000000E+00 -0.50000000000E+03  0.50000000000E+03  0.00000000000E+00 0.  1.
        -11    1    1    2    0    0 -0.90808225061E+01 -0.27346505729E+01  0.49546660006E+03  0.49555735433E+03  0.00000000000E+00 0. -1.
         11    1    1    2    0    0  0.55321597950E+01 -0.98813629842E+01 -0.48836435198E+03  0.48849563602E+03  0.00000000000E+00 0.  1.
        -15    1    1    2    0    0  0.41023267010E+01  0.73020324752E+01 -0.34220842753E+01  0.92204746309E+01  0.17770000000E+01 0.  1.
         15    1    1    2    0    0 -0.55366399000E+00  0.53139810819E+01 -0.36801638092E+01  0.67265350229E+01  0.17770000000E+01 0. -1.
</event>
<event>
 6    1  0.6564965E-004  0.5000688E+03  0.7546771E-02  0.9399656E-01
        -11   -1    0    0    0    0  0.00000000000E+00  0.00000000000E+00  0.50000000000E+03  0.50000000000E+03  0.00000000000E+00 0.  1.
         11   -1    0    0    0    0 -0.00000000000E+00 -0.00000000000E+00 -0.50000000000E+03  0.50000000000E+03  0.00000000000E+00 0. -1.
        -11    1    1    2    0    0  0.44500575068E+01 -0.38676464708E+02  0.49841300948E+03  0.49993119522E+03  0.00000000000E+00 0.  1.
         11    1    1    2    0    0 -0.24486855568E+01  0.30255486050E+02 -0.41406762163E+03  0.41517873955E+03  0.00000000000E+00 0. -1.
        -15    1    1    2    0    0  0.16749373467E+00  0.28688875028E+01 -0.28817729363E+02  0.29015130955E+02  0.17770000000E+01 0.  1.
         15    1    1    2    0    0 -0.21688656846E+01  0.55520911558E+01 -0.55527658488E+02  0.55874934279E+02  0.17770000000E+01 0.  1.
</event>
<event>
 6    1  0.6564965E-004  0.5002817E+03  0.7546771E-02  0.9399180E-01
        -11   -1    0    0    0    0  0.00000000000E+00  0.00000000000E+00  0.50000000000E+03  0.50000000000E+03  0.00000000000E+00 0.  1.
         11   -1    0    0    0    0 -0.00000000000E+00 -0.00000000000E+00 -0.50000000000E+03  0.50000000000E+03  0.00000000000E+00 0. -1.
        -11    1    1    2    0    0 -0.10248904637E+01 -0.20016085736E+02  0.43112161879E+03  0.43158723832E+03  0.00000000000E+00 0.  1.
         11    1    1    2    0    0  0.43550054260E+01  0.20447527097E+02 -0.49928076277E+03  0.49971826814E+03  0.00000000000E+00 0. -1.
        -15    1    1    2    0    0 -0.16078360835E+01  0.73273317105E+00  0.60668304298E+02  0.60720037139E+02  0.17770000000E+01 0.  1.
         15    1    1    2    0    0 -0.17222788788E+01 -0.11641745317E+01  0.74908396776E+01  0.79744564048E+01  0.17770000000E+01 0.  1.
</event>
<event>
 6    1  0.6564965E-004  0.5005176E+03  0.7546771E-02  0.9398652E-01
        -11   -1    0    0    0    0  0.00000000000E+00  0.00000000000E+00  0.50000000000E+03  0.50000000000E+03  0.00000000000E+00 0. -1.
         11   -1    0    0    0    0 -0.00000000000E+00 -0.00000000000E+00 -0.50000000000E+03  0.50000000000E+03  0.00000000000E+00 0.  1.
        -11    1    1    2    0    0  0.20962834307E+02  0.30770670417E+01  0.49903281968E+03  0.49948239597E+03  0.00000000000E+00 0. -1.
         11    1    1    2    0    0  0.28242130420E+01  0.49079879393E+01 -0.20215699941E+03  0.20223628986E+03  0.00000000000E+00 0.  1.
        -15    1    1    2    0    0 -0.24206013778E+01  0.34551176081E+01 -0.53307882324E+02  0.53504067094E+02  0.17770000000E+01 0.  1.
         15    1    1    2    0    0 -0.21366445972E+02 -0.11440172589E+02 -0.24356793795E+03  0.24477724708E+03  0.17770000000E+01 0. -1.
</event>
<event>
 6    1  0.6564965E-004  0.4888462E+03  0.7546771E-02  0.9425119E-01
        -11   -1    0    0    0    0  0.00000000000E+00  0.00000000000E+00  0.50000000000E+03  0.50000000000E+03  0.00000000000E+00 0. -1.
         11   -1    0    0    0    0 -0.00000000000E+00 -0.00000000000E+00 -0.50000000000E+03  0.50000000000E+03  0.00000000000E+00 0. -1.
        -11    1    1    2    0    0  0.82065170905E+01  0.95359318085E+01  0.48632857973E+03  0.48649128294E+03  0.00000000000E+00 0. -1.
         11    1    1    2    0    0  0.21013566083E+01  0.69283751058E+01 -0.49135372992E+03  0.49140706750E+03  0.00000000000E+00 0. -1.
        -15    1    1    2    0    0 -0.57010011242E+01 -0.26558670982E+01  0.33426894959E+01  0.73407319749E+01  0.17770000000E+01 0.  1.
         15    1    1    2    0    0 -0.46068725746E+01 -0.13808439816E+02  0.16824606961E+01  0.14760917589E+02  0.17770000000E+01 0. -1.
</event>
<event>
 6    1  0.6564965E-004  0.5062093E+03  0.7546771E-02  0.9386022E-01
        -11   -1    0    0    0    0  0.00000000000E+00  0.00000000000E+00  0.50000000000E+03  0.50000000000E+03  0.00000000000E+00 0.  1.
         11   -1    0    0    0    0 -0.00000000000E+00 -0.00000000000E+00 -0.50000000000E+03  0.50000000000E+03  0.00000000000E+00 0. -1.
        -11    1    1    2    0    0  0.19860015934E+02 -0.11470549186E+02  0.43606018552E+03  0.43666288957E+03  0.00000000000E+00 0.  1.
         11    1    1    2    0    0 -0.13905751605E+01 -0.12346491336E+02 -0.49363438108E+03  0.49379071653E+03  0.00000000000E+00 0. -1.
        -15    1    1    2    0    0 -0.15855401690E+02  0.22588560025E+02  0.59524025188E+02  0.65634625849E+02  0.17770000000E+01 0.  1.
         15    1    1    2    0    0 -0.26140390836E+01  0.12284804960E+01 -0.19498296350E+01  0.39117680485E+01  0.17770000000E+01 0. -1.
</event>
<event>
 6    1  0.6564965E-004  0.5038828E+03  0.7546771E-02  0.9391163E-01
        -11   -1    0    0    0    0  0.00000000000E+00  0.00000000000E+00  0.50000000000E+03  0.50000000000E+03  0.00000000000E+00 0. -1.
         11   -1    0    0    0    0 -0.00000000000E+00 -0.00000000000E+00 -0.50000000000E+03  0.50000000000E+03  0.00000000000E+00 0. -1.
        -11    1    1    2    0    0  0.98235619680E+01  0.42452462041E+01  0.49600178688E+03  0.49611722110E+03  0.00000000000E+00 0. -1.
         11    1    1    2    0    0 -0.30197102338E+01  0.98376159879E+01 -0.47958819017E+03  0.47969858191E+03  0.00000000000E+00 0. -1.
        -15    1    1    2    0    0 -0.39307312938E+01 -0.13299850215E+02 -0.14797524702E+02  0.20358318460E+02  0.17770000000E+01 0.  1.
         15    1    1    2    0    0 -0.28731204404E+01 -0.78301197709E+00 -0.16160720065E+01  0.38258785333E+01  0.17770000000E+01 0. -1.
</event>
<event>
 6    1  0.6564965E-004  0.5000436E+03  0.7546771E-02  0.9399712E-01
        -11   -1    0    0    0    0  0.00000000000E+00  0.00000000000E+00  0.50000000000E+03  0.50000000000E+03  0.00000000000E+00 0. -1.
         11   -1    0    0    0    0 -0.00000000000E+00 -0.00000000000E+00 -0.50000000000E+03  0.50000000000E+03  0.00000000000E+00 0. -1.
        -11    1    1    2    0    0 -0.59298899958E+01  0.57806309788E+01  0.29809139627E+03  0.29820640473E+03  0.00000000000E+00 0. -1.
         11    1    1    2    0    0  0.53012400989E+01 -0.10068978754E+02 -0.49982689521E+03  0.49995641076E+03  0.00000000000E+00 0. -1.
        -15    1    1    2    0    0 -0.88556162953E+00  0.24071674155E+01  0.72815493390E+02  0.72882319399E+02  0.17770000000E+01 0. -1.
         15    1    1    2    0    0  0.15142115264E+01  0.18811803595E+01  0.12892000555E+03  0.12895486512E+03  0.17770000000E+01 0. -1.
</event>
<event>
 6    1  0.6564965E-004  0.5033251E+03  0.7546771E-02  0.9392400E-01
        -11   -1    0    0    0    0  0.00000000000E+00  0.00000000000E+00  0.50000000000E+03  0.50000000000E+03  0.00000000000E+00 0. -1.
         11   -1    0    0    0    0 -0.00000000000E+00 -0.00000000000E+00 -0.50000000000E+03  0.50000000000E+03  0.00000000000E+00 0.  1.
        -11    1    1    2    0    0 -0.10480203935E+02 -0.88710712053E+01  0.49648511574E+03  0.49667494474E+03  0.00000000000E+00 0. -1.
         11    1    1    2    0    0 -0.59893396312E+01  0.29833395107E+01 -0.47159507470E+03  0.47164254153E+03  0.00000000000E+00 0.  1.
        -15    1    1    2    0    0  0.16455469325E+02  0.41952982739E+01 -0.20774968118E+02  0.26891263035E+02  0.17770000000E+01 0. -1.
         15    1    1    2    0    0  0.14074241109E-01  0.16924334207E+01 -0.41150729314E+01  0.47912506925E+01  0.17770000000E+01 0.  1.
</event>
<event>
 6    1  0.6564965E-004  0.5183730E+03  0.7546771E-02  0.9359612E-01
        -11   -1    0    0    0    0  0.00000000000E+00  0.00000000000E+00  0.50000000000E+03  0.50000000000E+03  0.00000000000E+00 0.  1.
         11   -1    0    0    0    0 -0.00000000000E+00 -0.00000000000E+00 -0.50000000000E+03  0.50000000000E+03  0.00000000000E+00 0. -1.
        -11    1    1    2    0    0 -0.13121763536E+02  0.17111367871E+01  0.45494836760E+03  0.45514077586E+03  0.00000000000E+00 0.  1.
         11    1    1    2    0    0  0.82682164592E+01 -0.10401735409E+02 -0.48144363279E+03  0.48162696256E+03  0.00000000000E+00 0. -1.
        -15    1    1    2    0    0  0.13721813469E+02  0.27320440251E+02  0.13462826715E+01  0.30653952868E+02  0.17770000000E+01 0. -1.
         15    1    1    2    0    0 -0.88682663918E+01 -0.18629841629E+02  0.25148982518E+02  0.32578308713E+02  0.17770000000E+01 0.  1.
</event>
<event>
 6    1  0.6564965E-004  0.5010603E+03  0.7546771E-02  0.9397440E-01
        -11   -1    0    0    0    0  0.00000000000E+00  0.00000000000E+00  0.50000000000E+03  0.50000000000E+03  0.00000000000E+00 0.  1.
         11   -1    0    0    0    0 -0.00000000000E+00 -0.00000000000E+00 -0.50000000000E+03  0.50000000000E+03  0.00000000000E+00 0. -1.
        -11    1    1    2    0    0 -0.15167023551E+02 -0.39266599323E+00  0.49870896107E+03  0.49893969640E+03  0.00000000000E+00 0.  1.
         11    1    1    2    0    0 -0.58302098443E+01 -0.71492759345E+01 -0.37955763918E+03  0.37966973142E+03  0.00000000000E+00 0. -1.
        -15    1    1    2    0    0  0.12219217626E+02  0.28632617317E+01 -0.54514189326E+02  0.55968402818E+02  0.17770000000E+01 0.  1.
         15    1    1    2    0    0  0.87780157696E+01  0.46786801961E+01 -0.64637132564E+02  0.65422169365E+02  0.17770000000E+01 0. -1.
</event>
<event>
 6    1  0.6564965E-004  0.5003455E+03  0.7546771E-02  0.9399037E-01
        -11   -1    0    0    0    0  0.00000000000E+00  0.00000000000E+00  0.50000000000E+03  0.50000000000E+03  0.00000000000E+00 0. -1.
         11   -1    0    0    0    0 -0.00000000000E+00 -0.00000000000E+00 -0.50000000000E+03  0.50000000000E+03  0.00000000000E+00 0.  1.
        -11    1    1    2    0    0 -0.39161840153E+02 -0.27715631043E+02  0.49734575280E+03  0.49965448438E+03  0.00000000000E+00 0. -1.
         11    1    1    2    0    0  0.75805107134E+01 -0.19214913596E+01 -0.79283429785E+02  0.79668177525E+02  0.00000000000E+00 0.  1.
        -15    1    1    2    0    0  0.27265789141E+02  0.15695400749E+02 -0.25122157400E+03  0.25319005872E+03  0.17770000000E+01 0. -1.
         15    1    1    2    0    0  0.43155402986E+01  0.13941721654E+02 -0.16684074902E+03  0.16748727937E+03  0.17770000000E+01 0.  1.
</event>
<event>
 6    1  0.6564965E-004  0.5151989E+03  0.7546771E-02  0.9366429E-01
        -11   -1    0    0    0    0  0.00000000000E+00  0.00000000000E+00  0.50000000000E+03  0.50000000000E+03  0.00000000000E+00 0.  1.
         11   -1    0    0    0    0 -0.00000000000E+00 -0.00000000000E+00 -0.50000000000E+03  0.50000000000E+03  0.00000000000E+00 0. -1.
        -11    1    1    2    0    0  0.54190413560E+02  0.37982719496E+02  0.37964481240E+03  0.38536926640E+03  0.00000000000E+00 0.  1.
         11    1    1    2    0    0 -0.37927147607E+01  0.70179456398E+01 -0.48473543826E+03  0.48480107399E+03  0.00000000000E+00 0. -1.
        -15    1    1    2    0    0 -0.41280961686E+01  0.43315169906E+01  0.20952209223E+02  0.21862205235E+02  0.17770000000E+01 0.  1.
         15    1    1    2    0    0 -0.46269602631E+02 -0.49332182126E+02  0.84138416627E+02  0.10796745437E+03  0.17770000000E+01 0. -1.
</event>
<event>
 6    1  0.6564965E-004  0.5010767E+03  0.7546771E-02  0.9397404E-01
        -11   -1    0    0    0    0  0.00000000000E+00  0.00000000000E+00  0.50000000000E+03  0.50000000000E+03  0.00000000000E+00 0.  1.
         11   -1    0    0    0    0 -0.00000000000E+00 -0.00000000000E+00 -0.50000000000E+03  0.50000000000E+03  0.00000000000E+00 0. -1.
        -11    1    1    2    0    0  0.13383515289E+02 -0.59275514774E+01  0.31542426576E+03  0.31576371194E+03  0.00000000000E+00 0.  1.
         11    1    1    2    0    0 -0.14459112149E+02 -0.16472266850E+02 -0.49844163977E+03  0.49892331049E+03  0.00000000000E+00 0. -1.
        -15    1    1    2    0    0 -0.67308088186E+01  0.15753061594E+02  0.13997982566E+03  0.14103535747E+03  0.17770000000E+01 0.  1.
         15    1    1    2    0    0  0.78064056789E+01  0.66467567328E+01  0.43037548352E+02  0.44277620101E+02  0.17770000000E+01 0. -1.
</event>
<event>
 6    1  0.6564965E-004  0.5009266E+03  0.7546771E-02  0.9397739E-01
        -11   -1    0    0    0    0  0.00000000000E+00  0.00000000000E+00  0.50000000000E+03  0.50000000000E+03  0.00000000000E+00 0.  1.
         11   -1    0    0    0    0 -0.00000000000E+00 -0.00000000000E+00 -0.50000000000E+03  0.50000000000E+03  0.00000000000E+00 0. -1.
        -11    1    1    2    0    0  0.11361388007E+02  0.21534530923E+02  0.49847908379E+03  0.49907335546E+03  0.00000000000E+00 0.  1.
         11    1    1    2    0    0 -0.65589004750E+01  0.34411636546E+01 -0.25969471472E+03  0.25980031877E+03  0.00000000000E+00 0. -1.
        -15    1    1    2    0    0 -0.55048299920E+01 -0.89630496791E+01 -0.32359004393E+02  0.34072016481E+02  0.17770000000E+01 0.  1.
         15    1    1    2    0    0  0.70234245971E+00 -0.16012644899E+02 -0.20642536468E+03  0.20705430928E+03  0.17770000000E+01 0. -1.
</event>
<event>
 6    1  0.6564965E-004  0.5005465E+03  0.7546771E-02  0.9398588E-01
        -11   -1    0    0    0    0  0.00000000000E+00  0.00000000000E+00  0.50000000000E+03  0.50000000000E+03  0.00000000000E+00 0.  1.
         11   -1    0    0    0    0 -0.00000000000E+00 -0.00000000000E+00 -0.50000000000E+03  0.50000000000E+03  0.00000000000E+00 0.  1.
        -11    1    1    2    0    0  0.24818410342E+01  0.24275407386E+02  0.34991075389E+03  0.35076058876E+03  0.00000000000E+00 0.  1.
         11    1    1    2    0    0  0.28427689862E+01 -0.16222016931E+02 -0.49918191412E+03  0.49945351991E+03  0.00000000000E+00 0.  1.
        -15    1    1    2    0    0 -0.52373098997E+01 -0.22567230492E+01  0.55951066720E+02  0.56269012876E+02  0.17770000000E+01 0. -1.
         15    1    1    2    0    0 -0.87300120622E-01 -0.57966674066E+01  0.93320093503E+02  0.93516878449E+02  0.17770000000E+01 0.  1.
</event>
<event>
 6    1  0.6564965E-004  0.5008222E+03  0.7546771E-02  0.9397972E-01
        -11   -1    0    0    0    0  0.00000000000E+00  0.00000000000E+00  0.50000000000E+03  0.50000000000E+03  0.00000000000E+00 0.  1.
         11   -1    0    0    0    0 -0.00000000000E+00 -0.00000000000E+00 -0.50000000000E+03  0.50000000000E+03  0.00000000000E+00 0.  1.
        -11    1    1    2    0    0 -0.40569171975E+02  0.28859653400E+02  0.26874401539E+03  0.27331681821E+03  0.00000000000E+00 0.  1.
         11    1    1    2    0    0  0.46324937528E+02 -0.39106736035E+02 -0.49548273523E+03  0.49917780154E+03  0.00000000000E+00 0.  1.
        -15    1    1    2    0    0 -0.26807945641E+01 -0.33283464369E+01  0.57130911844E+02  0.57318089349E+02  0.17770000000E+01 0.  1.
         15    1    1    2    0    0 -0.30749709885E+01  0.13575429071E+02  0.16960780800E+03  0.17018729090E+03  0.17770000000E+01 0. -1.
</event>
<event>
 6    1  0.6564965E-004  0.5013797E+03  0.7546771E-02  0.9396728E-01
        -11   -1    0    0    0    0  0.00000000000E+00  0.00000000000E+00  0.50000000000E+03  0.50000000000E+03  0.00000000000E+00 0. -1.
         11   -1    0    0    0    0 -0.00000000000E+00 -0.00000000000E+00 -0.50000000000E+03  0.50000000000E+03  0.00000000000E+00 0.  1.
        -11    1    1    2    0    0  0.47813351582E+01 -0.94462231007E+01  0.45504491018E+03  0.45516805971E+03  0.00000000000E+00 0. -1.
         11    1    1    2    0    0  0.14019918995E+01  0.72953401645E+01 -0.49856495872E+03  0.49862030207E+03  0.00000000000E+00 0.  1.
        -15    1    1    2    0    0 -0.58589826785E+01  0.29648362845E+01  0.74550011072E+01  0.10092210002E+02  0.17770000000E+01 0. -1.
         15    1    1    2    0    0 -0.32434437912E+00 -0.81395334837E+00  0.36065047437E+02  0.36119428221E+02  0.17770000000E+01 0.  1.
</event>
<event>
 6    1  0.6564965E-004  0.5021446E+03  0.7546771E-02  0.9395024E-01
        -11   -1    0    0    0    0  0.00000000000E+00  0.00000000000E+00  0.50000000000E+03  0.50000000000E+03  0.00000000000E+00 0. -1.
         11   -1    0    0    0    0 -0.00000000000E+00 -0.00000000000E+00 -0.50000000000E+03  0.50000000000E+03  0.00000000000E+00 0.  1.
        -11    1    1    2    0    0  0.28813602827E+02 -0.58274710960E+02  0.24973845431E+03  0.25806096413E+03  0.00000000000E+00 0. -1.
         11    1    1    2    0    0 -0.33925504552E+02  0.55303739675E+02 -0.49360971390E+03  0.49785539381E+03  0.00000000000E+00 0.  1.
        -15    1    1    2    0    0 -0.35213819744E+00 -0.19131090795E+01  0.60102174341E+02  0.60159895921E+02  0.17770000000E+01 0.  1.
         15    1    1    2    0    0  0.54640399225E+01  0.48840803642E+01  0.18376908525E+03  0.18392374614E+03  0.17770000000E+01 0. -1.
</event>
<event>
 6    1  0.6564965E-004  0.5001276E+03  0.7546771E-02  0.9399524E-01
        -11   -1    0    0    0    0  0.00000000000E+00  0.00000000000E+00  0.50000000000E+03  0.50000000000E+03  0.00000000000E+00 0. -1.
         11   -1    0    0    0    0 -0.00000000000E+00 -0.00000000000E+00 -0.50000000000E+03  0.50000000000E+03  0.00000000000E+00 0. -1.
        -11    1    1    2    0    0 -0.15528836852E+02  0.12573756296E+02  0.49947286746E+03  0.49987237316E+03  0.00000000000E+00 0. -1.
         11    1    1    2    0    0  0.60661979243E+01 -0.11865583993E+02 -0.27086555620E+03  0.27119317907E+03  0.00000000000E+00 0. -1.
        -15    1    1    2    0    0  0.28513038951E+01  0.46357940812E+00 -0.14483489478E+03  0.14487459858E+03  0.17770000000E+01 0.  1.
         15    1    1    2    0    0  0.66113350330E+01 -0.11717517117E+01 -0.83772416480E+02  0.84059849184E+02  0.17770000000E+01 0.  1.
</event>
<event>
 6    1  0.6564965E-004  0.5015076E+03  0.7546771E-02  0.9396443E-01
        -11   -1    0    0    0    0  0.00000000000E+00  0.00000000000E+00  0.50000000000E+03  0.50000000000E+03  0.00000000000E+00 0.  1.
         11   -1    0    0    0    0 -0.00000000000E+00 -0.00000000000E+00 -0.50000000000E+03  0.50000000000E+03  0.00000000000E+00 0. -1.
        -11    1    1    2    0    0 -0.15660920429E+02  0.58540622691E+01  0.17239842653E+03  0.17320725142E+03  0.00000000000E+00 0.  1.
         11    1    1    2    0    0  0.97324792333E+01 -0.17003294677E+01 -0.49839446269E+03  0.49849237979E+03  0.00000000000E+00 0. -1.
        -15    1    1    2    0    0 -0.16170600391E+02 -0.18568837167E+01  0.15329032124E+03  0.15416230619E+03  0.17770000000E+01 0.  1.
         15    1    1    2    0    0  0.22099041586E+02 -0.22968490846E+01  0.17270571491E+03  0.17413806260E+03  0.17770000000E+01 0. -1.
</event>
<event>
 6    1  0.6564965E-004  0.5064570E+03  0.7546771E-02  0.9385477E-01
        -11   -1    0    0    0    0  0.00000000000E+00  0.00000000000E+00  0.50000000000E+03  0.50000000000E+03  0.00000000000E+00 0.  1.
         11   -1    0    0    0    0 -0.00000000000E+00 -0.00000000000E+00 -0.50000000000E+03  0.50000000000E+03  0.00000000000E+00 0. -1.
        -11    1    1    2    0    0  0.45405181506E+01  0.22669975471E+02  0.39695920933E+03  0.39763193780E+03  0.00000000000E+00 0.  1.
         11    1    1    2    0    0 -0.19739759707E+02  0.72680622120E+01 -0.49309457346E+03  0.49354304900E+03  0.00000000000E+00 0. -1.
        -15    1    1    2    0    0 -0.69209876196E+01 -0.18822745078E+02  0.18585573242E+02  0.27400311379E+02  0.17770000000E+01 0.  1.
         15    1    1    2    0    0  0.22120229176E+02 -0.11115292605E+02  0.77549790895E+02  0.81424701813E+02  0.17770000000E+01 0. -1.
</event>
<event>
 6    1  0.6564965E-004  0.5074185E+03  0.7546771E-02  0.9383362E-01
        -11   -1    0    0    0    0  0.00000000000E+00  0.00000000000E+00  0.50000000000E+03  0.50000000000E+03  0.00000000000E+00 0. -1.
         11   -1    0    0    0    0 -0.00000000000E+00 -0.00000000000E+00 -0.50000000000E+03  0.50000000000E+03  0.00000000000E+00 0.  1.
        -11    1    1    2    0    0 -0.36209855063E+00 -0.14312164583E+02  0.49237340889E+03  0.49258150894E+03  0.00000000000E+00 0. -1.
         11    1    1    2    0    0 -0.29622587717E+00 -0.85709564845E+01 -0.47565635934E+03  0.47573366627E+03  0.00000000000E+00 0.  1.
        -15    1    1    2    0    0 -0.45446234338E+01  0.21618698000E+01 -0.46803143306E+01  0.70986163736E+01  0.17770000000E+01 0.  1.
         15    1    1    2    0    0  0.52029478616E+01  0.20721251268E+02 -0.12036735218E+02  0.24586208416E+02  0.17770000000E+01 0. -1.
</event>
<event>
 6    1  0.6564965E-004  0.5014444E+03  0.7546771E-02  0.9396583E-01
        -11   -1    0    0    0    0  0.00000000000E+00  0.00000000000E+00  0.50000000000E+03  0.50000000000E+03  0.00000000000E+00 0.  1.
         11   -1    0    0    0    0 -0.00000000000E+00 -0.00000000000E+00 -0.50000000000E+03  0.50000000000E+03  0.00000000000E+00 0.  1.
        -11    1    1    2    0    0 -0.35216533566E+01  0.10788851076E+02  0.45100820401E+03  0.45115097410E+03  0.00000000000E+00 0.  1.
         11    1    1    2    0    0  0.10783670455E+02 -0.30164535603E+01 -0.49842980825E+03  0.49855557392E+03  0.00000000000E+00 0.  1.
        -15    1    1    2    0    0 -0.23848765057E+01 -0.98301368411E+01  0.22190824711E+02  0.24452191243E+02  0.17770000000E+01 0.  1.
         15    1    1    2    0    0 -0.48771405929E+01  0.20577393251E+01  0.25230779526E+02  0.25841260727E+02  0.17770000000E+01 0. -1.
</event>
<event>
 6    1  0.6564965E-004  0.5005853E+03  0.7546771E-02  0.9398501E-01
        -11   -1    0    0    0    0  0.00000000000E+00  0.00000000000E+00  0.50000000000E+03  0.50000000000E+03  0.00000000000E+00 0.  1.
         11   -1    0    0    0    0 -0.00000000000E+00 -0.00000000000E+00 -0.50000000000E+03  0.50000000000E+03  0.00000000000E+00 0. -1.
        -11    1    1    2    0    0  0.20188949400E+01 -0.64185615942E+01  0.20383361832E+03  0.20394464403E+03  0.00000000000E+00 0.  1.
         11    1    1    2    0    0  0.36199990201E+01 -0.16090548366E+02 -0.49914228261E+03  0.49941468584E+03  0.00000000000E+00 0. -1.
        -15    1    1    2    0    0  0.25144883484E+01  0.62777878538E+01  0.34918689720E+02  0.35611878534E+02  0.17770000000E+01 0. -1.
         15    1    1    2    0    0 -0.81533823085E+01  0.16231322106E+02  0.26038997457E+03  0.26102879160E+03  0.17770000000E+01 0.  1.
</event>
<event>
 6    1  0.6564965E-004  0.5127351E+03  0.7546771E-02  0.9371756E-01
        -11   -1    0    0    0    0  0.00000000000E+00  0.00000000000E+00  0.50000000000E+03  0.50000000000E+03  0.00000000000E+00 0. -1.
         11   -1    0    0    0    0 -0.00000000000E+00 -0.00000000000E+00 -0.50000000000E+03  0.50000000000E+03  0.00000000000E+00 0. -1.
        -11    1    1    2    0    0 -0.39111506374E+02 -0.18405572875E+02  0.42140227889E+03  0.42361345080E+03  0.00000000000E+00 0. -1.
         11    1    1    2    0    0 -0.10507411534E+02 -0.13064084737E+01 -0.48714985630E+03  0.48726491244E+03  0.00000000000E+00 0. -1.
        -15    1    1    2    0    0  0.70924302389E+01  0.15431775370E+02  0.14810470505E+02  0.22604203666E+02  0.17770000000E+01 0. -1.
         15    1    1    2    0    0  0.42526487669E+02  0.42802059782E+01  0.50937106903E+02  0.66517433094E+02  0.17770000000E+01 0.  1.
</event>
<event>
 6    1  0.6564965E-004  0.5008565E+03  0.7546771E-02  0.9397895E-01
        -11   -1    0    0    0    0  0.00000000000E+00  0.00000000000E+00  0.50000000000E+03  0.50000000000E+03  0.00000000000E+00 0.  1.
         11   -1    0    0    0    0 -0.00000000000E+00 -0.00000000000E+00 -0.50000000000E+03  0.50000000000E+03  0.00000000000E+00 0.  1.
        -11    1    1    2    0    0 -0.27481217654E+00  0.10949486564E+02  0.49902334482E+03  0.49914353191E+03  0.00000000000E+00 0.  1.
         11    1    1    2    0    0 -0.64596944072E+01  0.18047605863E+01 -0.37419883029E+03  0.37425893363E+03  0.00000000000E+00 0.  1.
        -15    1    1    2    0    0  0.93343517084E+01 -0.33964880743E+01 -0.42422318189E+02  0.43605929214E+02  0.17770000000E+01 0.  1.
         15    1    1    2    0    0 -0.25998451246E+01 -0.93577590760E+01 -0.82402196337E+02  0.82991605237E+02  0.17770000000E+01 0. -1.
</event>
<event>
 6    1  0.6564965E-004  0.5001837E+03  0.7546771E-02  0.9399399E-01
        -11   -1    0    0    0    0  0.00000000000E+00  0.00000000000E+00  0.50000000000E+03  0.50000000000E+03  0.00000000000E+00 0.  1.
         11   -1    0    0    0    0 -0.00000000000E+00 -0.00000000000E+00 -0.50000000000E+03  0.50000000000E+03  0.00000000000E+00 0. -1.
        -11    1    1    2    0    0  0.12271985031E+01  0.21776214885E+01  0.12446543590E+02  0.12695058048E+02  0.00000000000E+00 0.  1.
         11    1    1    2    0    0  0.29924279565E+01 -0.89371977414E+01 -0.49972745873E+03  0.49981632740E+03  0.00000000000E+00 0. -1.
        -15    1    1    2    0    0  0.87191436639E+00 -0.11618594776E+01  0.24209097662E+02  0.24317653890E+02  0.17770000000E+01 0. -1.
         15    1    1    2    0    0 -0.50915408260E+01  0.79214357305E+01  0.46307181748E+03  0.46317096066E+03  0.17770000000E+01 0.  1.
</event>
<event>
 6    1  0.6564965E-004  0.5003429E+03  0.7546771E-02  0.9399043E-01
        -11   -1    0    0    0    0  0.00000000000E+00  0.00000000000E+00  0.50000000000E+03  0.50000000000E+03  0.00000000000E+00 0. -1.
         11   -1    0    0    0    0 -0.00000000000E+00 -0.00000000000E+00 -0.50000000000E+03  0.50000000000E+03  0.00000000000E+00 0. -1.
        -11    1    1    2    0    0  0.11272966182E+01  0.29885458182E+02  0.49876122924E+03  0.49965705759E+03  0.00000000000E+00 0. -1.
         11    1    1    2    0    0 -0.18523981904E+01  0.52473673673E+00 -0.11629890486E+03  0.11631483998E+03  0.00000000000E+00 0. -1.
        -15    1    1    2    0    0  0.31175031876E+01  0.46830378844E+00 -0.38581615593E+02  0.38750960315E+02  0.17770000000E+01 0.  1.
         15    1    1    2    0    0 -0.23924016154E+01 -0.30878498707E+02 -0.34388070878E+03  0.34527714212E+03  0.17770000000E+01 0. -1.
</event>
<event>
 6    1  0.6564965E-004  0.5003691E+03  0.7546771E-02  0.9398984E-01
        -11   -1    0    0    0    0  0.00000000000E+00  0.00000000000E+00  0.50000000000E+03  0.50000000000E+03  0.00000000000E+00 0. -1.
         11   -1    0    0    0    0 -0.00000000000E+00 -0.00000000000E+00 -0.50000000000E+03  0.50000000000E+03  0.00000000000E+00 0.  1.
        -11    1    1    2    0    0  0.11255299934E+02 -0.13492927291E+01  0.31589788649E+03  0.31610121331E+03  0.00000000000E+00 0. -1.
         11    1    1    2    0    0 -0.13080572894E+02  0.35450948766E+00 -0.49945952121E+03  0.49963090416E+03  0.00000000000E+00 0.  1.
        -15    1    1    2    0    0  0.71223571989E+01  0.37152894064E+01  0.61462560633E+02  0.62010768710E+02  0.17770000000E+01 0. -1.
         15    1    1    2    0    0 -0.52970842397E+01 -0.27205061649E+01  0.12209907409E+03  0.12225711382E+03  0.17770000000E+01 0.  1.
</event>
<event>
 6    1  0.6564965E-004  0.5011711E+03  0.7546771E-02  0.9397193E-01
        -11   -1    0    0    0    0  0.00000000000E+00  0.00000000000E+00  0.50000000000E+03  0.50000000000E+03  0.00000000000E+00 0. -1.
         11   -1    0    0    0    0 -0.00000000000E+00 -0.00000000000E+00 -0.50000000000E+03  0.50000000000E+03  0.00000000000E+00 0. -1.
        -11    1    1    2    0    0  0.99880227663E+01 -0.24357678583E+01  0.21287882919E+02  0.23640379080E+02  0.00000000000E+00 0. -1.
         11    1    1    2    0    0 -0.51754372390E+01  0.11083829255E+02 -0.49867887088E+03  0.49882888116E+03  0.00000000000E+00 0. -1.
        -15    1    1    2    0    0 -0.86101515701E+00 -0.34426392401E+01  0.27006747694E+03  0.27009663630E+03  0.17770000000E+01 0. -1.
         15    1    1    2    0    0 -0.39515703704E+01 -0.52054221562E+01  0.20732351102E+03  0.20743410346E+03  0.17770000000E+01 0.  1.
</event>
<event>
 6    1  0.6564965E-004  0.4898293E+03  0.7546771E-02  0.9422860E-01
        -11   -1    0    0    0    0  0.00000000000E+00  0.00000000000E+00  0.50000000000E+03  0.50000000000E+03  0.00000000000E+00 0.  1.
         11   -1    0    0    0    0 -0.00000000000E+00 -0.00000000000E+00 -0.50000000000E+03  0.50000000000E+03  0.00000000000E+00 0. -1.
        -11    1    1    2    0    0 -0.10130234498E+02 -0.16258162541E+02  0.74250200066E+01  0.20544595939E+02  0.00000000000E+00 0.  1.
         11    1    1    2    0    0 -0.11609965217E+01 -0.21460469976E+02 -0.49219695789E+03  0.49266595686E+03  0.00000000000E+00 0. -1.
        -15    1    1    2    0    0  0.12523427371E+02  0.26875916661E+02  0.42255819564E+03  0.42360091780E+03  0.17770000000E+01 0.  1.
         15    1    1    2    0    0 -0.12321963506E+01  0.10842715855E+02  0.62213742251E+02  0.63188529409E+02  0.17770000000E+01 0. -1.
</event>
<event>
 6    1  0.6564965E-004  0.5024074E+03  0.7546771E-02  0.9394439E-01
        -11   -1    0    0    0    0  0.00000000000E+00  0.00000000000E+00  0.50000000000E+03  0.50000000000E+03  0.00000000000E+00 0. -1.
         11   -1    0    0    0    0 -0.00000000000E+00 -0.00000000000E+00 -0.50000000000E+03  0.50000000000E+03  0.00000000000E+00 0. -1.
        -11    1    1    2    0    0 -0.19225127761E+02 -0.12890011178E+02  0.49705391213E+03  0.49759255369E+03  0.00000000000E+00 0. -1.
         11    1    1    2    0    0 -0.74056578762E+01  0.67785408469E+01 -0.41893008468E+03  0.41905036480E+03  0.00000000000E+00 0. -1.
        -15    1    1    2    0    0  0.22200302881E+02  0.64592629601E+01 -0.71629785884E+02  0.75289836504E+02  0.17770000000E+01 0. -1.
         15    1    1    2    0    0  0.44304827558E+01 -0.34779262939E+00 -0.64940415654E+01  0.80672450078E+01  0.17770000000E+01 0.  1.
</event>
<event>
 6    1  0.6564965E-004  0.5035261E+03  0.7546771E-02  0.9391954E-01
        -11   -1    0    0    0    0  0.00000000000E+00  0.00000000000E+00  0.50000000000E+03  0.50000000000E+03  0.00000000000E+00 0. -1.
         11   -1    0    0    0    0 -0.00000000000E+00 -0.00000000000E+00 -0.50000000000E+03  0.50000000000E+03  0.00000000000E+00 0.  1.
        -11    1    1    2    0    0 -0.14440390558E+01 -0.15912707248E+02  0.49621671530E+03  0.49647389462E+03  0.00000000000E+00 0. -1.
         11    1    1    2    0    0  0.96674370720E+01 -0.74775629280E+01 -0.44567718461E+03  0.44584473325E+03  0.00000000000E+00 0.  1.
        -15    1    1    2    0    0  0.21205649037E+01  0.93364805971E+01 -0.23654428026E+02  0.25580390140E+02  0.17770000000E+01 0. -1.
         15    1    1    2    0    0 -0.10343962920E+02  0.14053789579E+02 -0.26885102663E+02  0.32100981988E+02  0.17770000000E+01 0.  1.
</event>
<event>
 6    1  0.6564965E-004  0.4941565E+03  0.7546771E-02  0.9412981E-01
        -11   -1    0    0    0    0  0.00000000000E+00  0.00000000000E+00  0.50000000000E+03  0.50000000000E+03  0.00000000000E+00 0.  1.
         11   -1    0    0    0    0 -0.00000000000E+00 -0.00000000000E+00 -0.50000000000E+03  0.50000000000E+03  0.00000000000E+00 0. -1.
        -11    1    1    2    0    0 -0.10224390454E+01  0.15594366695E+01  0.11671377832E+02  0.11819402897E+02  0.00000000000E+00 0.  1.
         11    1    1    2    0    0 -0.27030013107E+02 -0.70385513541E+01 -0.49901393934E+03  0.49979503246E+03  0.00000000000E+00 0. -1.
        -15    1    1    2    0    0  0.88431733081E+01  0.19242302762E+01  0.27060483615E+03  0.27076196087E+03  0.17770000000E+01 0.  1.
         15    1    1    2    0    0  0.19209278845E+02  0.35548844084E+01  0.21673772536E+03  0.21762360377E+03  0.17770000000E+01 0. -1.
</event>
<event>
 6    1  0.6564965E-004  0.5049254E+03  0.7546771E-02  0.9388856E-01
        -11   -1    0    0    0    0  0.00000000000E+00  0.00000000000E+00  0.50000000000E+03  0.50000000000E+03  0.00000000000E+00 0. -1.
         11   -1    0    0    0    0 -0.00000000000E+00 -0.00000000000E+00 -0.50000000000E+03  0.50000000000E+03  0.00000000000E+00 0. -1.
        -11    1    1    2    0    0 -0.41008223198E+01  0.38539609604E+02  0.34231358681E+03  0.34450066759E+03  0.00000000000E+00 0. -1.
         11    1    1    2    0    0 -0.13740906213E+02  0.15582271007E+01 -0.49488141585E+03  0.49507459673E+03  0.00000000000E+00 0. -1.
        -15    1    1    2    0    0  0.26945300749E+01 -0.15968911276E+02  0.92447832553E+02  0.93872392600E+02  0.17770000000E+01 0.  1.
         15    1    1    2    0    0  0.15147198457E+02 -0.24128925429E+02  0.60119996485E+02  0.66552343083E+02  0.17770000000E+01 0. -1.
</event>
<event>
 6    1  0.6564965E-004  0.5013556E+03  0.7546771E-02  0.9396782E-01
        -11   -1    0    0    0    0  0.00000000000E+00  0.00000000000E+00  0.50000000000E+03  0.50000000000E+03  0.00000000000E+00 0. -1.
         11   -1    0    0    0    0 -0.00000000000E+00 -0.00000000000E+00 -0.50000000000E+03  0.50000000000E+03  0.00000000000E+00 0. -1.
        -11    1    1    2    0    0 -0.16505615605E+02 -0.48615761096E+01  0.13904011403E+03  0.14010076223E+03  0.00000000000E+00 0. -1.
         11    1    1    2    0    0  0.71498238751E+01  0.33578159389E+01 -0.49858183170E+03  0.49864440016E+03  0.00000000000E+00 0. -1.
        -15    1    1    2    0    0  0.13123632251E+02  0.88063516763E+01  0.33372366628E+03  0.33410241651E+03  0.17770000000E+01 0. -1.
         15    1    1    2    0    0 -0.37678405209E+01 -0.73025915056E+01  0.25818051395E+02  0.27152421102E+02  0.17770000000E+01 0.  1.
</event>
<event>
 6    1  0.6564965E-004  0.5004644E+03  0.7546771E-02  0.9398771E-01
        -11   -1    0    0    0    0  0.00000000000E+00  0.00000000000E+00  0.50000000000E+03  0.50000000000E+03  0.00000000000E+00 0. -1.
         11   -1    0    0    0    0 -0.00000000000E+00 -0.00000000000E+00 -0.50000000000E+03  0.50000000000E+03  0.00000000000E+00 0. -1.
        -11    1    1    2    0    0 -0.14238591623E+02  0.95333341564E+01  0.49924162404E+03  0.49953560547E+03  0.00000000000E+00 0. -1.
         11    1    1    2    0    0  0.44229899954E+01 -0.13259836257E+00 -0.25996529344E+03  0.26000295040E+03  0.00000000000E+00 0. -1.
        -15    1    1    2    0    0 -0.22946467446E+01 -0.44455205010E+00 -0.14022007501E+03  0.14025081175E+03  0.17770000000E+01 0. -1.
         15    1    1    2    0    0  0.12110248372E+02 -0.89561837438E+01 -0.99056255591E+02  0.10021063239E+03  0.17770000000E+01 0.  1.
</event>
<event>
 6    1  0.6564965E-004  0.4908277E+03  0.7546771E-02  0.9420571E-01
        -11   -1    0    0    0    0  0.00000000000E+00  0.00000000000E+00  0.50000000000E+03  0.50000000000E+03  0.00000000000E+00 0.  1.
         11   -1    0    0    0    0 -0.00000000000E+00 -0.00000000000E+00 -0.50000000000E+03  0.50000000000E+03  0.00000000000E+00 0.  1.
        -11    1    1    2    0    0  0.24926923996E+01 -0.64556682799E+01  0.49487645333E+03  0.49492483594E+03  0.00000000000E+00 0.  1.
         11    1    1    2    0    0  0.83454910667E+01 -0.41180192722E+01 -0.48679171177E+03  0.48688065884E+03  0.00000000000E+00 0.  1.
        -15    1    1    2    0    0 -0.44263143214E+00  0.19624857089E+01 -0.13436829190E+01  0.30017470795E+01  0.17770000000E+01 0.  1.
         15    1    1    2    0    0 -0.10395552034E+02  0.86112018432E+01 -0.67410586466E+01  0.15192758142E+02  0.17770000000E+01 0. -1.
</event>
<event>
 6    1  0.6564965E-004  0.5047014E+03  0.7546771E-02  0.9389351E-01
        -11   -1    0    0    0    0  0.00000000000E+00  0.00000000000E+00  0.50000000000E+03  0.50000000000E+03  0.00000000000E+00 0. -1.
         11   -1    0    0    0    0 -0.00000000000E+00 -0.00000000000E+00 -0.50000000000E+03  0.50000000000E+03  0.00000000000E+00 0. -1.
        -11    1    1    2    0    0  0.12819359752E+02  0.38841525967E+02  0.10332032888E+03  0.11112196220E+03  0.00000000000E+00 0. -1.
         11    1    1    2    0    0 -0.13078446390E+02 -0.26121380396E+01 -0.49511903336E+03  0.49529862328E+03  0.00000000000E+00 0. -1.
        -15    1    1    2    0    0 -0.45574064337E+00 -0.16031072397E+02  0.13040254297E+03  0.13139704686E+03  0.17770000000E+01 0.  1.
         15    1    1    2    0    0  0.71482728093E+00 -0.20198315530E+02  0.26139616152E+03  0.26218236766E+03  0.17770000000E+01 0. -1.
</event>
<event>
 6    1  0.6564965E-004  0.5009430E+03  0.7546771E-02  0.9397702E-01
        -11   -1    0    0    0    0  0.00000000000E+00  0.00000000000E+00  0.50000000000E+03  0.50000000000E+03  0.00000000000E+00 0.  1.
         11   -1    0    0    0    0 -0.00000000000E+00 -0.00000000000E+00 -0.50000000000E+03  0.50000000000E+03  0.00000000000E+00 0. -1.
        -11    1    1    2    0    0 -0.83296653892E+01 -0.83869993878E+01  0.24943654902E+03  0.24971647337E+03  0.00000000000E+00 0.  1.
         11    1    1    2    0    0 -0.57038734640E+01 -0.13806266306E+02 -0.49883333607E+03  0.49905695500E+03  0.00000000000E+00 0. -1.
        -15    1    1    2    0    0  0.91201744836E+01  0.27819605183E+01  0.61905127532E+02  0.62660349750E+02  0.17770000000E+01 0. -1.
         15    1    1    2    0    0  0.49133643696E+01  0.19411305176E+02  0.18749165951E+03  0.18856622188E+03  0.17770000000E+01 0.  1.
</event>
<event>
 6    1  0.6564965E-004  0.5027221E+03  0.7546771E-02  0.9393739E-01
        -11   -1    0    0    0    0  0.00000000000E+00  0.00000000000E+00  0.50000000000E+03  0.50000000000E+03  0.00000000000E+00 0. -1.
         11   -1    0    0    0    0 -0.00000000000E+00 -0.00000000000E+00 -0.50000000000E+03  0.50000000000E+03  0.00000000000E+00 0. -1.
        -11    1    1    2    0    0 -0.87033909031E+01 -0.15448332370E+02  0.39871085130E+03  0.39910492722E+03  0.00000000000E+00 0. -1.
         11    1    1    2    0    0  0.14320542371E+01 -0.10719394301E+02 -0.49716026301E+03  0.49727787333E+03  0.00000000000E+00 0. -1.
        -15    1    1    2    0    0  0.14108738859E+01  0.18350331518E+02  0.84467742783E+02  0.86467812114E+02  0.17770000000E+01 0. -1.
         15    1    1    2    0    0  0.58604627801E+01  0.78173951530E+01  0.13981668929E+02  0.17149387336E+02  0.17770000000E+01 0.  1.
</event>
<event>
 6    1  0.6564965E-004  0.5156191E+03  0.7546771E-02  0.9365523E-01
        -11   -1    0    0    0    0  0.00000000000E+00  0.00000000000E+00  0.50000000000E+03  0.50000000000E+03  0.00000000000E+00 0.  1.
         11   -1    0    0    0    0 -0.00000000000E+00 -0.00000000000E+00 -0.50000000000E+03  0.50000000000E+03  0.00000000000E+00 0.  1.
        -11    1    1    2    0    0 -0.44401575703E+02 -0.84184088522E+01  0.42937764324E+03  0.43174938338E+03  0.00000000000E+00 0.  1.
         11    1    1    2    0    0  0.22065034102E+02  0.21919549951E+02 -0.48338131083E+03  0.48438086673E+03  0.00000000000E+00 0.  1.
        -15    1    1    2    0    0 -0.15374868064E+01 -0.17868888925E+02 -0.60995065153E+01  0.19026895853E+02  0.17770000000E+01 0.  1.
         15    1    1    2    0    0  0.23874028407E+02  0.43677478255E+01  0.60103174099E+02  0.64842854034E+02  0.17770000000E+01 0. -1.
</event>
<event>
 6    1  0.6564965E-004  0.4892619E+03  0.7546771E-02  0.9424163E-01
        -11   -1    0    0    0    0  0.00000000000E+00  0.00000000000E+00  0.50000000000E+03  0.50000000000E+03  0.00000000000E+00 0. -1.
         11   -1    0    0    0    0 -0.00000000000E+00 -0.00000000000E+00 -0.50000000000E+03  0.50000000000E+03  0.00000000000E+00 0. -1.
        -11    1    1    2    0    0  0.16496904920E+02 -0.13239918721E+02 -0.27708316158E+01  0.21333561061E+02  0.00000000000E+00 0. -1.
         11    1    1    2    0    0  0.22692322787E+00 -0.13488961332E+02 -0.48730310966E+03  0.48748981964E+03  0.00000000000E+00 0. -1.
        -15    1    1    2    0    0 -0.29412552170E+01  0.24086201932E+01  0.36903006025E+02  0.37140840272E+02  0.17770000000E+01 0. -1.
         15    1    1    2    0    0 -0.13782572931E+02  0.24320259860E+02  0.45317093525E+03  0.45403577903E+03  0.17770000000E+01 0. -1.
</event>
<event>
 6    1  0.6564965E-004  0.5068560E+03  0.7546771E-02  0.9384598E-01
        -11   -1    0    0    0    0  0.00000000000E+00  0.00000000000E+00  0.50000000000E+03  0.50000000000E+03  0.00000000000E+00 0. -1.
         11   -1    0    0    0    0 -0.00000000000E+00 -0.00000000000E+00 -0.50000000000E+03  0.50000000000E+03  0.00000000000E+00 0. -1.
        -11    1    1    2    0    0 -0.99331387561E+01  0.12939787643E+02  0.49287415334E+03  0.49314403209E+03  0.00000000000E+00 0. -1.
         11    1    1    2    0    0  0.13802401344E+01  0.64516263908E+01 -0.46175260803E+03  0.46179973968E+03  0.00000000000E+00 0. -1.
        -15    1    1    2    0    0  0.40895537183E+01 -0.22404598344E+02 -0.32000489389E+02  0.39317674482E+02  0.17770000000E+01 0. -1.
         15    1    1    2    0    0  0.44633449035E+01  0.30131843103E+01  0.87894408020E+00  0.57385537473E+01  0.17770000000E+01 0.  1.
</event>
<event>
 6    1  0.6564965E-004  0.5219179E+03  0.7546771E-02  0.9352060E-01
        -11   -1    0    0    0    0  0.00000000000E+00  0.00000000000E+00  0.50000000000E+03  0.50000000000E+03  0.00000000000E+00 0. -1.
         11   -1    0    0    0    0 -0.00000000000E+00 -0.00000000000E+00 -0.50000000000E+03  0.50000000000E+03  0.00000000000E+00 0. -1.
        -11    1    1    2    0    0 -0.21636014436E+03  0.24520632086E+03  0.24629201951E+03  0.40938687171E+03  0.00000000000E+00 0. -1.
         11    1    1    2    0    0  0.20310093318E+03 -0.24785515520E+03 -0.35479620032E+03  0.47808211719E+03  0.00000000000E+00 0. -1.
        -15    1    1    2    0    0 -0.86960769625E+00 -0.98988108859E+01  0.26460954578E+02  0.28321061433E+02  0.17770000000E+01 0.  1.
         15    1    1    2    0    0  0.14128818885E+02  0.12547645230E+02  0.82043226229E+02  0.84209949667E+02  0.17770000000E+01 0. -1.
</event>
<event>
 6    1  0.6564965E-004  0.5005337E+03  0.7546771E-02  0.9398616E-01
        -11   -1    0    0    0    0  0.00000000000E+00  0.00000000000E+00  0.50000000000E+03  0.50000000000E+03  0.00000000000E+00 0. -1.
         11   -1    0    0    0    0 -0.00000000000E+00 -0.00000000000E+00 -0.50000000000E+03  0.50000000000E+03  0.00000000000E+00 0. -1.
        -11    1    1    2    0    0 -0.79459248835E+01  0.38867114963E+01  0.56123232255E+02  0.56816031604E+02  0.00000000000E+00 0. -1.
         11    1    1    2    0    0 -0.13629317356E+02 -0.10792587819E+02 -0.49916363458E+03  0.49946628749E+03  0.00000000000E+00 0. -1.
        -15    1    1    2    0    0  0.20508728873E+02  0.40933753375E+01  0.38645552016E+03  0.38702505148E+03  0.17770000000E+01 0. -1.
         15    1    1    2    0    0  0.10665133668E+01  0.28125009849E+01  0.56584882166E+02  0.56692629426E+02  0.17770000000E+01 0.  1.
</event>
<event>
 6    1  0.6564965E-004  0.5029295E+03  0.7546771E-02  0.9393278E-01
        -11   -1    0    0    0    0  0.00000000000E+00  0.00000000000E+00  0.50000000000E+03  0.50000000000E+03  0.00000000000E+00 0. -1.
         11   -1    0    0    0    0 -0.00000000000E+00 -0.00000000000E+00 -0.50000000000E+03  0.50000000000E+03  0.00000000000E+00 0.  1.
        -11    1    1    2    0    0  0.91179563737E+01 -0.32998902280E+01  0.48133734916E+03  0.48143501129E+03  0.00000000000E+00 0. -1.
         11    1    1    2    0    0 -0.30802911365E+01 -0.90164181353E+01 -0.49697915087E+03  0.49707047829E+03  0.00000000000E+00 0.  1.
        -15    1    1    2    0    0 -0.86023778468E+00  0.18932741036E+01  0.46107785474E+01  0.53611103040E+01  0.17770000000E+01 0. -1.
         15    1    1    2    0    0 -0.51774274525E+01  0.10423034260E+02  0.11031023166E+02  0.16133400115E+02  0.17770000000E+01 0.  1.
</event>
<event>
 6    1  0.6564965E-004  0.5092388E+03  0.7546771E-02  0.9379371E-01
        -11   -1    0    0    0    0  0.00000000000E+00  0.00000000000E+00  0.50000000000E+03  0.50000000000E+03  0.00000000000E+00 0. -1.
         11   -1    0    0    0    0 -0.00000000000E+00 -0.00000000000E+00 -0.50000000000E+03  0.50000000000E+03  0.00000000000E+00 0. -1.
        -11    1    1    2    0    0  0.27867275156E+02 -0.12658705903E+01  0.40177760188E+03  0.40274486815E+03  0.00000000000E+00 0. -1.
         11    1    1    2    0    0  0.70855723312E+01 -0.14013528269E+02 -0.49050989950E+03  0.49076119021E+03  0.00000000000E+00 0. -1.
        -15    1    1    2    0    0  0.94195679092E+01  0.96478693782E+01  0.15093136154E+02  0.20316745091E+02  0.17770000000E+01 0.  1.
         15    1    1    2    0    0 -0.44372415397E+02  0.56315294809E+01  0.73639161473E+02  0.86177196542E+02  0.17770000000E+01 0. -1.
</event>
<event>
 6    1  0.6564965E-004  0.5001044E+03  0.7546771E-02  0.9399576E-01
        -11   -1    0    0    0    0  0.00000000000E+00  0.00000000000E+00  0.50000000000E+03  0.50000000000E+03  0.00000000000E+00 0.  1.
         11   -1    0    0    0    0 -0.00000000000E+00 -0.00000000000E+00 -0.50000000000E+03  0.50000000000E+03  0.00000000000E+00 0. -1.
        -11    1    1    2    0    0 -0.74957123954E+01 -0.10768400517E+02  0.27382087911E+03  0.27413503605E+03  0.00000000000E+00 0.  1.
         11    1    1    2    0    0  0.47546849155E+01  0.20523524700E+02 -0.49945151031E+03  0.49989562236E+03  0.00000000000E+00 0. -1.
        -15    1    1    2    0    0 -0.10102728649E+01 -0.32759919788E+01  0.41870941009E+02  0.42048617155E+02  0.17770000000E+01 0.  1.
         15    1    1    2    0    0  0.37513003448E+01 -0.64791322040E+01  0.18375969020E+03  0.18392072444E+03  0.17770000000E+01 0. -1.
</event>
<event>
 6    1  0.6564965E-004  0.5037684E+03  0.7546771E-02  0.9391417E-01
        -11   -1    0    0    0    0  0.00000000000E+00  0.00000000000E+00  0.50000000000E+03  0.50000000000E+03  0.00000000000E+00 0. -1.
         11   -1    0    0    0    0 -0.00000000000E+00 -0.00000000000E+00 -0.50000000000E+03  0.50000000000E+03  0.00000000000E+00 0.  1.
        -11    1    1    2    0    0 -0.37278795232E+02 -0.45651998081E+02  0.26028504646E+03  0.26687472513E+03  0.00000000000E+00 0. -1.
         11    1    1    2    0    0  0.26399815490E+02  0.18764378143E+02 -0.49517345648E+03  0.49623160334E+03  0.00000000000E+00 0.  1.
        -15    1    1    2    0    0  0.34547772591E+01  0.67152582099E+01  0.99074414128E+02  0.99377700932E+02  0.17770000000E+01 0.  1.
         15    1    1    2    0    0  0.74242024832E+01  0.20172361728E+02  0.13581399590E+03  0.13751597060E+03  0.17770000000E+01 0. -1.
</event>
<event>
 6    1  0.6564965E-004  0.5009922E+03  0.7546771E-02  0.9397592E-01
        -11   -1    0    0    0    0  0.00000000000E+00  0.00000000000E+00  0.50000000000E+03  0.50000000000E+03  0.00000000000E+00 0. -1.
         11   -1    0    0    0    0 -0.00000000000E+00 -0.00000000000E+00 -0.50000000000E+03  0.50000000000E+03  0.00000000000E+00 0. -1.
        -11    1    1    2    0    0 -0.10610189590E+02 -0.87395509563E+00  0.49889425487E+03  0.49900783307E+03  0.00000000000E+00 0. -1.
         11    1    1    2    0    0 -0.66838109235E+01 -0.19745742259E+01 -0.41086870170E+03  0.41092780669E+03  0.00000000000E+00 0. -1.
        -15    1    1    2    0    0  0.16123463025E+02  0.10569585970E+01 -0.76481355820E+02  0.78189761084E+02  0.17770000000E+01 0. -1.
         15    1    1    2    0    0  0.11705374883E+01  0.17915707246E+01 -0.11544197351E+02  0.11874599158E+02  0.17770000000E+01 0.  1.
</event>
<event>
 6    1  0.6564965E-004  0.4848699E+03  0.7546771E-02  0.9434316E-01
        -11   -1    0    0    0    0  0.00000000000E+00  0.00000000000E+00  0.50000000000E+03  0.50000000000E+03  0.00000000000E+00 0. -1.
         11   -1    0    0    0    0 -0.00000000000E+00 -0.00000000000E+00 -0.50000000000E+03  0.50000000000E+03  0.00000000000E+00 0. -1.
        -11    1    1    2    0    0 -0.13759132476E+02  0.13635699825E+02  0.48005858039E+03  0.48044925501E+03  0.00000000000E+00 0. -1.
         11    1    1    2    0    0  0.40156347075E+01  0.80163076852E+01 -0.48954552001E+03  0.48962761633E+03  0.00000000000E+00 0. -1.
        -15    1    1    2    0    0 -0.31502237621E+01 -0.60935904362E+01  0.61154228878E+01  0.93601218076E+01  0.17770000000E+01 0. -1.
         15    1    1    2    0    0  0.12893721531E+02 -0.15558417074E+02  0.33715167339E+01  0.20563006853E+02  0.17770000000E+01 0.  1.
</event>
<event>
 6    1  0.6564965E-004  0.5015126E+03  0.7546771E-02  0.9396431E-01
        -11   -1    0    0    0    0  0.00000000000E+00  0.00000000000E+00  0.50000000000E+03  0.50000000000E+03  0.00000000000E+00 0.  1.
         11   -1    0    0    0    0 -0.00000000000E+00 -0.00000000000E+00 -0.50000000000E+03  0.50000000000E+03  0.00000000000E+00 0.  1.
        -11    1    1    2    0    0 -0.50611557857E+01  0.27281527222E+01  0.40032588225E+03  0.40036716913E+03  0.00000000000E+00 0.  1.
         11    1    1    2    0    0 -0.12111020117E+02  0.49334104443E+01 -0.49831581010E+03  0.49848737391E+03  0.00000000000E+00 0.  1.
        -15    1    1    2    0    0  0.41368271913E+01 -0.39424289151E+00  0.42356813653E+01  0.61941498445E+01  0.17770000000E+01 0. -1.
         15    1    1    2    0    0  0.13035348711E+02 -0.72673202750E+01  0.93754246491E+02  0.94951307121E+02  0.17770000000E+01 0.  1.
</event>
<event>
 6    1  0.6564965E-004  0.5026402E+03  0.7546771E-02  0.9393921E-01
        -11   -1    0    0    0    0  0.00000000000E+00  0.00000000000E+00  0.50000000000E+03  0.50000000000E+03  0.00000000000E+00 0.  1.
         11   -1    0    0    0    0 -0.00000000000E+00 -0.00000000000E+00 -0.50000000000E+03  0.50000000000E+03  0.00000000000E+00 0. -1.
        -11    1    1    2    0    0  0.25915134701E+01 -0.24293178311E+02  0.37752337136E+03  0.37831305870E+03  0.00000000000E+00 0.  1.
         11    1    1    2    0    0 -0.67896604646E+01 -0.16873558230E+01 -0.49731056711E+03  0.49735977603E+03  0.00000000000E+00 0. -1.
        -15    1    1    2    0    0  0.22863802650E+01  0.22035368996E+02  0.11641580024E+03  0.11851827410E+03  0.17770000000E+01 0.  1.
         15    1    1    2    0    0  0.19117667296E+01  0.39451651382E+01  0.33713955042E+01  0.58088911715E+01  0.17770000000E+01 0. -1.
</event>
<event>
 6    1  0.6564965E-004  0.5000767E+03  0.7546771E-02  0.9399638E-01
        -11   -1    0    0    0    0  0.00000000000E+00  0.00000000000E+00  0.50000000000E+03  0.50000000000E+03  0.00000000000E+00 0.  1.
         11   -1    0    0    0    0 -0.00000000000E+00 -0.00000000000E+00 -0.50000000000E+03  0.50000000000E+03  0.00000000000E+00 0. -1.
        -11    1    1    2    0    0  0.12802317367E+01 -0.19790735295E+01  0.12076431860E+03  0.12078731876E+03  0.00000000000E+00 0.  1.
         11    1    1    2    0    0  0.11881515447E+02  0.20883144814E+01 -0.49977770574E+03  0.49992328073E+03  0.00000000000E+00 0. -1.
        -15    1    1    2    0    0 -0.94079596994E+01  0.10799747754E+01  0.30317971938E+03  0.30333278099E+03  0.17770000000E+01 0.  1.
         15    1    1    2    0    0 -0.37537874844E+01 -0.11892157273E+01  0.75833667757E+02  0.75956619521E+02  0.17770000000E+01 0. -1.
</event>
<event>
 6    1  0.6564965E-004  0.5025688E+03  0.7546771E-02  0.9394080E-01
        -11   -1    0    0    0    0  0.00000000000E+00  0.00000000000E+00  0.50000000000E+03  0.50000000000E+03  0.00000000000E+00 0. -1.
         11   -1    0    0    0    0 -0.00000000000E+00 -0.00000000000E+00 -0.50000000000E+03  0.50000000000E+03  0.00000000000E+00 0.  1.
        -11    1    1    2    0    0  0.76579896206E+01 -0.74332124912E+01  0.39999134376E+03  0.40013369332E+03  0.00000000000E+00 0. -1.
         11    1    1    2    0    0  0.16268960327E+01 -0.13027386803E+02 -0.49725795921E+03  0.49743123906E+03  0.00000000000E+00 0.  1.
        -15    1    1    2    0    0 -0.11886413420E+02  0.19799725912E+01  0.25492991895E+02  0.28253450767E+02  0.17770000000E+01 0. -1.
         15    1    1    2    0    0  0.26015277666E+01  0.18480626703E+02  0.71773623559E+02  0.74181616846E+02  0.17770000000E+01 0.  1.
</event>
<event>
 6    1  0.6564965E-004  0.5018093E+03  0.7546771E-02  0.9395770E-01
        -11   -1    0    0    0    0  0.00000000000E+00  0.00000000000E+00  0.50000000000E+03  0.50000000000E+03  0.00000000000E+00 0. -1.
         11   -1    0    0    0    0 -0.00000000000E+00 -0.00000000000E+00 -0.50000000000E+03  0.50000000000E+03  0.00000000000E+00 0.  1.
        -11    1    1    2    0    0  0.29097994906E+02  0.22722076096E+02  0.24824900246E+03  0.25097918893E+03  0.00000000000E+00 0. -1.
         11    1    1    2    0    0 -0.18789337192E+02 -0.29934656816E+01 -0.49782723118E+03  0.49819067849E+03  0.00000000000E+00 0.  1.
        -15    1    1    2    0    0 -0.10893295803E+02 -0.16924477914E+02  0.17268872789E+03  0.17386677750E+03  0.17770000000E+01 0. -1.
         15    1    1    2    0    0  0.58463808959E+00 -0.28041325008E+01  0.76889500823E+02  0.76963355089E+02  0.17770000000E+01 0.  1.
</event>
<event>
 6    1  0.6564965E-004  0.5010360E+03  0.7546771E-02  0.9397495E-01
        -11   -1    0    0    0    0  0.00000000000E+00  0.00000000000E+00  0.50000000000E+03  0.50000000000E+03  0.00000000000E+00 0.  1.
         11   -1    0    0    0    0 -0.00000000000E+00 -0.00000000000E+00 -0.50000000000E+03  0.50000000000E+03  0.00000000000E+00 0. -1.
        -11    1    1    2    0    0  0.16546399320E+02  0.31619194306E+01  0.28413392368E+03  0.28463286467E+03  0.00000000000E+00 0.  1.
         11    1    1    2    0    0  0.63715357517E+01  0.92933499494E+01 -0.49883675675E+03  0.49896399941E+03  0.00000000000E+00 0. -1.
        -15    1    1    2    0    0 -0.50148811413E+01 -0.29518271246E+00  0.46537793716E+02  0.46841863100E+02  0.17770000000E+01 0. -1.
         15    1    1    2    0    0 -0.17903053930E+02 -0.12160086668E+02  0.16816503935E+03  0.16956127281E+03  0.17770000000E+01 0.  1.
</event>
<event>
 6    1  0.6564965E-004  0.4926568E+03  0.7546771E-02  0.9416392E-01
        -11   -1    0    0    0    0  0.00000000000E+00  0.00000000000E+00  0.50000000000E+03  0.50000000000E+03  0.00000000000E+00 0. -1.
         11   -1    0    0    0    0 -0.00000000000E+00 -0.00000000000E+00 -0.50000000000E+03  0.50000000000E+03  0.00000000000E+00 0. -1.
        -11    1    1    2    0    0  0.71070252850E+01  0.13015873570E+01  0.49113518505E+03  0.49118832838E+03  0.00000000000E+00 0. -1.
         11    1    1    2    0    0 -0.18991962164E+01  0.86307729019E+01 -0.49411456895E+03  0.49419359004E+03  0.00000000000E+00 0. -1.
        -15    1    1    2    0    0 -0.10843631178E+01  0.33235556080E+00  0.26806962719E+01  0.34103027860E+01  0.17770000000E+01 0.  1.
         15    1    1    2    0    0 -0.41234659508E+01 -0.10264715820E+02  0.29868762583E+00  0.11207778799E+02  0.17770000000E+01 0. -1.
</event>
<event>
 6    1  0.6564965E-004  0.5020169E+03  0.7546771E-02  0.9395308E-01
        -11   -1    0    0    0    0  0.00000000000E+00  0.00000000000E+00  0.50000000000E+03  0.50000000000E+03  0.00000000000E+00 0. -1.
         11   -1    0    0    0    0 -0.00000000000E+00 -0.00000000000E+00 -0.50000000000E+03  0.50000000000E+03  0.00000000000E+00 0.  1.
        -11    1    1    2    0    0  0.23004971361E+01 -0.95075052119E+01  0.43719410781E+03  0.43730352485E+03  0.00000000000E+00 0. -1.
         11    1    1    2    0    0  0.53843102552E+00 -0.69721177500E+01 -0.49793401305E+03  0.49798311385E+03  0.00000000000E+00 0.  1.
        -15    1    1    2    0    0  0.50900088208E+01  0.21025968346E+01  0.14436576642E+02  0.15553185442E+02  0.17770000000E+01 0.  1.
         15    1    1    2    0    0 -0.79289369824E+01  0.14377026127E+02  0.46303328596E+02  0.49160175854E+02  0.17770000000E+01 0. -1.
</event>
<event>
 6    1  0.6564965E-004  0.5015785E+03  0.7546771E-02  0.9396285E-01
        -11   -1    0    0    0    0  0.00000000000E+00  0.00000000000E+00  0.50000000000E+03  0.50000000000E+03  0.00000000000E+00 0.  1.
         11   -1    0    0    0    0 -0.00000000000E+00 -0.00000000000E+00 -0.50000000000E+03  0.50000000000E+03  0.00000000000E+00 0. -1.
        -11    1    1    2    0    0  0.59419520371E+01 -0.52009719569E+01  0.49835894609E+03  0.49842150441E+03  0.00000000000E+00 0.  1.
         11    1    1    2    0    0 -0.23690790871E+01  0.75504600607E+01 -0.47735121270E+03  0.47741680139E+03  0.00000000000E+00 0. -1.
        -15    1    1    2    0    0 -0.59450555680E+01  0.18000690223E+01 -0.14651413148E+02  0.16012669060E+02  0.17770000000E+01 0.  1.
         15    1    1    2    0    0  0.23721826180E+01 -0.41495571261E+01 -0.63563202416E+01  0.81490251398E+01  0.17770000000E+01 0. -1.
</event>
<event>
 6    1  0.6564965E-004  0.4841438E+03  0.7546771E-02  0.9436005E-01
        -11   -1    0    0    0    0  0.00000000000E+00  0.00000000000E+00  0.50000000000E+03  0.50000000000E+03  0.00000000000E+00 0.  1.
         11   -1    0    0    0    0 -0.00000000000E+00 -0.00000000000E+00 -0.50000000000E+03  0.50000000000E+03  0.00000000000E+00 0.  1.
        -11    1    1    2    0    0  0.14856963176E+02  0.62261097607E+01  0.48384730401E+03  0.48411538645E+03  0.00000000000E+00 0.  1.
         11    1    1    2    0    0  0.97232842907E+01  0.67431884794E+01 -0.48442664704E+03  0.48457113947E+03  0.00000000000E+00 0.  1.
        -15    1    1    2    0    0 -0.25834375107E+02 -0.11275922689E+02 -0.74854298243E+00  0.28253838947E+02  0.17770000000E+01 0.  1.
         15    1    1    2    0    0  0.12541276397E+01 -0.16933755511E+01  0.13278860079E+01  0.30596351324E+01  0.17770000000E+01 0. -1.
</event>
<event>
 6    1  0.6564965E-004  0.5003681E+03  0.7546771E-02  0.9398986E-01
        -11   -1    0    0    0    0  0.00000000000E+00  0.00000000000E+00  0.50000000000E+03  0.50000000000E+03  0.00000000000E+00 0.  1.
         11   -1    0    0    0    0 -0.00000000000E+00 -0.00000000000E+00 -0.50000000000E+03  0.50000000000E+03  0.00000000000E+00 0.  1.
        -11    1    1    2    0    0  0.37706388120E+01  0.82220842083E+01  0.42054005913E+03  0.42063732801E+03  0.00000000000E+00 0.  1.
         11    1    1    2    0    0  0.38172105357E+01 -0.92327314076E+01 -0.49953198373E+03  0.49963188169E+03  0.00000000000E+00 0.  1.
        -15    1    1    2    0    0 -0.32434704645E+01 -0.19526789051E+01  0.17671914946E+02  0.18160048524E+02  0.17770000000E+01 0.  1.
         15    1    1    2    0    0 -0.43443788833E+01  0.29633261045E+01  0.61320009660E+02  0.61570741779E+02  0.17770000000E+01 0. -1.
</event>
<event>
 6    1  0.6564965E-004  0.5007259E+03  0.7546771E-02  0.9398187E-01
        -11   -1    0    0    0    0  0.00000000000E+00  0.00000000000E+00  0.50000000000E+03  0.50000000000E+03  0.00000000000E+00 0. -1.
         11   -1    0    0    0    0 -0.00000000000E+00 -0.00000000000E+00 -0.50000000000E+03  0.50000000000E+03  0.00000000000E+00 0. -1.
        -11    1    1    2    0    0 -0.17657147417E+02 -0.20662162648E+02  0.34435411730E+03  0.34542503951E+03  0.00000000000E+00 0. -1.
         11    1    1    2    0    0  0.15769772693E+02  0.76076511177E+01 -0.49896704419E+03  0.49927414641E+03  0.00000000000E+00 0. -1.
        -15    1    1    2    0    0  0.85042027609E+00  0.91129323162E+01  0.12600172100E+03  0.12634619176E+03  0.17770000000E+01 0. -1.
         15    1    1    2    0    0  0.10369544476E+01  0.39415792142E+01  0.28611205897E+02  0.28954622310E+02  0.17770000000E+01 0. -1.
</event>
<event>
 6    1  0.6564965E-004  0.5073921E+03  0.7546771E-02  0.9383420E-01
        -11   -1    0    0    0    0  0.00000000000E+00  0.00000000000E+00  0.50000000000E+03  0.50000000000E+03  0.00000000000E+00 0.  1.
         11   -1    0    0    0    0 -0.00000000000E+00 -0.00000000000E+00 -0.50000000000E+03  0.50000000000E+03  0.00000000000E+00 0.  1.
        -11    1    1    2    0    0  0.14525011703E+02  0.14962524034E+02  0.49216630114E+03  0.49260787759E+03  0.00000000000E+00 0.  1.
         11    1    1    2    0    0 -0.85732935432E+01 -0.60500263829E+01 -0.47099114776E+03  0.47110801888E+03  0.00000000000E+00 0.  1.
        -15    1    1    2    0    0  0.15921188969E+01  0.60903737694E+01 -0.17933684093E+02  0.19089322916E+02  0.17770000000E+01 0. -1.
         15    1    1    2    0    0 -0.75438370567E+01 -0.15002871420E+02 -0.32414692825E+01  0.17194780618E+02  0.17770000000E+01 0.  1.
</event>
<event>
 6    1  0.6564965E-004  0.5026023E+03  0.7546771E-02  0.9394006E-01
        -11   -1    0    0    0    0  0.00000000000E+00  0.00000000000E+00  0.50000000000E+03  0.50000000000E+03  0.00000000000E+00 0.  1.
         11   -1    0    0    0    0 -0.00000000000E+00 -0.00000000000E+00 -0.50000000000E+03  0.50000000000E+03  0.00000000000E+00 0. -1.
        -11    1    1    2    0    0  0.53325124348E+01  0.75496986061E+01  0.49731183002E+03  0.49739771805E+03  0.00000000000E+00 0.  1.
         11    1    1    2    0    0  0.29900361538E+01  0.61769969301E+01 -0.47097394195E+03  0.47102393740E+03  0.00000000000E+00 0. -1.
        -15    1    1    2    0    0 -0.84125981201E+01 -0.94292124444E+01 -0.18838024822E+02  0.22753258286E+02  0.17770000000E+01 0. -1.
         15    1    1    2    0    0  0.90049531526E-01 -0.42974830917E+01 -0.74998632460E+01  0.88250862630E+01  0.17770000000E+01 0.  1.
</event>
<event>
 6    1  0.6564965E-004  0.5023425E+03  0.7546771E-02  0.9394583E-01
        -11   -1    0    0    0    0  0.00000000000E+00  0.00000000000E+00  0.50000000000E+03  0.50000000000E+03  0.00000000000E+00 0.  1.
         11   -1    0    0    0    0 -0.00000000000E+00 -0.00000000000E+00 -0.50000000000E+03  0.50000000000E+03  0.00000000000E+00 0.  1.
        -11    1    1    2    0    0 -0.24041554993E+02  0.13483642823E+02  0.95683258527E+02  0.99574549724E+02  0.00000000000E+00 0.  1.
         11    1    1    2    0    0  0.65581671850E+01  0.47342857716E+01 -0.49759172822E+03  0.49765746353E+03  0.00000000000E+00 0.  1.
        -15    1    1    2    0    0  0.32924089007E+01 -0.58281217714E+01  0.14390899359E+03  0.14407554659E+03  0.17770000000E+01 0.  1.
         15    1    1    2    0    0  0.14190978907E+02 -0.12389806823E+02  0.25799947610E+03  0.25869244016E+03  0.17770000000E+01 0.  1.
</event>
<event>
 6    1  0.6564965E-004  0.5026706E+03  0.7546771E-02  0.9393854E-01
        -11   -1    0    0    0    0  0.00000000000E+00  0.00000000000E+00  0.50000000000E+03  0.50000000000E+03  0.00000000000E+00 0.  1.
         11   -1    0    0    0    0 -0.00000000000E+00 -0.00000000000E+00 -0.50000000000E+03  0.50000000000E+03  0.00000000000E+00 0. -1.
        -11    1    1    2    0    0  0.20968605037E+02  0.10074619752E+02  0.36015715780E+03  0.36090768719E+03  0.00000000000E+00 0.  1.
         11    1    1    2    0    0 -0.10810996362E+02  0.11818392784E+02 -0.49707138800E+03  0.49732938464E+03  0.00000000000E+00 0. -1.
        -15    1    1    2    0    0 -0.11939636366E+02 -0.19748589028E+02  0.13647938687E+03  0.13842811295E+03  0.17770000000E+01 0. -1.
         15    1    1    2    0    0  0.17820276906E+01 -0.21444235079E+01  0.43484333714E+00  0.33348152272E+01  0.17770000000E+01 0.  1.
</event>
<event>
 6    1  0.6564965E-004  0.5009094E+03  0.7546771E-02  0.9397777E-01
        -11   -1    0    0    0    0  0.00000000000E+00  0.00000000000E+00  0.50000000000E+03  0.50000000000E+03  0.00000000000E+00 0. -1.
         11   -1    0    0    0    0 -0.00000000000E+00 -0.00000000000E+00 -0.50000000000E+03  0.50000000000E+03  0.00000000000E+00 0. -1.
        -11    1    1    2    0    0 -0.92824349089E+01  0.56205036022E+01  0.39597754074E+03  0.39612620013E+03  0.00000000000E+00 0. -1.
         11    1    1    2    0    0 -0.84322902553E+01 -0.28826694467E+01 -0.49901103139E+03  0.49909059574E+03  0.00000000000E+00 0. -1.
        -15    1    1    2    0    0  0.14920738547E+02 -0.50491507377E+00  0.78502711630E+02  0.79929449143E+02  0.17770000000E+01 0.  1.
         15    1    1    2    0    0  0.27939866169E+01 -0.22329190817E+01  0.24530779022E+02  0.24853754993E+02  0.17770000000E+01 0. -1.
</event>
<event>
 6    1  0.6564965E-004  0.5057056E+03  0.7546771E-02  0.9387133E-01
        -11   -1    0    0    0    0  0.00000000000E+00  0.00000000000E+00  0.50000000000E+03  0.50000000000E+03  0.00000000000E+00 0. -1.
         11   -1    0    0    0    0 -0.00000000000E+00 -0.00000000000E+00 -0.50000000000E+03  0.50000000000E+03  0.00000000000E+00 0.  1.
        -11    1    1    2    0    0 -0.53734076815E+00 -0.35295273043E+02  0.39137037254E+03  0.39295904816E+03  0.00000000000E+00 0. -1.
         11    1    1    2    0    0  0.68912955169E+01 -0.13047962104E+00 -0.49424637037E+03  0.49429442805E+03  0.00000000000E+00 0.  1.
        -15    1    1    2    0    0 -0.11980302373E+02  0.73148950130E+01  0.16583939692E+02  0.21799544002E+02  0.17770000000E+01 0.  1.
         15    1    1    2    0    0  0.56263476242E+01  0.28110857651E+02  0.86292058139E+02  0.90946979787E+02  0.17770000000E+01 0. -1.
</event>
<event>
 6    1  0.6564965E-004  0.5041547E+03  0.7546771E-02  0.9390561E-01
        -11   -1    0    0    0    0  0.00000000000E+00  0.00000000000E+00  0.50000000000E+03  0.50000000000E+03  0.00000000000E+00 0. -1.
         11   -1    0    0    0    0 -0.00000000000E+00 -0.00000000000E+00 -0.50000000000E+03  0.50000000000E+03  0.00000000000E+00 0. -1.
        -11    1    1    2    0    0 -0.34477450960E+02 -0.44866238913E+02  0.49260619233E+03  0.49584527298E+03  0.00000000000E+00 0. -1.
         11    1    1    2    0    0 -0.76507430767E+01 -0.18615817578E+01 -0.30795751247E+03  0.30805815822E+03  0.00000000000E+00 0. -1.
        -15    1    1    2    0    0  0.43832141631E+02  0.43850766196E+02 -0.17716961281E+03  0.18771354711E+03  0.17770000000E+01 0. -1.
         15    1    1    2    0    0 -0.17039475947E+01  0.28770544748E+01 -0.74790670390E+01  0.83830216885E+01  0.17770000000E+01 0.  1.
</event>
<event>
 6    1  0.6564965E-004  0.5002853E+03  0.7546771E-02  0.9399172E-01
        -11   -1    0    0    0    0  0.00000000000E+00  0.00000000000E+00  0.50000000000E+03  0.50000000000E+03  0.00000000000E+00 0.  1.
         11   -1    0    0    0    0 -0.00000000000E+00 -0.00000000000E+00 -0.50000000000E+03  0.50000000000E+03  0.00000000000E+00 0. -1.
        -11    1    1    2    0    0 -0.53003717915E+01 -0.53165928504E+01  0.49965834473E+03  0.49971474018E+03  0.00000000000E+00 0.  1.
         11    1    1    2    0    0  0.47436882695E+01  0.95180514921E+01 -0.28943857783E+03  0.28963388306E+03  0.00000000000E+00 0. -1.
        -15    1    1    2    0    0  0.67873027196E+00 -0.85196480770E+01 -0.12583676465E+03  0.12613918560E+03  0.17770000000E+01 0. -1.
         15    1    1    2    0    0 -0.12204674991E+00  0.43181894353E+01 -0.84383002253E+02  0.84512191154E+02  0.17770000000E+01 0.  1.
</event>
<event>
 6    1  0.6564965E-004  0.5019096E+03  0.7546771E-02  0.9395547E-01
        -11   -1    0    0    0    0  0.00000000000E+00  0.00000000000E+00  0.50000000000E+03  0.50000000000E+03  0.00000000000E+00 0.  1.
         11   -1    0    0    0    0 -0.00000000000E+00 -0.00000000000E+00 -0.50000000000E+03  0.50000000000E+03  0.00000000000E+00 0.  1.
        -11    1    1    2    0    0 -0.72421052472E+01 -0.24502001310E+02  0.49743469411E+03  0.49809042458E+03  0.00000000000E+00 0.  1.
         11    1    1    2    0    0 -0.96465281249E+01  0.26110638218E+00 -0.35724294475E+03  0.35737325761E+03  0.00000000000E+00 0.  1.
        -15    1    1    2    0    0 -0.17408824419E+01 -0.14987262203E+01 -0.19697087083E+02  0.19910043208E+02  0.17770000000E+01 0.  1.
         15    1    1    2    0    0  0.18629515814E+02  0.25739621148E+02 -0.12049466227E+03  0.12462627460E+03  0.17770000000E+01 0.  1.
</event>
