<event>
 8    1  0.1390538E-009  0.5015230E+03  0.7546771E-02  0.9396408E-01
        -11   -1    0    0    0    0  0.00000000000E+00  0.00000000000E+00  0.50000000000E+03  0.50000000000E+03  0.00000000000E+00 0.  1.
         11   -1    0    0    0    0 -0.00000000000E+00 -0.00000000000E+00 -0.50000000000E+03  0.50000000000E+03  0.00000000000E+00 0. -1.
         25    2    1    2    0    0  0.12108544900E+03 -0.30352781771E+03  0.35929819558E+03  0.50152304739E+03  0.12505739333E+03 0.  0.
         23    2    1    2    0    0 -0.12108544900E+03  0.30352781771E+03 -0.35929819558E+03  0.49847695261E+03  0.11221968122E+03 0.  0.
        -11    1    4    4    0    0 -0.13579052716E+03  0.25651511216E+03 -0.26956012614E+03  0.39610823223E+03  0.00000000000E+00 0. -1.
         11    1    4    4    0    0  0.14705078156E+02  0.47012705555E+02 -0.89738069438E+02  0.10236872039E+03  0.00000000000E+00 0.  1.
        -15    1    3    3    0    0  0.80056419553E+02 -0.17246476117E+03  0.11774305142E+03  0.22365086193E+03  0.17770000000E+01 0. -1.
         15    1    3    3    0    0  0.41029029446E+02 -0.13106305654E+03  0.24155514416E+03  0.27787218545E+03  0.17770000000E+01 0. -1.
</event>
<event>
 8    1  0.1390538E-009  0.5011826E+03  0.7546771E-02  0.9397167E-01
        -11   -1    0    0    0    0  0.00000000000E+00  0.00000000000E+00  0.50000000000E+03  0.50000000000E+03  0.00000000000E+00 0. -1.
         11   -1    0    0    0    0 -0.00000000000E+00 -0.00000000000E+00 -0.50000000000E+03  0.50000000000E+03  0.00000000000E+00 0.  1.
         25    2    1    2    0    0 -0.30819560658E+03  0.29647215849E+03 -0.22949346989E+03  0.50118264008E+03  0.12504604479E+03 0.  0.
         23    2    1    2    0    0  0.30819560658E+03 -0.29647215849E+03  0.22949346989E+03  0.49881735992E+03  0.11520083834E+03 0.  0.
        -11    1    4    4    0    0  0.10271850979E+03 -0.61826200422E+02  0.16237298194E+02  0.12098438397E+03  0.00000000000E+00 0.  1.
         11    1    4    4    0    0  0.20547709679E+03 -0.23464595807E+03  0.21325617170E+03  0.37783297595E+03  0.00000000000E+00 0. -1.
        -15    1    3    3    0    0 -0.16370104540E+02 -0.10787199132E+02 -0.92048554748E+00  0.19706572771E+02  0.17770000000E+01 0. -1.
         15    1    3    3    0    0 -0.29182550204E+03  0.30725935763E+03 -0.22857298434E+03  0.48147606731E+03  0.17770000000E+01 0. -1.
</event>
<event>
 6    1  0.1390538E-009  0.4547928E+03  0.7546771E-02  0.9507065E-01
        -11   -1    0    0    0    0  0.00000000000E+00  0.00000000000E+00  0.50000000000E+03  0.50000000000E+03  0.00000000000E+00 0. -1.
         11   -1    0    0    0    0 -0.00000000000E+00 -0.00000000000E+00 -0.50000000000E+03  0.50000000000E+03  0.00000000000E+00 0. -1.
        -11    1    1    2    0    0 -0.34780020677E+02  0.24930338810E+02 -0.92631275445E+02  0.10203785975E+03  0.00000000000E+00 0. -1.
         11    1    1    2    0    0 -0.36974990025E+03 -0.20023204927E+03 -0.36111064892E+02  0.42203302157E+03  0.00000000000E+00 0. -1.
        -15    1    1    2    0    0  0.32841880206E+03  0.92547520186E+02  0.12509690331E+03  0.36342309501E+03  0.17770000000E+01 0. -1.
         15    1    1    2    0    0  0.76111118868E+02  0.82754190275E+02  0.36454370230E+01  0.11250602368E+03  0.17770000000E+01 0.  1.
</event>
<event>
 7    1  0.1390538E-009  0.4742505E+03  0.7546771E-02  0.9459344E-01
        -11   -1    0    0    0    0  0.00000000000E+00  0.00000000000E+00  0.50000000000E+03  0.50000000000E+03  0.00000000000E+00 0. -1.
         11   -1    0    0    0    0 -0.00000000000E+00 -0.00000000000E+00 -0.50000000000E+03  0.50000000000E+03  0.00000000000E+00 0.  1.
         25    2    1    2    0    0 -0.39193006366E+03  0.75355189948E+02 -0.26018667997E+03  0.49256237811E+03  0.12503202967E+03 0.  0.
        -11    1    1    2    0    0  0.33386251132E+03 -0.10535143782E+03  0.26898165860E+03  0.44149092242E+03  0.00000000000E+00 0. -1.
         11    1    1    2    0    0  0.58067552343E+02  0.29996247873E+02 -0.87949786277E+01  0.65946699468E+02  0.00000000000E+00 0.  1.
        -15    1    3    3    0    0 -0.51643463521E+02  0.29905960065E+02 -0.93469004911E+02  0.11090999225E+03  0.17770000000E+01 0. -1.
         15    1    3    3    0    0 -0.34028660014E+03  0.45449229883E+02 -0.16671767506E+03  0.38165238587E+03  0.17770000000E+01 0.  1.
</event>
<event>
 6    1  0.1390538E-009  0.5027018E+03  0.7546771E-02  0.9393785E-01
        -11   -1    0    0    0    0  0.00000000000E+00  0.00000000000E+00  0.50000000000E+03  0.50000000000E+03  0.00000000000E+00 0.  1.
         11   -1    0    0    0    0 -0.00000000000E+00 -0.00000000000E+00 -0.50000000000E+03  0.50000000000E+03  0.00000000000E+00 0. -1.
        -11    1    1    2    0    0 -0.64457875634E+02 -0.30050572092E+03 -0.12554474508E+03  0.33199395936E+03  0.00000000000E+00 0.  1.
         11    1    1    2    0    0 -0.11959944951E+03 -0.97549170971E+02 -0.72947134530E+02  0.17070780157E+03  0.00000000000E+00 0. -1.
        -15    1    1    2    0    0  0.19706572268E+03  0.31896748951E+03  0.15163734510E+03  0.40444060204E+03  0.17770000000E+01 0.  1.
         15    1    1    2    0    0 -0.13008397529E+02  0.79087402381E+02  0.46854534507E+02  0.92857637029E+02  0.17770000000E+01 0. -1.
</event>
<event>
 8    1  0.1390538E-009  0.5024433E+03  0.7546771E-02  0.9394359E-01
        -11   -1    0    0    0    0  0.00000000000E+00  0.00000000000E+00  0.50000000000E+03  0.50000000000E+03  0.00000000000E+00 0. -1.
         11   -1    0    0    0    0 -0.00000000000E+00 -0.00000000000E+00 -0.50000000000E+03  0.50000000000E+03  0.00000000000E+00 0.  1.
         25    2    1    2    0    0 -0.13898105007E+03 -0.44562033966E+03  0.13755834915E+03  0.50244328143E+03  0.12503492404E+03 0.  0.
         23    2    1    2    0    0  0.13898105007E+03  0.44562033966E+03 -0.13755834915E+03  0.49755671857E+03  0.10366855538E+03 0.  0.
        -11    1    4    4    0    0  0.80046066010E+02  0.18503525781E+03 -0.10937353064E+02  0.20190355373E+03  0.00000000000E+00 0. -1.
         11    1    4    4    0    0  0.58934984059E+02  0.26058508185E+03 -0.12662099609E+03  0.29565316484E+03  0.00000000000E+00 0.  1.
        -15    1    3    3    0    0 -0.11122516931E+03 -0.43731916812E+03  0.11496141397E+03  0.46565907864E+03  0.17770000000E+01 0. -1.
         15    1    3    3    0    0 -0.27755880761E+02 -0.83011715449E+01  0.22596935186E+02  0.36784202786E+02  0.17770000000E+01 0. -1.
</event>
<event>
 8    1  0.1390538E-009  0.5019709E+03  0.7546771E-02  0.9395411E-01
        -11   -1    0    0    0    0  0.00000000000E+00  0.00000000000E+00  0.50000000000E+03  0.50000000000E+03  0.00000000000E+00 0. -1.
         11   -1    0    0    0    0 -0.00000000000E+00 -0.00000000000E+00 -0.50000000000E+03  0.50000000000E+03  0.00000000000E+00 0.  1.
         25    2    1    2    0    0  0.36674844775E+03  0.31629955255E+03 -0.42320589210E+02  0.50197085430E+03  0.12503549665E+03 0.  0.
         23    2    1    2    0    0 -0.36674844775E+03 -0.31629955255E+03  0.42320589210E+02  0.49802914570E+03  0.10813032333E+03 0.  0.
        -11    1    4    4    0    0 -0.39346749262E+02 -0.89214400203E+02  0.17368065460E+01  0.97521240651E+02  0.00000000000E+00 0. -1.
         11    1    4    4    0    0 -0.32740169849E+03 -0.22708515235E+03  0.40583782664E+02  0.40050790505E+03  0.00000000000E+00 0.  1.
        -15    1    3    3    0    0  0.21010244219E+03  0.17627704426E+03  0.38296221740E+02  0.27692307754E+03  0.17770000000E+01 0. -1.
         15    1    3    3    0    0  0.15664600556E+03  0.14002250829E+03 -0.80616810950E+02  0.22504777676E+03  0.17770000000E+01 0. -1.
</event>
<event>
 8    1  0.1390538E-009  0.5017176E+03  0.7546771E-02  0.9395975E-01
        -11   -1    0    0    0    0  0.00000000000E+00  0.00000000000E+00  0.50000000000E+03  0.50000000000E+03  0.00000000000E+00 0.  1.
         11   -1    0    0    0    0 -0.00000000000E+00 -0.00000000000E+00 -0.50000000000E+03  0.50000000000E+03  0.00000000000E+00 0. -1.
         25    2    1    2    0    0 -0.15873340965E+03  0.31243664286E+03 -0.33658900303E+03  0.50171764005E+03  0.12496192316E+03 0.  0.
         23    2    1    2    0    0  0.15873340965E+03 -0.31243664286E+03  0.33658900303E+03  0.49828235995E+03  0.11036395309E+03 0.  0.
        -11    1    4    4    0    0  0.65970674248E+02 -0.20382935011E+03  0.25766605503E+03  0.33509749289E+03  0.00000000000E+00 0.  1.
         11    1    4    4    0    0  0.92762735402E+02 -0.10860729274E+03  0.78922947998E+02  0.16318486706E+03  0.00000000000E+00 0. -1.
        -15    1    3    3    0    0 -0.18004120967E+03  0.27176737661E+03 -0.29086194239E+03  0.43689377591E+03  0.17770000000E+01 0. -1.
         15    1    3    3    0    0  0.21307800019E+02  0.40669266250E+02 -0.45727060637E+02  0.64823864143E+02  0.17770000000E+01 0. -1.
</event>
<event>
 8    1  0.1390538E-009  0.5002179E+03  0.7546771E-02  0.9399322E-01
        -11   -1    0    0    0    0  0.00000000000E+00  0.00000000000E+00  0.50000000000E+03  0.50000000000E+03  0.00000000000E+00 0. -1.
         11   -1    0    0    0    0 -0.00000000000E+00 -0.00000000000E+00 -0.50000000000E+03  0.50000000000E+03  0.00000000000E+00 0.  1.
         25    2    1    2    0    0 -0.47811631065E+03 -0.58608930614E+02  0.46208572239E+02  0.49978213702E+03  0.12496695195E+03 0.  0.
         23    2    1    2    0    0  0.47811631065E+03  0.58608930614E+02 -0.46208572239E+02  0.50021786298E+03  0.12669832294E+03 0.  0.
        -11    1    4    4    0    0  0.20323447658E+03 -0.32060015581E+01 -0.75773680282E+02  0.21692436825E+03  0.00000000000E+00 0.  1.
         11    1    4    4    0    0  0.27488183407E+03  0.61814932172E+02  0.29565108043E+02  0.28329349473E+03  0.00000000000E+00 0. -1.
        -15    1    3    3    0    0 -0.40536643624E+03 -0.27847503159E+02  0.79531570797E+02  0.41403606068E+03  0.17770000000E+01 0.  1.
         15    1    3    3    0    0 -0.72749874409E+02 -0.30761427455E+02 -0.33322998558E+02  0.85746076339E+02  0.17770000000E+01 0.  1.
</event>
<event>
 8    1  0.1390538E-009  0.5049113E+03  0.7546771E-02  0.9388887E-01
        -11   -1    0    0    0    0  0.00000000000E+00  0.00000000000E+00  0.50000000000E+03  0.50000000000E+03  0.00000000000E+00 0.  1.
         11   -1    0    0    0    0 -0.00000000000E+00 -0.00000000000E+00 -0.50000000000E+03  0.50000000000E+03  0.00000000000E+00 0. -1.
         25    2    1    2    0    0  0.86764692437E+01 -0.48105217792E+03  0.88379137870E+02  0.50491133375E+03  0.12505240477E+03 0.  0.
         23    2    1    2    0    0 -0.86764692437E+01  0.48105217792E+03 -0.88379137870E+02  0.49508866625E+03  0.76259008910E+02 0.  0.
        -11    1    4    4    0    0 -0.95408219943E+01  0.44914463555E+03 -0.61650823333E+02  0.45345645320E+03  0.00000000000E+00 0.  1.
         11    1    4    4    0    0  0.86435275056E+00  0.31907542364E+02 -0.26728314537E+02  0.41632213050E+02  0.00000000000E+00 0. -1.
        -15    1    3    3    0    0  0.36476802335E+02 -0.14169243130E+03  0.74330818008E+02  0.16412047535E+03  0.17770000000E+01 0.  1.
         15    1    3    3    0    0 -0.27800333091E+02 -0.33935974662E+03  0.14048319863E+02  0.34079085840E+03  0.17770000000E+01 0.  1.
</event>
<event>
 8    1  0.1390538E-009  0.5048659E+03  0.7546771E-02  0.9388987E-01
        -11   -1    0    0    0    0  0.00000000000E+00  0.00000000000E+00  0.50000000000E+03  0.50000000000E+03  0.00000000000E+00 0.  1.
         11   -1    0    0    0    0 -0.00000000000E+00 -0.00000000000E+00 -0.50000000000E+03  0.50000000000E+03  0.00000000000E+00 0. -1.
         25    2    1    2    0    0  0.11744017189E+03  0.32062142154E+03 -0.35027704262E+03  0.50486594302E+03  0.12492127083E+03 0.  0.
         23    2    1    2    0    0 -0.11744017189E+03 -0.32062142154E+03  0.35027704262E+03  0.49513405698E+03  0.76638357707E+02 0.  0.
        -11    1    4    4    0    0 -0.28384039175E+02 -0.13356705766E+03  0.94887293156E+02  0.16628112032E+03  0.00000000000E+00 0. -1.
         11    1    4    4    0    0 -0.89056132714E+02 -0.18705436388E+03  0.25538974946E+03  0.32885293666E+03  0.00000000000E+00 0.  1.
        -15    1    3    3    0    0 -0.19301478171E+01 -0.10566845486E+02 -0.58759527602E+01  0.12372075168E+02  0.17770000000E+01 0. -1.
         15    1    3    3    0    0  0.11937031971E+03  0.33118826703E+03 -0.34440108986E+03  0.49249386785E+03  0.17770000000E+01 0. -1.
</event>
<event>
 7    1  0.1390538E-009  0.5028143E+03  0.7546771E-02  0.9393534E-01
        -11   -1    0    0    0    0  0.00000000000E+00  0.00000000000E+00  0.50000000000E+03  0.50000000000E+03  0.00000000000E+00 0. -1.
         11   -1    0    0    0    0 -0.00000000000E+00 -0.00000000000E+00 -0.50000000000E+03  0.50000000000E+03  0.00000000000E+00 0.  1.
         25    2    1    2    0    0 -0.23126396648E+03 -0.42095794774E+03  0.29867616107E+02  0.49718570817E+03  0.12495174248E+03 0.  0.
        -11    1    1    2    0    0  0.19839311726E+03  0.32492009003E+03 -0.80898859285E+02  0.38920112964E+03  0.00000000000E+00 0.  1.
         11    1    1    2    0    0  0.32870849225E+02  0.96037857717E+02  0.51031243179E+02  0.11361316220E+03  0.00000000000E+00 0. -1.
        -15    1    3    3    0    0 -0.23680146234E+03 -0.42641403152E+03  0.26345394612E+02  0.48846811195E+03  0.17770000000E+01 0.  1.
         15    1    3    3    0    0  0.55374958547E+01  0.54560837778E+01  0.35222214950E+01  0.87175962164E+01  0.17770000000E+01 0.  1.
</event>
<event>
 8    1  0.1390538E-009  0.5022800E+03  0.7546771E-02  0.9394722E-01
        -11   -1    0    0    0    0  0.00000000000E+00  0.00000000000E+00  0.50000000000E+03  0.50000000000E+03  0.00000000000E+00 0. -1.
         11   -1    0    0    0    0 -0.00000000000E+00 -0.00000000000E+00 -0.50000000000E+03  0.50000000000E+03  0.00000000000E+00 0.  1.
         25    2    1    2    0    0 -0.24440266429E+03 -0.32315167702E+03 -0.26924118638E+03  0.50227998757E+03  0.12503879717E+03 0.  0.
         23    2    1    2    0    0  0.24440266429E+03  0.32315167702E+03  0.26924118638E+03  0.49772001243E+03  0.10523652246E+03 0.  0.
        -11    1    4    4    0    0  0.10602152609E+03  0.19201996999E+03  0.19379006790E+03  0.29268895314E+03  0.00000000000E+00 0. -1.
         11    1    4    4    0    0  0.13838113820E+03  0.13113170703E+03  0.75451118478E+02  0.20503105930E+03  0.00000000000E+00 0.  1.
        -15    1    3    3    0    0  0.13869315727E+02 -0.28445750198E+02 -0.26559385547E+02  0.41353081054E+02  0.17770000000E+01 0.  1.
         15    1    3    3    0    0 -0.25827198001E+03 -0.29470592682E+03 -0.24268180083E+03  0.46092690651E+03  0.17770000000E+01 0.  1.
</event>
<event>
 8    1  0.1390538E-009  0.5024266E+03  0.7546771E-02  0.9394396E-01
        -11   -1    0    0    0    0  0.00000000000E+00  0.00000000000E+00  0.50000000000E+03  0.50000000000E+03  0.00000000000E+00 0.  1.
         11   -1    0    0    0    0 -0.00000000000E+00 -0.00000000000E+00 -0.50000000000E+03  0.50000000000E+03  0.00000000000E+00 0. -1.
         25    2    1    2    0    0 -0.23702164029E+03  0.37990124042E+03 -0.19048416245E+03  0.50242655808E+03  0.12507605562E+03 0.  0.
         23    2    1    2    0    0  0.23702164029E+03 -0.37990124042E+03  0.19048416245E+03  0.49757344192E+03  0.10387927379E+03 0.  0.
        -11    1    4    4    0    0  0.88076992343E+02 -0.98357832141E+02  0.12286643723E+02  0.13260008046E+03  0.00000000000E+00 0. -1.
         11    1    4    4    0    0  0.14894464795E+03 -0.28154340827E+03  0.17819751872E+03  0.36497336146E+03  0.00000000000E+00 0.  1.
        -15    1    3    3    0    0 -0.23194540177E+03  0.38353907161E+03 -0.16742670225E+03  0.47847230558E+03  0.17770000000E+01 0.  1.
         15    1    3    3    0    0 -0.50762385202E+01 -0.36378311901E+01 -0.23057460200E+02  0.23954252506E+02  0.17770000000E+01 0.  1.
</event>
<event>
 8    1  0.1390538E-009  0.5001729E+03  0.7546771E-02  0.9399423E-01
        -11   -1    0    0    0    0  0.00000000000E+00  0.00000000000E+00  0.50000000000E+03  0.50000000000E+03  0.00000000000E+00 0.  1.
         11   -1    0    0    0    0 -0.00000000000E+00 -0.00000000000E+00 -0.50000000000E+03  0.50000000000E+03  0.00000000000E+00 0. -1.
         25    2    1    2    0    0  0.14564407317E+03 -0.45607350844E+03  0.73093699649E+02  0.50017290685E+03  0.12496002031E+03 0.  0.
         23    2    1    2    0    0 -0.14564407317E+03  0.45607350844E+03 -0.73093699649E+02  0.49982709315E+03  0.12356857599E+03 0.  0.
        -11    1    4    4    0    0 -0.10368903117E+03  0.22947108681E+03 -0.93185172648E+02  0.26849929473E+03  0.00000000000E+00 0. -1.
         11    1    4    4    0    0 -0.41955041995E+02  0.22660242163E+03  0.20091472999E+02  0.23132779842E+03  0.00000000000E+00 0.  1.
        -15    1    3    3    0    0  0.33016048932E+02 -0.13687899337E+02 -0.76299650094E+01  0.36589509021E+02  0.17770000000E+01 0.  1.
         15    1    3    3    0    0  0.11262802424E+03 -0.44238560910E+03  0.80723664658E+02  0.46358339783E+03  0.17770000000E+01 0.  1.
</event>
<event>
 8    1  0.1390538E-009  0.5020717E+03  0.7546771E-02  0.9395186E-01
        -11   -1    0    0    0    0  0.00000000000E+00  0.00000000000E+00  0.50000000000E+03  0.50000000000E+03  0.00000000000E+00 0.  1.
         11   -1    0    0    0    0 -0.00000000000E+00 -0.00000000000E+00 -0.50000000000E+03  0.50000000000E+03  0.00000000000E+00 0. -1.
         25    2    1    2    0    0  0.48455645533E+03 -0.44275744020E+01 -0.40209420233E+02  0.50207166745E+03  0.12507837530E+03 0.  0.
         23    2    1    2    0    0 -0.48455645533E+03  0.44275744020E+01  0.40209420233E+02  0.49792833255E+03  0.10724395115E+03 0.  0.
        -11    1    4    4    0    0 -0.37048446383E+03  0.23036826804E+02  0.71863203034E+02  0.37809225498E+03  0.00000000000E+00 0.  1.
         11    1    4    4    0    0 -0.11407199150E+03 -0.18609252402E+02 -0.31653782800E+02  0.11983607757E+03  0.00000000000E+00 0. -1.
        -15    1    3    3    0    0  0.48288486653E+02  0.36631841706E+02  0.82717632576E+01  0.61198444150E+02  0.17770000000E+01 0.  1.
         15    1    3    3    0    0  0.43626796868E+03 -0.41059416108E+02 -0.48481183491E+02  0.44087322330E+03  0.17770000000E+01 0. -1.
</event>
<event>
 8    1  0.1390538E-009  0.5001406E+03  0.7546771E-02  0.9399495E-01
        -11   -1    0    0    0    0  0.00000000000E+00  0.00000000000E+00  0.50000000000E+03  0.50000000000E+03  0.00000000000E+00 0.  1.
         11   -1    0    0    0    0 -0.00000000000E+00 -0.00000000000E+00 -0.50000000000E+03  0.50000000000E+03  0.00000000000E+00 0. -1.
         25    2    1    2    0    0  0.17538063263E+03  0.13430082606E+01  0.45137927087E+03  0.50014063988E+03  0.12504896445E+03 0.  0.
         23    2    1    2    0    0 -0.17538063263E+03 -0.13430082606E+01 -0.45137927087E+03  0.49985936012E+03  0.12391918236E+03 0.  0.
        -11    1    4    4    0    0 -0.18761806104E+02  0.49304587975E+01  0.26093375932E+01  0.19573539151E+02  0.00000000000E+00 0.  1.
         11    1    4    4    0    0 -0.15661882653E+03 -0.62734670581E+01 -0.45398860846E+03  0.48028582097E+03  0.00000000000E+00 0. -1.
        -15    1    3    3    0    0  0.12580836853E+03 -0.47684725632E+02  0.21451848886E+03  0.25322503518E+03  0.17770000000E+01 0.  1.
         15    1    3    3    0    0  0.49572264108E+02  0.49027733893E+02  0.23686078201E+03  0.24691560470E+03  0.17770000000E+01 0.  1.
</event>
<event>
 7    1  0.1390538E-009  0.3933277E+03  0.7546771E-02  0.9676323E-01
        -11   -1    0    0    0    0  0.00000000000E+00  0.00000000000E+00  0.50000000000E+03  0.50000000000E+03  0.00000000000E+00 0.  1.
         11   -1    0    0    0    0 -0.00000000000E+00 -0.00000000000E+00 -0.50000000000E+03  0.50000000000E+03  0.00000000000E+00 0.  1.
         25    2    1    2    0    0  0.46070942123E+02 -0.11388688400E+03 -0.93011305122E+02  0.19839494491E+03  0.12496678451E+03 0.  0.
        -11    1    1    2    0    0  0.18625975480E+03  0.38692693747E+03 -0.67422212366E+01  0.42947713414E+03  0.00000000000E+00 0.  1.
         11    1    1    2    0    0 -0.23233069692E+03 -0.27304005347E+03  0.99753526358E+02  0.37212792095E+03  0.00000000000E+00 0.  1.
        -15    1    3    3    0    0  0.84810182063E+02 -0.10293053251E+03 -0.82183464013E+02  0.15666761309E+03  0.17770000000E+01 0. -1.
         15    1    3    3    0    0 -0.38739239940E+02 -0.10956351490E+02 -0.10827841109E+02  0.41727331825E+02  0.17770000000E+01 0.  1.
</event>
<event>
 6    1  0.1390538E-009  0.5224461E+03  0.7546771E-02  0.9350940E-01
        -11   -1    0    0    0    0  0.00000000000E+00  0.00000000000E+00  0.50000000000E+03  0.50000000000E+03  0.00000000000E+00 0.  1.
         11   -1    0    0    0    0 -0.00000000000E+00 -0.00000000000E+00 -0.50000000000E+03  0.50000000000E+03  0.00000000000E+00 0. -1.
        -11    1    1    2    0    0  0.11136234386E+03  0.29172260337E+03  0.14898350037E+03  0.34597649101E+03  0.00000000000E+00 0.  1.
         11    1    1    2    0    0 -0.92545770500E+02  0.14933460438E+03 -0.16612723761E+02  0.17646961862E+03  0.00000000000E+00 0. -1.
        -15    1    1    2    0    0  0.12511786139E+01 -0.80307868051E+02  0.24015748789E+02  0.83850062837E+02  0.17770000000E+01 0.  1.
         15    1    1    2    0    0 -0.20067751971E+02 -0.36074933970E+03 -0.15638652540E+03  0.39370382754E+03  0.17770000000E+01 0. -1.
</event>
<event>
 8    1  0.1390538E-009  0.5016285E+03  0.7546771E-02  0.9396173E-01
        -11   -1    0    0    0    0  0.00000000000E+00  0.00000000000E+00  0.50000000000E+03  0.50000000000E+03  0.00000000000E+00 0.  1.
         11   -1    0    0    0    0 -0.00000000000E+00 -0.00000000000E+00 -0.50000000000E+03  0.50000000000E+03  0.00000000000E+00 0. -1.
         25    2    1    2    0    0  0.44697598270E+03  0.51079924069E+02  0.18330439062E+03  0.50162852623E+03  0.12503595866E+03 0.  0.
         23    2    1    2    0    0 -0.44697598270E+03 -0.51079924069E+02 -0.18330439062E+03  0.49837147377E+03  0.11125168985E+03 0.  0.
        -11    1    4    4    0    0 -0.18419789668E+03 -0.25452345276E+02 -0.13543557862E+03  0.23004235040E+03  0.00000000000E+00 0.  1.
         11    1    4    4    0    0 -0.26277808601E+03 -0.25627578793E+02 -0.47868812004E+02  0.26832912337E+03  0.00000000000E+00 0. -1.
        -15    1    3    3    0    0  0.37154770610E+03  0.89354786485E+02  0.15554250220E+03  0.41258769189E+03  0.17770000000E+01 0. -1.
         15    1    3    3    0    0  0.75428276592E+02 -0.38274862416E+02  0.27761888420E+02  0.89040834342E+02  0.17770000000E+01 0. -1.
</event>
<event>
 7    1  0.1390538E-009  0.5020672E+03  0.7546771E-02  0.9395196E-01
        -11   -1    0    0    0    0  0.00000000000E+00  0.00000000000E+00  0.50000000000E+03  0.50000000000E+03  0.00000000000E+00 0.  1.
         11   -1    0    0    0    0 -0.00000000000E+00 -0.00000000000E+00 -0.50000000000E+03  0.50000000000E+03  0.00000000000E+00 0. -1.
         25    2    1    2    0    0  0.26609351370E+03  0.39886224294E+03 -0.49236605280E+02  0.49793283028E+03  0.12496404803E+03 0.  0.
        -11    1    1    2    0    0 -0.32822138035E+02 -0.92397261827E+02 -0.41345047655E+02  0.10641409542E+03  0.00000000000E+00 0.  1.
         11    1    1    2    0    0 -0.23327137566E+03 -0.30646498111E+03  0.90581652935E+02  0.39565307430E+03  0.00000000000E+00 0. -1.
        -15    1    3    3    0    0  0.51767705829E+02  0.17434348688E+03 -0.45634294867E+02  0.18751318188E+03  0.17770000000E+01 0. -1.
         15    1    3    3    0    0  0.21432580787E+03  0.22451875606E+03 -0.36023104126E+01  0.31041964840E+03  0.17770000000E+01 0. -1.
</event>
<event>
 7    1  0.1390538E-009  0.5024049E+03  0.7546771E-02  0.9394445E-01
        -11   -1    0    0    0    0  0.00000000000E+00  0.00000000000E+00  0.50000000000E+03  0.50000000000E+03  0.00000000000E+00 0.  1.
         11   -1    0    0    0    0 -0.00000000000E+00 -0.00000000000E+00 -0.50000000000E+03  0.50000000000E+03  0.00000000000E+00 0. -1.
         23    2    1    2    0    0  0.21210663810E+03 -0.35707623584E+03 -0.25350928601E+03  0.49759509710E+03  0.10412136400E+03 0.  0.
        -11    1    3    3    0    0  0.13663715525E+03 -0.22917227365E+03 -0.10258178947E+03  0.28585427536E+03  0.00000000000E+00 0.  1.
         11    1    3    3    0    0  0.75469482851E+02 -0.12790396218E+03 -0.15092749653E+03  0.21174082175E+03  0.00000000000E+00 0. -1.
        -15    1    1    2    0    0 -0.18921298872E+03  0.20180090772E+03  0.15528397994E+03  0.31724034046E+03  0.17770000000E+01 0.  1.
         15    1    1    2    0    0 -0.22893649385E+02  0.15527532811E+03  0.98225306063E+02  0.18516456244E+03  0.17770000000E+01 0.  1.
</event>
<event>
 8    1  0.1390538E-009  0.5022651E+03  0.7546771E-02  0.9394756E-01
        -11   -1    0    0    0    0  0.00000000000E+00  0.00000000000E+00  0.50000000000E+03  0.50000000000E+03  0.00000000000E+00 0.  1.
         11   -1    0    0    0    0 -0.00000000000E+00 -0.00000000000E+00 -0.50000000000E+03  0.50000000000E+03  0.00000000000E+00 0. -1.
         25    2    1    2    0    0  0.41348974087E+03 -0.21883895368E+03  0.13329165001E+03  0.50226511084E+03  0.12505728347E+03 0.  0.
         23    2    1    2    0    0 -0.41348974087E+03  0.21883895368E+03 -0.13329165001E+03  0.49773488916E+03  0.10539972712E+03 0.  0.
        -11    1    4    4    0    0 -0.15717197010E+03  0.12780942656E+03 -0.21723007990E+02  0.20374043972E+03  0.00000000000E+00 0.  1.
         11    1    4    4    0    0 -0.25631777077E+03  0.91029527120E+02 -0.11156864202E+03  0.29399444944E+03  0.00000000000E+00 0. -1.
        -15    1    3    3    0    0  0.12508445450E+03 -0.33097259219E+02 -0.11505519891E+02  0.12991183180E+03  0.17770000000E+01 0. -1.
         15    1    3    3    0    0  0.28840528637E+03 -0.18574169446E+03  0.14479716990E+03  0.37235327903E+03  0.17770000000E+01 0. -1.
</event>
<event>
 7    1  0.1390538E-009  0.5022391E+03  0.7546771E-02  0.9394813E-01
        -11   -1    0    0    0    0  0.00000000000E+00  0.00000000000E+00  0.50000000000E+03  0.50000000000E+03  0.00000000000E+00 0.  1.
         11   -1    0    0    0    0 -0.00000000000E+00 -0.00000000000E+00 -0.50000000000E+03  0.50000000000E+03  0.00000000000E+00 0. -1.
         23    2    1    2    0    0 -0.18661069727E+03  0.44886658176E+03  0.16625669244E+02  0.49776088624E+03  0.10575786702E+03 0.  0.
        -11    1    3    3    0    0 -0.16814414709E+02  0.62402272289E+02  0.38229274676E+02  0.75088251885E+02  0.00000000000E+00 0.  1.
         11    1    3    3    0    0 -0.16979628256E+03  0.38646430947E+03 -0.21603605432E+02  0.42267263436E+03  0.00000000000E+00 0. -1.
        -15    1    1    2    0    0  0.14473854616E+03 -0.19734682762E+03 -0.31811570575E+02  0.24679981942E+03  0.17770000000E+01 0. -1.
         15    1    1    2    0    0  0.41872151110E+02 -0.25151975414E+03  0.15185901331E+02  0.25543929434E+03  0.17770000000E+01 0. -1.
</event>
<event>
 8    1  0.1390538E-009  0.5010734E+03  0.7546771E-02  0.9397411E-01
        -11   -1    0    0    0    0  0.00000000000E+00  0.00000000000E+00  0.50000000000E+03  0.50000000000E+03  0.00000000000E+00 0.  1.
         11   -1    0    0    0    0 -0.00000000000E+00 -0.00000000000E+00 -0.50000000000E+03  0.50000000000E+03  0.00000000000E+00 0. -1.
         25    2    1    2    0    0  0.48300792481E+03  0.46153078244E+02 -0.30852401565E+01  0.50107340026E+03  0.12505307547E+03 0.  0.
         23    2    1    2    0    0 -0.48300792481E+03 -0.46153078244E+02  0.30852401565E+01  0.49892659974E+03  0.11615279229E+03 0.  0.
        -11    1    4    4    0    0 -0.20148811593E+03  0.19015801702E+02  0.43911518414E+02  0.20709245043E+03  0.00000000000E+00 0.  1.
         11    1    4    4    0    0 -0.28151980888E+03 -0.65168879946E+02 -0.40826278258E+02  0.29183414931E+03  0.00000000000E+00 0. -1.
        -15    1    3    3    0    0  0.47061940688E+03  0.27379255221E+02 -0.21560603425E+02  0.47191129156E+03  0.17770000000E+01 0.  1.
         15    1    3    3    0    0  0.12388517929E+02  0.18773823023E+02  0.18475363268E+02  0.29162108708E+02  0.17770000000E+01 0.  1.
</event>
<event>
 8    1  0.1390538E-009  0.5023850E+03  0.7546771E-02  0.9394489E-01
        -11   -1    0    0    0    0  0.00000000000E+00  0.00000000000E+00  0.50000000000E+03  0.50000000000E+03  0.00000000000E+00 0.  1.
         11   -1    0    0    0    0 -0.00000000000E+00 -0.00000000000E+00 -0.50000000000E+03  0.50000000000E+03  0.00000000000E+00 0. -1.
         25    2    1    2    0    0  0.46859911538E+03 -0.13100036367E+03  0.26811307388E+01  0.50238495325E+03  0.12504889673E+03 0.  0.
         23    2    1    2    0    0 -0.46859911538E+03  0.13100036367E+03 -0.26811307388E+01  0.49761504675E+03  0.10424643911E+03 0.  0.
        -11    1    4    4    0    0 -0.28369031503E+03  0.36401909085E+02 -0.32211014015E+02  0.28782432707E+03  0.00000000000E+00 0. -1.
         11    1    4    4    0    0 -0.18490880035E+03  0.94598454583E+02  0.29529883276E+02  0.20979071968E+03  0.00000000000E+00 0.  1.
        -15    1    3    3    0    0 -0.66259143890E+01  0.17012257421E+00  0.63837440717E+01  0.93723849982E+01  0.17770000000E+01 0. -1.
         15    1    3    3    0    0  0.47522502977E+03 -0.13117048624E+03 -0.37026133330E+01  0.49301256826E+03  0.17770000000E+01 0. -1.
</event>
<event>
 8    1  0.1390538E-009  0.5016496E+03  0.7546771E-02  0.9396126E-01
        -11   -1    0    0    0    0  0.00000000000E+00  0.00000000000E+00  0.50000000000E+03  0.50000000000E+03  0.00000000000E+00 0.  1.
         11   -1    0    0    0    0 -0.00000000000E+00 -0.00000000000E+00 -0.50000000000E+03  0.50000000000E+03  0.00000000000E+00 0. -1.
         25    2    1    2    0    0  0.23661227766E+03 -0.29377716906E+03  0.30618160754E+03  0.50164957598E+03  0.12495889439E+03 0.  0.
         23    2    1    2    0    0 -0.23661227766E+03  0.29377716906E+03 -0.30618160754E+03  0.49835042402E+03  0.11097555285E+03 0.  0.
        -11    1    4    4    0    0 -0.11178857087E+03  0.83299432718E+02 -0.61743526069E+02  0.15247210590E+03  0.00000000000E+00 0. -1.
         11    1    4    4    0    0 -0.12482370680E+03  0.21047773634E+03 -0.24443808147E+03  0.34587831812E+03  0.00000000000E+00 0.  1.
        -15    1    3    3    0    0  0.21920853395E+02 -0.10925723178E+03  0.60491015168E+02  0.12680688922E+03  0.17770000000E+01 0.  1.
         15    1    3    3    0    0  0.21469142427E+03 -0.18451993728E+03  0.24569059237E+03  0.37484268675E+03  0.17770000000E+01 0.  1.
</event>
<event>
 8    1  0.1390538E-009  0.5024433E+03  0.7546771E-02  0.9394359E-01
        -11   -1    0    0    0    0  0.00000000000E+00  0.00000000000E+00  0.50000000000E+03  0.50000000000E+03  0.00000000000E+00 0.  1.
         11   -1    0    0    0    0 -0.00000000000E+00 -0.00000000000E+00 -0.50000000000E+03  0.50000000000E+03  0.00000000000E+00 0. -1.
         25    2    1    2    0    0 -0.15278092528E+03 -0.45994632778E+03 -0.43812998777E+02  0.50244331171E+03  0.12504825887E+03 0.  0.
         23    2    1    2    0    0  0.15278092528E+03  0.45994632778E+03  0.43812998777E+02  0.49755668829E+03  0.10368434611E+03 0.  0.
        -11    1    4    4    0    0  0.60492507690E+02  0.15471365254E+03  0.64040993916E+02  0.17803625100E+03  0.00000000000E+00 0. -1.
         11    1    4    4    0    0  0.92288417594E+02  0.30523267525E+03 -0.20227995138E+02  0.31952043729E+03  0.00000000000E+00 0.  1.
        -15    1    3    3    0    0 -0.32161251796E+02 -0.36197033666E+02  0.28123228650E+02  0.56023611825E+02  0.17770000000E+01 0. -1.
         15    1    3    3    0    0 -0.12061967349E+03 -0.42374929412E+03 -0.71936227427E+02  0.44641969988E+03  0.17770000000E+01 0. -1.
</event>
<event>
 7    1  0.1390538E-009  0.5056800E+03  0.7546771E-02  0.9387189E-01
        -11   -1    0    0    0    0  0.00000000000E+00  0.00000000000E+00  0.50000000000E+03  0.50000000000E+03  0.00000000000E+00 0.  1.
         11   -1    0    0    0    0 -0.00000000000E+00 -0.00000000000E+00 -0.50000000000E+03  0.50000000000E+03  0.00000000000E+00 0.  1.
         25    2    1    2    0    0 -0.30008432568E+03  0.24592473558E+03  0.27966499736E+03  0.49432001792E+03  0.12494075108E+03 0.  0.
        -11    1    1    2    0    0  0.22369695218E+03 -0.14027249306E+03 -0.97068268423E+02  0.28131645430E+03  0.00000000000E+00 0.  1.
         11    1    1    2    0    0  0.76387373495E+02 -0.10565224252E+03 -0.18259672894E+03  0.22436352778E+03  0.00000000000E+00 0.  1.
        -15    1    3    3    0    0 -0.78911797217E+01 -0.73409800553E+01 -0.69944031045E+01  0.12970740509E+02  0.17770000000E+01 0. -1.
         15    1    3    3    0    0 -0.29219314596E+03  0.25326571563E+03  0.28665940047E+03  0.48134927741E+03  0.17770000000E+01 0. -1.
</event>
<event>
 8    1  0.1390538E-009  0.5053495E+03  0.7546771E-02  0.9387919E-01
        -11   -1    0    0    0    0  0.00000000000E+00  0.00000000000E+00  0.50000000000E+03  0.50000000000E+03  0.00000000000E+00 0. -1.
         11   -1    0    0    0    0 -0.00000000000E+00 -0.00000000000E+00 -0.50000000000E+03  0.50000000000E+03  0.00000000000E+00 0.  1.
         25    2    1    2    0    0 -0.33122869664E+03  0.28351605920E+03  0.22280625653E+03  0.50534954597E+03  0.12506690355E+03 0.  0.
         23    2    1    2    0    0  0.33122869664E+03 -0.28351605920E+03 -0.22280625653E+03  0.49465045403E+03  0.70303900513E+02 0.  0.
        -11    1    4    4    0    0  0.27325713083E+02 -0.23421322518E+01 -0.10513139512E+02  0.29371862069E+02  0.00000000000E+00 0.  1.
         11    1    4    4    0    0  0.30390298355E+03 -0.28117392695E+03 -0.21229311702E+03  0.46527859196E+03  0.00000000000E+00 0. -1.
        -15    1    3    3    0    0 -0.13510999528E+03  0.19767012338E+03  0.12135548401E+03  0.26843714298E+03  0.17770000000E+01 0. -1.
         15    1    3    3    0    0 -0.19611870135E+03  0.85845935816E+02  0.10145077252E+03  0.23691240299E+03  0.17770000000E+01 0. -1.
</event>
<event>
 8    1  0.1390538E-009  0.5021498E+03  0.7546771E-02  0.9395012E-01
        -11   -1    0    0    0    0  0.00000000000E+00  0.00000000000E+00  0.50000000000E+03  0.50000000000E+03  0.00000000000E+00 0.  1.
         11   -1    0    0    0    0 -0.00000000000E+00 -0.00000000000E+00 -0.50000000000E+03  0.50000000000E+03  0.00000000000E+00 0. -1.
         25    2    1    2    0    0  0.40440877544E+03  0.70985205720E+02 -0.26064536194E+03  0.50214977320E+03  0.12503212761E+03 0.  0.
         23    2    1    2    0    0 -0.40440877544E+03 -0.70985205720E+02  0.26064536194E+03  0.49785022680E+03  0.10645884905E+03 0.  0.
        -11    1    4    4    0    0 -0.16868909507E+03  0.13913931937E+02  0.70652200484E+02  0.18341576195E+03  0.00000000000E+00 0. -1.
         11    1    4    4    0    0 -0.23571968037E+03 -0.84899137657E+02  0.18999316145E+03  0.31443446486E+03  0.00000000000E+00 0.  1.
        -15    1    3    3    0    0  0.34226196302E+03  0.10184215526E+03 -0.23799700391E+03  0.42913961308E+03  0.17770000000E+01 0. -1.
         15    1    3    3    0    0  0.62146812423E+02 -0.30856949542E+02 -0.22648358028E+02  0.73010160113E+02  0.17770000000E+01 0. -1.
</event>
<event>
 8    1  0.1390538E-009  0.5007428E+03  0.7546771E-02  0.9398149E-01
        -11   -1    0    0    0    0  0.00000000000E+00  0.00000000000E+00  0.50000000000E+03  0.50000000000E+03  0.00000000000E+00 0.  1.
         11   -1    0    0    0    0 -0.00000000000E+00 -0.00000000000E+00 -0.50000000000E+03  0.50000000000E+03  0.00000000000E+00 0. -1.
         25    2    1    2    0    0  0.74913360710E+02 -0.31355324490E+03  0.36218984817E+03  0.50074282661E+03  0.12503696764E+03 0.  0.
         23    2    1    2    0    0 -0.74913360710E+02  0.31355324490E+03 -0.36218984817E+03  0.49925717339E+03  0.11894784599E+03 0.  0.
        -11    1    4    4    0    0 -0.76258936560E+02  0.24689576013E+03 -0.20955090028E+03  0.33269283368E+03  0.00000000000E+00 0.  1.
         11    1    4    4    0    0  0.13455758502E+01  0.66657484772E+02 -0.15263894789E+03  0.16656433971E+03  0.00000000000E+00 0. -1.
        -15    1    3    3    0    0 -0.66092666545E+01 -0.14406022342E+02 -0.80115326982E+01  0.17848200767E+02  0.17770000000E+01 0.  1.
         15    1    3    3    0    0  0.81522627364E+02 -0.29914722256E+03  0.37020138087E+03  0.48289462584E+03  0.17770000000E+01 0.  1.
</event>
<event>
 6    1  0.1390538E-009  0.5049102E+03  0.7546771E-02  0.9388889E-01
        -11   -1    0    0    0    0  0.00000000000E+00  0.00000000000E+00  0.50000000000E+03  0.50000000000E+03  0.00000000000E+00 0.  1.
         11   -1    0    0    0    0 -0.00000000000E+00 -0.00000000000E+00 -0.50000000000E+03  0.50000000000E+03  0.00000000000E+00 0.  1.
        -11    1    1    2    0    0  0.85299501240E+02 -0.59702162379E+02 -0.57638448062E+02  0.11900648638E+03  0.00000000000E+00 0.  1.
         11    1    1    2    0    0  0.34035899589E+03  0.85686479293E+02 -0.16042203251E+03  0.38590367623E+03  0.00000000000E+00 0.  1.
        -15    1    1    2    0    0 -0.41408846511E+03 -0.33271355029E+02  0.17661595745E+03  0.45141177893E+03  0.17770000000E+01 0.  1.
         15    1    1    2    0    0 -0.11570032015E+02  0.72870381154E+01  0.41444523120E+02  0.43678058462E+02  0.17770000000E+01 0. -1.
</event>
<event>
 8    1  0.1390538E-009  0.5003717E+03  0.7546771E-02  0.9398978E-01
        -11   -1    0    0    0    0  0.00000000000E+00  0.00000000000E+00  0.50000000000E+03  0.50000000000E+03  0.00000000000E+00 0.  1.
         11   -1    0    0    0    0 -0.00000000000E+00 -0.00000000000E+00 -0.50000000000E+03  0.50000000000E+03  0.00000000000E+00 0. -1.
         25    2    1    2    0    0  0.30450644821E+03 -0.36231057090E+03  0.10377924887E+03  0.50037170866E+03  0.12493433294E+03 0.  0.
         23    2    1    2    0    0 -0.30450644821E+03  0.36231057090E+03 -0.10377924887E+03  0.49962829134E+03  0.12192280435E+03 0.  0.
        -11    1    4    4    0    0 -0.11505979078E+03  0.22031702470E+03 -0.23617386382E+02  0.24967204042E+03  0.00000000000E+00 0.  1.
         11    1    4    4    0    0 -0.18944665744E+03  0.14199354619E+03 -0.80161862490E+02  0.24995625092E+03  0.00000000000E+00 0. -1.
        -15    1    3    3    0    0  0.28770656276E+03 -0.36009258286E+03  0.12059493193E+03  0.47643260785E+03  0.17770000000E+01 0. -1.
         15    1    3    3    0    0  0.16799885457E+02 -0.22179880386E+01 -0.16815683057E+02  0.23939100818E+02  0.17770000000E+01 0. -1.
</event>
<event>
 8    1  0.1390538E-009  0.5009864E+03  0.7546771E-02  0.9397605E-01
        -11   -1    0    0    0    0  0.00000000000E+00  0.00000000000E+00  0.50000000000E+03  0.50000000000E+03  0.00000000000E+00 0.  1.
         11   -1    0    0    0    0 -0.00000000000E+00 -0.00000000000E+00 -0.50000000000E+03  0.50000000000E+03  0.00000000000E+00 0.  1.
         25    2    1    2    0    0 -0.40509024993E+02 -0.97904182795E+02  0.47341547273E+03  0.50098643863E+03  0.12505595451E+03 0.  0.
         23    2    1    2    0    0  0.40509024993E+02  0.97904182795E+02 -0.47341547273E+03  0.49901356137E+03  0.11690215778E+03 0.  0.
        -11    1    4    4    0    0  0.48677277995E+02  0.18971820299E+02 -0.33836842300E+03  0.34237785712E+03  0.00000000000E+00 0.  1.
         11    1    4    4    0    0 -0.81682530021E+01  0.78932362496E+02 -0.13504704973E+03  0.15663570425E+03  0.00000000000E+00 0.  1.
        -15    1    3    3    0    0 -0.26933591080E+01 -0.84737462732E+02  0.44199810934E+03  0.45005908297E+03  0.17770000000E+01 0.  1.
         15    1    3    3    0    0 -0.37815665885E+02 -0.13166720063E+02  0.31417363393E+02  0.50927355665E+02  0.17770000000E+01 0. -1.
</event>
<event>
 7    1  0.1390538E-009  0.5112497E+03  0.7546771E-02  0.9374984E-01
        -11   -1    0    0    0    0  0.00000000000E+00  0.00000000000E+00  0.50000000000E+03  0.50000000000E+03  0.00000000000E+00 0.  1.
         11   -1    0    0    0    0 -0.00000000000E+00 -0.00000000000E+00 -0.50000000000E+03  0.50000000000E+03  0.00000000000E+00 0. -1.
         25    2    1    2    0    0 -0.44818812887E+03 -0.12593848926E+03 -0.80797711972E+02  0.48875026210E+03  0.12496178016E+03 0.  0.
        -11    1    1    2    0    0  0.12412174876E+03 -0.28918476831E+02 -0.37928152932E+02  0.13297004025E+03  0.00000000000E+00 0.  1.
         11    1    1    2    0    0  0.32406638011E+03  0.15485696609E+03  0.11872586490E+03  0.37827969766E+03  0.00000000000E+00 0. -1.
        -15    1    3    3    0    0 -0.63950901467E+02 -0.42901369596E+02 -0.55279445774E+02  0.94811498067E+02  0.17770000000E+01 0.  1.
         15    1    3    3    0    0 -0.38423722740E+03 -0.83037119668E+02 -0.25518266198E+02  0.39393876403E+03  0.17770000000E+01 0.  1.
</event>
<event>
 7    1  0.1390538E-009  0.3501499E+03  0.7546771E-02  0.9816367E-01
        -11   -1    0    0    0    0  0.00000000000E+00  0.00000000000E+00  0.50000000000E+03  0.50000000000E+03  0.00000000000E+00 0. -1.
         11   -1    0    0    0    0 -0.00000000000E+00 -0.00000000000E+00 -0.50000000000E+03  0.50000000000E+03  0.00000000000E+00 0. -1.
         25    2    1    2    0    0  0.30919922897E+03  0.13513266839E+03 -0.20402832023E+03  0.41365301926E+03  0.12496504960E+03 0.  0.
        -11    1    1    2    0    0 -0.40168268051E+02 -0.25275810519E+03  0.88109483981E+02  0.27067218303E+03  0.00000000000E+00 0. -1.
         11    1    1    2    0    0 -0.26903096092E+03  0.11762543680E+03  0.11591883625E+03  0.31567479772E+03  0.00000000000E+00 0. -1.
        -15    1    3    3    0    0  0.56987494815E+01  0.41910051209E+02 -0.24466616880E+02  0.48894797357E+02  0.17770000000E+01 0.  1.
         15    1    3    3    0    0  0.30350047949E+03  0.93222617180E+02 -0.17956170335E+03  0.36475822190E+03  0.17770000000E+01 0. -1.
</event>
<event>
 8    1  0.1390538E-009  0.5015365E+03  0.7546771E-02  0.9396378E-01
        -11   -1    0    0    0    0  0.00000000000E+00  0.00000000000E+00  0.50000000000E+03  0.50000000000E+03  0.00000000000E+00 0.  1.
         11   -1    0    0    0    0 -0.00000000000E+00 -0.00000000000E+00 -0.50000000000E+03  0.50000000000E+03  0.00000000000E+00 0. -1.
         25    2    1    2    0    0  0.16022700476E+03  0.40791946566E+03 -0.20940951499E+03  0.50153649093E+03  0.12496208723E+03 0.  0.
         23    2    1    2    0    0 -0.16022700476E+03 -0.40791946566E+03  0.20940951499E+03  0.49846350907E+03  0.11199348811E+03 0.  0.
        -11    1    4    4    0    0 -0.68223755646E+02 -0.11666728237E+03  0.11860483042E+03  0.17981335159E+03  0.00000000000E+00 0.  1.
         11    1    4    4    0    0 -0.92003249116E+02 -0.29125218329E+03  0.90804684572E+02  0.31865015748E+03  0.00000000000E+00 0. -1.
        -15    1    3    3    0    0  0.51212642995E+02  0.65723849387E+02  0.45941244236E+01  0.83466297924E+02  0.17770000000E+01 0. -1.
         15    1    3    3    0    0  0.10901436177E+03  0.34219561628E+03 -0.21400363942E+03  0.41807019301E+03  0.17770000000E+01 0. -1.
</event>
<event>
 6    1  0.1390538E-009  0.5083906E+03  0.7546771E-02  0.9381228E-01
        -11   -1    0    0    0    0  0.00000000000E+00  0.00000000000E+00  0.50000000000E+03  0.50000000000E+03  0.00000000000E+00 0. -1.
         11   -1    0    0    0    0 -0.00000000000E+00 -0.00000000000E+00 -0.50000000000E+03  0.50000000000E+03  0.00000000000E+00 0.  1.
        -11    1    1    2    0    0 -0.20575347744E+03 -0.21191966977E+03  0.22005440756E+03  0.36833189137E+03  0.00000000000E+00 0. -1.
         11    1    1    2    0    0 -0.13621548923E+03 -0.95891463952E+00  0.32570996307E+02  0.14005873348E+03  0.00000000000E+00 0.  1.
        -15    1    1    2    0    0  0.59042194301E+02  0.81011567768E+02 -0.10868885213E+03  0.14786912838E+03  0.17770000000E+01 0. -1.
         15    1    1    2    0    0  0.28292677237E+03  0.13186701664E+03 -0.14393655173E+03  0.34374024678E+03  0.17770000000E+01 0. -1.
</event>
<event>
 7    1  0.1390538E-009  0.3678401E+03  0.7546771E-02  0.9756507E-01
        -11   -1    0    0    0    0  0.00000000000E+00  0.00000000000E+00  0.50000000000E+03  0.50000000000E+03  0.00000000000E+00 0.  1.
         11   -1    0    0    0    0 -0.00000000000E+00 -0.00000000000E+00 -0.50000000000E+03  0.50000000000E+03  0.00000000000E+00 0.  1.
         25    2    1    2    0    0  0.18501247523E+03  0.18144779716E+03 -0.36185382424E+03  0.46227447252E+03  0.12492629324E+03 0.  0.
        -11    1    1    2    0    0 -0.17160236813E+03  0.39512485592E+02  0.17067680564E+03  0.24523291224E+03  0.00000000000E+00 0.  1.
         11    1    1    2    0    0 -0.13410107108E+02 -0.22096028275E+03  0.19117701860E+03  0.29249261523E+03  0.00000000000E+00 0.  1.
        -15    1    3    3    0    0  0.12980478829E+01 -0.56701338260E+01 -0.68613751787E+02  0.68882799081E+02  0.17770000000E+01 0. -1.
         15    1    3    3    0    0  0.18371442735E+03  0.18711793098E+03 -0.29324007245E+03  0.39339167344E+03  0.17770000000E+01 0.  1.
</event>
<event>
 7    1  0.1390538E-009  0.5033463E+03  0.7546771E-02  0.9392353E-01
        -11   -1    0    0    0    0  0.00000000000E+00  0.00000000000E+00  0.50000000000E+03  0.50000000000E+03  0.00000000000E+00 0.  1.
         11   -1    0    0    0    0 -0.00000000000E+00 -0.00000000000E+00 -0.50000000000E+03  0.50000000000E+03  0.00000000000E+00 0. -1.
         25    2    1    2    0    0 -0.11396538510E+03 -0.40760181248E+03 -0.22786371857E+03  0.49665368594E+03  0.12496264636E+03 0.  0.
        -11    1    1    2    0    0 -0.16107267546E+02  0.19326010411E+03  0.13357781752E+03  0.23548236716E+03  0.00000000000E+00 0.  1.
         11    1    1    2    0    0  0.13007265265E+03  0.21434170836E+03  0.94285901053E+02  0.26786394690E+03  0.00000000000E+00 0. -1.
        -15    1    3    3    0    0 -0.94066181316E+02 -0.38250670731E+03 -0.24123021368E+03  0.46190367105E+03  0.17770000000E+01 0.  1.
         15    1    3    3    0    0 -0.19899203785E+02 -0.25095105166E+02  0.13366495114E+02  0.34750014895E+02  0.17770000000E+01 0.  1.
</event>
<event>
 7    1  0.1390538E-009  0.5017771E+03  0.7546771E-02  0.9395842E-01
        -11   -1    0    0    0    0  0.00000000000E+00  0.00000000000E+00  0.50000000000E+03  0.50000000000E+03  0.00000000000E+00 0. -1.
         11   -1    0    0    0    0 -0.00000000000E+00 -0.00000000000E+00 -0.50000000000E+03  0.50000000000E+03  0.00000000000E+00 0.  1.
         25    2    1    2    0    0 -0.18087489807E+03  0.42530817432E+03 -0.13788569619E+03  0.49822291588E+03  0.12494333434E+03 0.  0.
        -11    1    1    2    0    0  0.91973841038E+02 -0.22465963181E+03  0.30706617656E+00  0.24275755785E+03  0.00000000000E+00 0.  1.
         11    1    1    2    0    0  0.88901057037E+02 -0.20064854251E+03  0.13757863001E+03  0.25901952627E+03  0.00000000000E+00 0. -1.
        -15    1    3    3    0    0  0.77399772063E+01  0.28955282490E+01 -0.18671642148E+02  0.20495835686E+02  0.17770000000E+01 0. -1.
         15    1    3    3    0    0 -0.18861487528E+03  0.42241264607E+03 -0.11921405404E+03  0.47772708019E+03  0.17770000000E+01 0. -1.
</event>
<event>
 8    1  0.1390538E-009  0.5020170E+03  0.7546771E-02  0.9395308E-01
        -11   -1    0    0    0    0  0.00000000000E+00  0.00000000000E+00  0.50000000000E+03  0.50000000000E+03  0.00000000000E+00 0.  1.
         11   -1    0    0    0    0 -0.00000000000E+00 -0.00000000000E+00 -0.50000000000E+03  0.50000000000E+03  0.00000000000E+00 0. -1.
         25    2    1    2    0    0 -0.26895079652E+03 -0.29524330319E+03 -0.27731323008E+03  0.50201697113E+03  0.12496108473E+03 0.  0.
         23    2    1    2    0    0  0.26895079652E+03  0.29524330319E+03  0.27731323008E+03  0.49798302887E+03  0.10761658998E+03 0.  0.
        -11    1    4    4    0    0  0.20948088762E+03  0.18425170519E+03  0.23613667381E+03  0.36550165781E+03  0.00000000000E+00 0. -1.
         11    1    4    4    0    0  0.59469908896E+02  0.11099159801E+03  0.41176556264E+02  0.13248137106E+03  0.00000000000E+00 0.  1.
        -15    1    3    3    0    0 -0.26955668751E+03 -0.28416347704E+03 -0.23178689387E+03  0.45512417137E+03  0.17770000000E+01 0. -1.
         15    1    3    3    0    0  0.60589099453E+00 -0.11079826151E+02 -0.45526336212E+02  0.46892799760E+02  0.17770000000E+01 0. -1.
</event>
<event>
 8    1  0.1390538E-009  0.5047191E+03  0.7546771E-02  0.9389312E-01
        -11   -1    0    0    0    0  0.00000000000E+00  0.00000000000E+00  0.50000000000E+03  0.50000000000E+03  0.00000000000E+00 0.  1.
         11   -1    0    0    0    0 -0.00000000000E+00 -0.00000000000E+00 -0.50000000000E+03  0.50000000000E+03  0.00000000000E+00 0. -1.
         25    2    1    2    0    0 -0.14736046505E+03 -0.46577256316E+03 -0.21154349929E+02  0.50471912740E+03  0.12503880913E+03 0.  0.
         23    2    1    2    0    0  0.14736046505E+03  0.46577256316E+03  0.21154349929E+02  0.49528087260E+03  0.78717526599E+02 0.  0.
        -11    1    4    4    0    0  0.15540940610E+03  0.41041504094E+03  0.16881192240E+02  0.43917828269E+03  0.00000000000E+00 0. -1.
         11    1    4    4    0    0 -0.80489410529E+01  0.55357522221E+02  0.42731576892E+01  0.56102589914E+02  0.00000000000E+00 0.  1.
        -15    1    3    3    0    0 -0.16277755591E+03 -0.33526367094E+03 -0.21084574608E+02  0.37329074296E+03  0.17770000000E+01 0.  1.
         15    1    3    3    0    0  0.15417090865E+02 -0.13050889222E+03 -0.69775321117E-01  0.13142838444E+03  0.17770000000E+01 0.  1.
</event>
