<event>
 8    1  0.1792335E-008  0.1881225E+03  0.7546771E-02  0.1064065E+00
        -11   -1    0    0    0    0  0.00000000000E+00  0.00000000000E+00  0.18250000000E+03  0.18250000000E+03  0.00000000000E+00 0.  1.
         11   -1    0    0    0    0 -0.00000000000E+00 -0.00000000000E+00 -0.18250000000E+03  0.18250000000E+03  0.00000000000E+00 0. -1.
         25    2    1    2    0    0 -0.11634809275E+03  0.55947291081E+02 -0.55466059802E+02  0.18812254083E+03  0.12508648413E+03 0.  0.
         23    2    1    2    0    0  0.11634809275E+03 -0.55947291081E+02  0.55466059802E+02  0.17687745917E+03  0.10743450892E+03 0.  0.
        -11    1    4    4    0    0 -0.69218750303E+01 -0.39821500189E+02 -0.77845202514E+00  0.40426108133E+02  0.00000000000E+00 0.  1.
         11    1    4    4    0    0  0.12326996778E+03 -0.16125790893E+02  0.56244511827E+02  0.13645135104E+03  0.00000000000E+00 0. -1.
        -15    1    3    3    0    0 -0.24594991012E+01  0.62931030910E+02 -0.45667693605E+01  0.63169430095E+02  0.17770000000E+01 0. -1.
         15    1    3    3    0    0 -0.11388859365E+03 -0.69837398284E+01 -0.50899290441E+02  0.12495311073E+03  0.17770000000E+01 0. -1.
</event>
<event>
 7    1  0.1792335E-008  0.1963765E+03  0.7546771E-02  0.1057916E+00
        -11   -1    0    0    0    0  0.00000000000E+00  0.00000000000E+00  0.18250000000E+03  0.18250000000E+03  0.00000000000E+00 0.  1.
         11   -1    0    0    0    0 -0.00000000000E+00 -0.00000000000E+00 -0.18250000000E+03  0.18250000000E+03  0.00000000000E+00 0. -1.
         23    2    1    2    0    0  0.84025917377E+02 -0.10490241630E+03 -0.69545891121E+02  0.16862352923E+03  0.74380050420E+02 0.  0.
        -11    1    3    3    0    0  0.48056904299E+02 -0.10668473655E+03 -0.59319818576E+02  0.13118666067E+03  0.00000000000E+00 0. -1.
         11    1    3    3    0    0  0.35969013078E+02  0.17823202479E+01 -0.10226072545E+02  0.37436868552E+02  0.00000000000E+00 0.  1.
        -15    1    1    2    0    0 -0.11222323282E+03  0.78639332407E+02  0.76842048657E+02  0.15711797083E+03  0.17770000000E+01 0. -1.
         15    1    1    2    0    0  0.28197315447E+02  0.26263083893E+02 -0.72961575363E+01  0.39258499943E+02  0.17770000000E+01 0. -1.
</event>
<event>
 7    1  0.1792335E-008  0.1889579E+03  0.7546771E-02  0.1063427E+00
        -11   -1    0    0    0    0  0.00000000000E+00  0.00000000000E+00  0.18250000000E+03  0.18250000000E+03  0.00000000000E+00 0.  1.
         11   -1    0    0    0    0 -0.00000000000E+00 -0.00000000000E+00 -0.18250000000E+03  0.18250000000E+03  0.00000000000E+00 0. -1.
         23    2    1    2    0    0  0.11024568593E+03  0.57821513701E+02  0.67482932136E+02  0.17604208174E+03  0.10459172865E+03 0.  0.
        -11    1    3    3    0    0  0.77055342406E+02  0.52664727290E+02  0.94586259121E+02  0.13288212712E+03  0.00000000000E+00 0.  1.
         11    1    3    3    0    0  0.33190343523E+02  0.51567864116E+01 -0.27103326985E+02  0.43159954621E+02  0.00000000000E+00 0. -1.
        -15    1    1    2    0    0 -0.14799516923E+01  0.20514184038E+02  0.20115041683E+02  0.28823508368E+02  0.17770000000E+01 0. -1.
         15    1    1    2    0    0 -0.10876573424E+03 -0.78335697739E+02 -0.87597973819E+02  0.16013440989E+03  0.17770000000E+01 0. -1.
</event>
<event>
 8    1  0.1792335E-008  0.1875866E+03  0.7546771E-02  0.1064476E+00
        -11   -1    0    0    0    0  0.00000000000E+00  0.00000000000E+00  0.18250000000E+03  0.18250000000E+03  0.00000000000E+00 0. -1.
         11   -1    0    0    0    0 -0.00000000000E+00 -0.00000000000E+00 -0.18250000000E+03  0.18250000000E+03  0.00000000000E+00 0.  1.
         25    2    1    2    0    0  0.10377434543E+03  0.81648826879E+02 -0.46217677735E+02  0.18758661870E+03  0.12496807624E+03 0.  0.
         23    2    1    2    0    0 -0.10377434543E+03 -0.81648826879E+02  0.46217677735E+02  0.17741338130E+03  0.10910448401E+03 0.  0.
        -11    1    4    4    0    0 -0.82695928608E+02 -0.91123814380E+02  0.72175649243E+02  0.14265865028E+03  0.00000000000E+00 0. -1.
         11    1    4    4    0    0 -0.21078416822E+02  0.94749875016E+01 -0.25957971507E+02  0.34754731026E+02  0.00000000000E+00 0.  1.
        -15    1    3    3    0    0  0.71486379677E+02 -0.15888646956E+02  0.36997472172E+01  0.73345739071E+02  0.17770000000E+01 0. -1.
         15    1    3    3    0    0  0.32287965753E+02  0.97537473835E+02 -0.49917424953E+02  0.11424087962E+03  0.17770000000E+01 0. -1.
</event>
<event>
 7    1  0.1792335E-008  0.1855223E+03  0.7546771E-02  0.1066074E+00
        -11   -1    0    0    0    0  0.00000000000E+00  0.00000000000E+00  0.18250000000E+03  0.18250000000E+03  0.00000000000E+00 0.  1.
         11   -1    0    0    0    0 -0.00000000000E+00 -0.00000000000E+00 -0.18250000000E+03  0.18250000000E+03  0.00000000000E+00 0. -1.
         23    2    1    2    0    0  0.15553005461E+02 -0.54116322027E+02 -0.12517801400E+03  0.17947773268E+03  0.11563844106E+03 0.  0.
        -11    1    3    3    0    0 -0.28382154769E+02 -0.65151261079E+02 -0.36479522880E+02  0.79881093627E+02  0.00000000000E+00 0.  1.
         11    1    3    3    0    0  0.43935160230E+02  0.11034939051E+02 -0.88698491116E+02  0.99596639053E+02  0.00000000000E+00 0. -1.
        -15    1    1    2    0    0 -0.21166351391E+02  0.55820205915E+02  0.14921085535E+03  0.16072008868E+03  0.17770000000E+01 0.  1.
         15    1    1    2    0    0  0.56133459304E+01 -0.17038838874E+01 -0.24032841357E+02  0.24802178645E+02  0.17770000000E+01 0. -1.
</event>
<event>
 8    1  0.1792335E-008  0.1887343E+03  0.7546771E-02  0.1063598E+00
        -11   -1    0    0    0    0  0.00000000000E+00  0.00000000000E+00  0.18250000000E+03  0.18250000000E+03  0.00000000000E+00 0.  1.
         11   -1    0    0    0    0 -0.00000000000E+00 -0.00000000000E+00 -0.18250000000E+03  0.18250000000E+03  0.00000000000E+00 0. -1.
         25    2    1    2    0    0 -0.91041898432E+02  0.88782595654E+01 -0.10790276241E+03  0.18873426755E+03  0.12494065331E+03 0.  0.
         23    2    1    2    0    0  0.91041898432E+02 -0.88782595654E+01  0.10790276241E+03  0.17626573245E+03  0.10516250062E+03 0.  0.
        -11    1    4    4    0    0  0.92815115348E+02 -0.35605064252E+02  0.47469096331E+02  0.11016206854E+03  0.00000000000E+00 0. -1.
         11    1    4    4    0    0 -0.17732169159E+01  0.26726804687E+02  0.60433666079E+02  0.66103663914E+02  0.00000000000E+00 0.  1.
        -15    1    3    3    0    0 -0.11669644079E+03 -0.12523775153E+02 -0.10036614168E+03  0.15443906359E+03  0.17770000000E+01 0. -1.
         15    1    3    3    0    0  0.25654542360E+02  0.21402034718E+02 -0.75366207320E+01  0.34295203963E+02  0.17770000000E+01 0. -1.
</event>
<event>
 7    1  0.1792335E-008  0.1950688E+03  0.7546771E-02  0.1058868E+00
        -11   -1    0    0    0    0  0.00000000000E+00  0.00000000000E+00  0.18250000000E+03  0.18250000000E+03  0.00000000000E+00 0.  1.
         11   -1    0    0    0    0 -0.00000000000E+00 -0.00000000000E+00 -0.18250000000E+03  0.18250000000E+03  0.00000000000E+00 0. -1.
         23    2    1    2    0    0  0.10189014006E+03 -0.36041449145E+02 -0.10478189432E+03  0.16993121954E+03  0.78846606153E+02 0.  0.
        -11    1    3    3    0    0  0.69765441769E+02 -0.41811065818E+02 -0.11007667991E+03  0.13686583778E+03  0.00000000000E+00 0. -1.
         11    1    3    3    0    0  0.32124698291E+02  0.57696166730E+01  0.52947855977E+01  0.33065381767E+02  0.00000000000E+00 0.  1.
        -15    1    1    2    0    0  0.78679298910E+01  0.38724083118E+02  0.69083845710E+02  0.79606497230E+02  0.17770000000E+01 0.  1.
         15    1    1    2    0    0 -0.10975806995E+03 -0.26826339725E+01  0.35698048605E+02  0.11546228323E+03  0.17770000000E+01 0. -1.
</event>
<event>
 8    1  0.1792335E-008  0.1954650E+03  0.7546771E-02  0.1058579E+00
        -11   -1    0    0    0    0  0.00000000000E+00  0.00000000000E+00  0.18250000000E+03  0.18250000000E+03  0.00000000000E+00 0. -1.
         11   -1    0    0    0    0 -0.00000000000E+00 -0.00000000000E+00 -0.18250000000E+03  0.18250000000E+03  0.00000000000E+00 0.  1.
         25    2    1    2    0    0 -0.81150993931E+02 -0.12268711363E+03  0.30583591870E+02  0.19546497684E+03  0.12503435293E+03 0.  0.
         23    2    1    2    0    0  0.81150993931E+02  0.12268711363E+03 -0.30583591870E+02  0.16953502316E+03  0.78543976971E+02 0.  0.
        -11    1    4    4    0    0  0.30574917605E+02 -0.34334325594E+00 -0.19027142922E+02  0.36013547991E+02  0.00000000000E+00 0. -1.
         11    1    4    4    0    0  0.50576076325E+02  0.12303045689E+03 -0.11556448949E+02  0.13352147517E+03  0.00000000000E+00 0.  1.
        -15    1    3    3    0    0 -0.79582839119E+02 -0.11174132164E+03 -0.24403166206E+02  0.13934928595E+03  0.17770000000E+01 0.  1.
         15    1    3    3    0    0 -0.15681548116E+01 -0.10945791992E+02  0.54986758077E+02  0.56115690895E+02  0.17770000000E+01 0.  1.
</event>
<event>
 8    1  0.1792335E-008  0.1890062E+03  0.7546771E-02  0.1063391E+00
        -11   -1    0    0    0    0  0.00000000000E+00  0.00000000000E+00  0.18250000000E+03  0.18250000000E+03  0.00000000000E+00 0.  1.
         11   -1    0    0    0    0 -0.00000000000E+00 -0.00000000000E+00 -0.18250000000E+03  0.18250000000E+03  0.00000000000E+00 0. -1.
         25    2    1    2    0    0 -0.16142894261E+02 -0.14069500081E+03 -0.58845448949E+01  0.18900623510E+03  0.12503220685E+03 0.  0.
         23    2    1    2    0    0  0.16142894261E+02  0.14069500081E+03  0.58845448949E+01  0.17599376490E+03  0.10432401989E+03 0.  0.
        -11    1    4    4    0    0  0.53581835419E+02  0.73693669702E+02 -0.23024206065E+02  0.93978104396E+02  0.00000000000E+00 0.  1.
         11    1    4    4    0    0 -0.37438941158E+02  0.67001331112E+02  0.28908750960E+02  0.82015660504E+02  0.00000000000E+00 0. -1.
        -15    1    3    3    0    0 -0.13752550340E+02 -0.18627641534E+02 -0.53206305204E+02  0.58053340235E+02  0.17770000000E+01 0. -1.
         15    1    3    3    0    0 -0.23903439204E+01 -0.12206735928E+03  0.47321760310E+02  0.13095289486E+03  0.17770000000E+01 0. -1.
</event>
<event>
 8    1  0.1792335E-008  0.1860519E+03  0.7546771E-02  0.1065662E+00
        -11   -1    0    0    0    0  0.00000000000E+00  0.00000000000E+00  0.18250000000E+03  0.18250000000E+03  0.00000000000E+00 0. -1.
         11   -1    0    0    0    0 -0.00000000000E+00 -0.00000000000E+00 -0.18250000000E+03  0.18250000000E+03  0.00000000000E+00 0.  1.
         25    2    1    2    0    0  0.23336635602E+02 -0.11640859471E+03 -0.69874322505E+02  0.18605190343E+03  0.12504931163E+03 0.  0.
         23    2    1    2    0    0 -0.23336635602E+02  0.11640859471E+03  0.69874322505E+02  0.17894809657E+03  0.11421226221E+03 0.  0.
        -11    1    4    4    0    0 -0.21188913857E+02  0.93579547426E+02 -0.94154922062E+01  0.96409300694E+02  0.00000000000E+00 0.  1.
         11    1    4    4    0    0 -0.21477217449E+01  0.22829047281E+02  0.79289814711E+02  0.82538795880E+02  0.00000000000E+00 0. -1.
        -15    1    3    3    0    0 -0.46183559192E+02 -0.13751736044E+02 -0.15407646875E+02  0.50621978380E+02  0.17770000000E+01 0. -1.
         15    1    3    3    0    0  0.69520194794E+02 -0.10265685866E+03 -0.54466675630E+02  0.13542992505E+03  0.17770000000E+01 0. -1.
</event>
<event>
 6    1  0.1792335E-008  0.1628491E+03  0.7546771E-02  0.1085271E+00
        -11   -1    0    0    0    0  0.00000000000E+00  0.00000000000E+00  0.18250000000E+03  0.18250000000E+03  0.00000000000E+00 0.  1.
         11   -1    0    0    0    0 -0.00000000000E+00 -0.00000000000E+00 -0.18250000000E+03  0.18250000000E+03  0.00000000000E+00 0.  1.
        -11    1    1    2    0    0 -0.10116742859E+03 -0.26992368803E+02 -0.65241576227E+02  0.12336895821E+03  0.00000000000E+00 0.  1.
         11    1    1    2    0    0  0.67199053250E+02  0.46563192353E+02 -0.21604446798E+02  0.84561195363E+02  0.00000000000E+00 0.  1.
        -15    1    1    2    0    0  0.22604065019E+02 -0.49130781482E+02  0.10670938731E+03  0.11964459250E+03  0.17770000000E+01 0.  1.
         15    1    1    2    0    0  0.11364310324E+02  0.29559957932E+02 -0.19863364284E+02  0.37425253930E+02  0.17770000000E+01 0. -1.
</event>
<event>
 7    1  0.1792335E-008  0.1826018E+03  0.7546771E-02  0.1068374E+00
        -11   -1    0    0    0    0  0.00000000000E+00  0.00000000000E+00  0.18250000000E+03  0.18250000000E+03  0.00000000000E+00 0.  1.
         11   -1    0    0    0    0 -0.00000000000E+00 -0.00000000000E+00 -0.18250000000E+03  0.18250000000E+03  0.00000000000E+00 0.  1.
         23    2    1    2    0    0 -0.58931429945E+02 -0.11911621054E+03 -0.28558155794E+01  0.18260178976E+03  0.12519454019E+03 0.  0.
        -11    1    3    3    0    0  0.10465385769E+02 -0.87317588606E+02  0.38252094453E+02  0.95901555302E+02  0.00000000000E+00 0.  1.
         11    1    3    3    0    0 -0.69396815713E+02 -0.31798621934E+02 -0.41107910033E+02  0.86700234459E+02  0.00000000000E+00 0.  1.
        -15    1    1    2    0    0  0.28487059441E+02  0.51095757601E+02  0.63458907393E+02  0.86327745580E+02  0.17770000000E+01 0.  1.
         15    1    1    2    0    0  0.30444370504E+02  0.68020452939E+02 -0.60603091813E+02  0.96070464659E+02  0.17770000000E+01 0.  1.
</event>
<event>
 7    1  0.1792335E-008  0.1601324E+03  0.7546771E-02  0.1087800E+00
        -11   -1    0    0    0    0  0.00000000000E+00  0.00000000000E+00  0.18250000000E+03  0.18250000000E+03  0.00000000000E+00 0.  1.
         11   -1    0    0    0    0 -0.00000000000E+00 -0.00000000000E+00 -0.18250000000E+03  0.18250000000E+03  0.00000000000E+00 0. -1.
         25    2    1    2    0    0 -0.58147644499E+02 -0.43265841627E+02  0.40769059985E+02  0.15009943062E+03  0.12495855796E+03 0.  0.
        -11    1    1    2    0    0  0.24300346772E+01  0.62720311006E+02 -0.10832558334E+03  0.12519654344E+03  0.00000000000E+00 0. -1.
         11    1    1    2    0    0  0.55717609822E+02 -0.19454469378E+02  0.67556523360E+02  0.89704025950E+02  0.00000000000E+00 0.  1.
        -15    1    3    3    0    0 -0.11495790731E+01 -0.65446023161E+02  0.56980194138E+02  0.86800943155E+02  0.17770000000E+01 0.  1.
         15    1    3    3    0    0 -0.56998065426E+02  0.22180181534E+02 -0.16211134153E+02  0.63298487460E+02  0.17770000000E+01 0.  1.
</event>
<event>
 8    1  0.2240503E-008  0.1868048E+03  0.7546771E-02  0.1065079E+00
        -11   -1    0    0    0    0  0.00000000000E+00  0.00000000000E+00  0.18250000000E+03  0.18250000000E+03  0.00000000000E+00 0. -1.
         11   -1    0    0    0    0 -0.00000000000E+00 -0.00000000000E+00 -0.18250000000E+03  0.18250000000E+03  0.00000000000E+00 0.  1.
         25    2    1    2    0    0  0.11238860595E+03 -0.80809803834E+02  0.10852553011E+02  0.18680484565E+03  0.12496739298E+03 0.  0.
         23    2    1    2    0    0 -0.11238860595E+03  0.80809803834E+02 -0.10852553011E+02  0.17819515435E+03  0.11168845950E+03 0.  0.
        -11    1    4    4    0    0 -0.80020406049E+02  0.47059036053E+02 -0.59858458672E+02  0.11045747296E+03  0.00000000000E+00 0.  1.
         11    1    4    4    0    0 -0.32368199899E+02  0.33750767781E+02  0.49005905661E+02  0.67737681390E+02  0.00000000000E+00 0. -1.
        -15    1    3    3    0    0  0.12375990309E+03 -0.10250450765E+03  0.16661138198E+02  0.16156868185E+03  0.17770000000E+01 0. -1.
         15    1    3    3    0    0 -0.11371297140E+02  0.21694703815E+02 -0.58085851870E+01  0.25236163796E+02  0.17770000000E+01 0. -1.
</event>
<event>
 7    1  0.1792335E-008  0.1868301E+03  0.7546771E-02  0.1065059E+00
        -11   -1    0    0    0    0  0.00000000000E+00  0.00000000000E+00  0.18250000000E+03  0.18250000000E+03  0.00000000000E+00 0. -1.
         11   -1    0    0    0    0 -0.00000000000E+00 -0.00000000000E+00 -0.18250000000E+03  0.18250000000E+03  0.00000000000E+00 0. -1.
         23    2    1    2    0    0 -0.16561757895E+02 -0.11488052194E+03  0.76006694054E+02  0.17816993837E+03  0.11178409213E+03 0.  0.
        -11    1    3    3    0    0  0.12568476446E+02  0.16136722948E+02 -0.54519878591E+01  0.21168008865E+02  0.00000000000E+00 0. -1.
         11    1    3    3    0    0 -0.29130234341E+02 -0.13101724488E+03  0.81458681913E+02  0.15700192951E+03  0.00000000000E+00 0. -1.
        -15    1    1    2    0    0 -0.47523615043E+02  0.88725597944E+02 -0.53644867084E+02  0.11406864254E+03  0.17770000000E+01 0.  1.
         15    1    1    2    0    0  0.64085372938E+02  0.26154923991E+02 -0.22361826970E+02  0.72761419090E+02  0.17770000000E+01 0.  1.
</event>
<event>
 8    1  0.1792335E-008  0.1888511E+03  0.7546771E-02  0.1063509E+00
        -11   -1    0    0    0    0  0.00000000000E+00  0.00000000000E+00  0.18250000000E+03  0.18250000000E+03  0.00000000000E+00 0.  1.
         11   -1    0    0    0    0 -0.00000000000E+00 -0.00000000000E+00 -0.18250000000E+03  0.18250000000E+03  0.00000000000E+00 0. -1.
         25    2    1    2    0    0  0.20192061617E+02 -0.74220219045E+02  0.11890468340E+03  0.18885114636E+03  0.12494027165E+03 0.  0.
         23    2    1    2    0    0 -0.20192061617E+02  0.74220219045E+02 -0.11890468340E+03  0.17614885364E+03  0.10475559477E+03 0.  0.
        -11    1    4    4    0    0 -0.14591480123E+02  0.56915022488E+02 -0.13787199761E+03  0.14986967272E+03  0.00000000000E+00 0. -1.
         11    1    4    4    0    0 -0.56005814939E+01  0.17305196557E+02  0.18967314214E+02  0.26279180912E+02  0.00000000000E+00 0.  1.
        -15    1    3    3    0    0  0.64639857904E+02 -0.58913629508E+02  0.38238482716E+02  0.95469713842E+02  0.17770000000E+01 0. -1.
         15    1    3    3    0    0 -0.44447796288E+02 -0.15306589537E+02  0.80666200683E+02  0.93381432521E+02  0.17770000000E+01 0. -1.
</event>
<event>
 8    1  0.1792335E-008  0.1882808E+03  0.7546771E-02  0.1063944E+00
        -11   -1    0    0    0    0  0.00000000000E+00  0.00000000000E+00  0.18250000000E+03  0.18250000000E+03  0.00000000000E+00 0.  1.
         11   -1    0    0    0    0 -0.00000000000E+00 -0.00000000000E+00 -0.18250000000E+03  0.18250000000E+03  0.00000000000E+00 0. -1.
         25    2    1    2    0    0  0.50120397655E+02 -0.11817667533E+03 -0.57709421763E+02  0.18828079990E+03  0.12506598817E+03 0.  0.
         23    2    1    2    0    0 -0.50120397655E+02  0.11817667533E+03  0.57709421763E+02  0.17671920010E+03  0.10687149981E+03 0.  0.
        -11    1    4    4    0    0 -0.80380555297E+00  0.49647998191E+02  0.75568086869E+02  0.90421820269E+02  0.00000000000E+00 0.  1.
         11    1    4    4    0    0 -0.49316592102E+02  0.68528677139E+02 -0.17858665106E+02  0.86297379835E+02  0.00000000000E+00 0. -1.
        -15    1    3    3    0    0  0.27724522397E+02 -0.14302496653E+03 -0.48056082891E+02  0.15341882226E+03  0.17770000000E+01 0.  1.
         15    1    3    3    0    0  0.22395875258E+02  0.24848291199E+02 -0.96533388726E+01  0.34861977633E+02  0.17770000000E+01 0.  1.
</event>
<event>
 6    1  0.1792335E-008  0.1375927E+03  0.7546771E-02  0.1111161E+00
        -11   -1    0    0    0    0  0.00000000000E+00  0.00000000000E+00  0.18250000000E+03  0.18250000000E+03  0.00000000000E+00 0.  1.
         11   -1    0    0    0    0 -0.00000000000E+00 -0.00000000000E+00 -0.18250000000E+03  0.18250000000E+03  0.00000000000E+00 0. -1.
        -11    1    1    2    0    0 -0.75559361496E+02 -0.11417751000E+03 -0.11696363389E+02  0.13741370316E+03  0.00000000000E+00 0.  1.
         11    1    1    2    0    0  0.47200497268E+02 -0.11062788517E+02  0.37769116308E+01  0.48626508137E+02  0.00000000000E+00 0. -1.
        -15    1    1    2    0    0 -0.25833785412E+01 -0.86351536376E+01 -0.34057770539E+02  0.35275050476E+02  0.17770000000E+01 0.  1.
         15    1    1    2    0    0  0.30942242769E+02  0.13387545216E+03  0.41977222297E+02  0.14368473823E+03  0.17770000000E+01 0. -1.
</event>
<event>
 6    1  0.1792335E-008  0.1612370E+03  0.7546771E-02  0.1086765E+00
        -11   -1    0    0    0    0  0.00000000000E+00  0.00000000000E+00  0.18250000000E+03  0.18250000000E+03  0.00000000000E+00 0. -1.
         11   -1    0    0    0    0 -0.00000000000E+00 -0.00000000000E+00 -0.18250000000E+03  0.18250000000E+03  0.00000000000E+00 0.  1.
        -11    1    1    2    0    0 -0.58722828793E+02  0.37597556244E+02  0.71316337479E+02  0.99739494927E+02  0.00000000000E+00 0. -1.
         11    1    1    2    0    0 -0.47860124920E+02 -0.72214309697E+02 -0.12924106184E+02  0.87592982613E+02  0.00000000000E+00 0.  1.
        -15    1    1    2    0    0  0.28039412819E+02 -0.16481225778E+02  0.33280276700E+02  0.46567950573E+02  0.17770000000E+01 0. -1.
         15    1    1    2    0    0  0.78543540894E+02  0.51097979232E+02 -0.91672507996E+02  0.13109957189E+03  0.17770000000E+01 0. -1.
</event>
<event>
 7    1  0.1792335E-008  0.1966860E+03  0.7546771E-02  0.1057692E+00
        -11   -1    0    0    0    0  0.00000000000E+00  0.00000000000E+00  0.18250000000E+03  0.18250000000E+03  0.00000000000E+00 0. -1.
         11   -1    0    0    0    0 -0.00000000000E+00 -0.00000000000E+00 -0.18250000000E+03  0.18250000000E+03  0.00000000000E+00 0. -1.
         23    2    1    2    0    0  0.93836149904E+02  0.11282752015E+03 -0.37948207650E+02  0.16831403603E+03  0.73172918000E+02 0.  0.
        -11    1    3    3    0    0  0.76159357914E+02  0.11454510107E+03 -0.13666172094E+02  0.13823021463E+03  0.00000000000E+00 0. -1.
         11    1    3    3    0    0  0.17676791989E+02 -0.17175809195E+01 -0.24282035557E+02  0.30083821400E+02  0.00000000000E+00 0. -1.
        -15    1    1    2    0    0 -0.19383942405E+02 -0.11679619597E+03  0.23916163356E+02  0.12079829972E+03  0.17770000000E+01 0. -1.
         15    1    1    2    0    0 -0.74452207498E+02  0.39686758272E+01  0.14032044294E+02  0.75887664250E+02  0.17770000000E+01 0.  1.
</event>
<event>
 8    1  0.1792335E-008  0.1891464E+03  0.7546771E-02  0.1063284E+00
        -11   -1    0    0    0    0  0.00000000000E+00  0.00000000000E+00  0.18250000000E+03  0.18250000000E+03  0.00000000000E+00 0.  1.
         11   -1    0    0    0    0 -0.00000000000E+00 -0.00000000000E+00 -0.18250000000E+03  0.18250000000E+03  0.00000000000E+00 0. -1.
         25    2    1    2    0    0 -0.26286516790E+02 -0.86664272147E+02 -0.10935919641E+03  0.18914636027E+03  0.12496093283E+03 0.  0.
         23    2    1    2    0    0  0.26286516790E+02  0.86664272147E+02  0.10935919641E+03  0.17585363973E+03  0.10374676734E+03 0.  0.
        -11    1    4    4    0    0  0.50356837149E+02  0.13564914349E+02  0.75531726535E+02  0.91787034282E+02  0.00000000000E+00 0.  1.
         11    1    4    4    0    0 -0.24070320359E+02  0.73099357799E+02  0.33827469873E+02  0.84066605443E+02  0.00000000000E+00 0. -1.
        -15    1    3    3    0    0 -0.11298264744E+02 -0.62237891460E+02  0.12024898567E+02  0.64412435400E+02  0.17770000000E+01 0.  1.
         15    1    3    3    0    0 -0.14988252046E+02 -0.24426380688E+02 -0.12138409497E+03  0.12473392488E+03  0.17770000000E+01 0.  1.
</event>
<event>
 8    1  0.1792335E-008  0.1879584E+03  0.7546771E-02  0.1064191E+00
        -11   -1    0    0    0    0  0.00000000000E+00  0.00000000000E+00  0.18250000000E+03  0.18250000000E+03  0.00000000000E+00 0.  1.
         11   -1    0    0    0    0 -0.00000000000E+00 -0.00000000000E+00 -0.18250000000E+03  0.18250000000E+03  0.00000000000E+00 0. -1.
         25    2    1    2    0    0  0.56661639585E+01  0.14024880752E+03  0.31912692953E+01  0.18795842585E+03  0.12496540411E+03 0.  0.
         23    2    1    2    0    0 -0.56661639585E+01 -0.14024880752E+03 -0.31912692953E+01  0.17704157415E+03  0.10785036556E+03 0.  0.
        -11    1    4    4    0    0  0.47971802442E+02 -0.61913022811E+02 -0.19493438035E+02  0.80712516685E+02  0.00000000000E+00 0. -1.
         11    1    4    4    0    0 -0.53637966400E+02 -0.78335784712E+02  0.16302168740E+02  0.96329057462E+02  0.00000000000E+00 0.  1.
        -15    1    3    3    0    0  0.25957158805E+02 -0.25361587587E+01  0.31543435736E+02  0.40967697782E+02  0.17770000000E+01 0. -1.
         15    1    3    3    0    0 -0.20290994847E+02  0.14278496628E+03 -0.28352166441E+02  0.14699072807E+03  0.17770000000E+01 0. -1.
</event>
<event>
 8    1  0.1792335E-008  0.1846944E+03  0.7546771E-02  0.1066721E+00
        -11   -1    0    0    0    0  0.00000000000E+00  0.00000000000E+00  0.18250000000E+03  0.18250000000E+03  0.00000000000E+00 0.  1.
         11   -1    0    0    0    0 -0.00000000000E+00 -0.00000000000E+00 -0.18250000000E+03  0.18250000000E+03  0.00000000000E+00 0.  1.
         25    2    1    2    0    0 -0.70693210198E+02  0.47796850275E+02 -0.10581292411E+03  0.18469441073E+03  0.12503432161E+03 0.  0.
         23    2    1    2    0    0  0.70693210198E+02 -0.47796850275E+02  0.10581292411E+03  0.18030558927E+03  0.11845531541E+03 0.  0.
        -11    1    4    4    0    0  0.86048764221E+02 -0.59521425373E+02  0.11780992081E+03  0.15756385164E+03  0.00000000000E+00 0.  1.
         11    1    4    4    0    0 -0.15355554023E+02  0.11724575097E+02 -0.11996996703E+02  0.22741737631E+02  0.00000000000E+00 0.  1.
        -15    1    3    3    0    0  0.18972164076E+02  0.57095910395E+02 -0.53011153741E+02  0.80207394569E+02  0.17770000000E+01 0. -1.
         15    1    3    3    0    0 -0.89665374274E+02 -0.92990601197E+01 -0.52801770368E+02  0.10448701616E+03  0.17770000000E+01 0. -1.
</event>
<event>
 8    1  0.1792335E-008  0.1869913E+03  0.7546771E-02  0.1064935E+00
        -11   -1    0    0    0    0  0.00000000000E+00  0.00000000000E+00  0.18250000000E+03  0.18250000000E+03  0.00000000000E+00 0.  1.
         11   -1    0    0    0    0 -0.00000000000E+00 -0.00000000000E+00 -0.18250000000E+03  0.18250000000E+03  0.00000000000E+00 0.  1.
         25    2    1    2    0    0  0.86350519086E+02 -0.36320412778E+02  0.10282632896E+03  0.18699127882E+03  0.12496759538E+03 0.  0.
         23    2    1    2    0    0 -0.86350519086E+02  0.36320412778E+02 -0.10282632896E+03  0.17800872118E+03  0.11107774916E+03 0.  0.
        -11    1    4    4    0    0 -0.52220452575E+02  0.28894060217E+02  0.94500567949E+01  0.60424713126E+02  0.00000000000E+00 0.  1.
         11    1    4    4    0    0 -0.34130066511E+02  0.74263525612E+01 -0.11227638575E+03  0.11758400806E+03  0.00000000000E+00 0.  1.
        -15    1    3    3    0    0  0.12513281118E+02 -0.57049631557E+02 -0.33481527578E+00  0.58433830060E+02  0.17770000000E+01 0.  1.
         15    1    3    3    0    0  0.73837237969E+02  0.20729218779E+02  0.10316114424E+03  0.12855744876E+03  0.17770000000E+01 0.  1.
</event>
<event>
 7    1  0.1792335E-008  0.1592143E+03  0.7546771E-02  0.1088667E+00
        -11   -1    0    0    0    0  0.00000000000E+00  0.00000000000E+00  0.18250000000E+03  0.18250000000E+03  0.00000000000E+00 0.  1.
         11   -1    0    0    0    0 -0.00000000000E+00 -0.00000000000E+00 -0.18250000000E+03  0.18250000000E+03  0.00000000000E+00 0.  1.
         25    2    1    2    0    0  0.85358543302E+02 -0.36199369715E+00 -0.56141106523E+02  0.16140869141E+03  0.12495891271E+03 0.  0.
        -11    1    1    2    0    0 -0.10510164143E+03 -0.26460937783E+02 -0.28977772645E+02  0.11218844667E+03  0.00000000000E+00 0.  1.
         11    1    1    2    0    0  0.19743098126E+02  0.26822931481E+02  0.85118879168E+02  0.91402861923E+02  0.00000000000E+00 0.  1.
        -15    1    3    3    0    0  0.45655333816E+02 -0.33344378823E+02  0.27665321429E+02  0.62966537492E+02  0.17770000000E+01 0. -1.
         15    1    3    3    0    0  0.39703209485E+02  0.32982385126E+02 -0.83806427952E+02  0.98442153914E+02  0.17770000000E+01 0.  1.
</event>
<event>
 8    1  0.1792335E-008  0.1874958E+03  0.7546771E-02  0.1064546E+00
        -11   -1    0    0    0    0  0.00000000000E+00  0.00000000000E+00  0.18250000000E+03  0.18250000000E+03  0.00000000000E+00 0.  1.
         11   -1    0    0    0    0 -0.00000000000E+00 -0.00000000000E+00 -0.18250000000E+03  0.18250000000E+03  0.00000000000E+00 0. -1.
         25    2    1    2    0    0 -0.23766694536E+02 -0.97086359165E+02  0.97727995578E+02  0.18749575848E+03  0.12495311690E+03 0.  0.
         23    2    1    2    0    0  0.23766694536E+02  0.97086359165E+02 -0.97727995578E+02  0.17750424152E+03  0.10939093990E+03 0.  0.
        -11    1    4    4    0    0 -0.26427554380E+02  0.21607984236E+02 -0.77420935239E+02  0.84612775788E+02  0.00000000000E+00 0. -1.
         11    1    4    4    0    0  0.50194248916E+02  0.75478374929E+02 -0.20307060339E+02  0.92891465732E+02  0.00000000000E+00 0.  1.
        -15    1    3    3    0    0 -0.62097850195E+02 -0.99889039836E+01  0.53296965965E+02  0.82459963083E+02  0.17770000000E+01 0.  1.
         15    1    3    3    0    0  0.38331155659E+02 -0.87097455182E+02  0.44431029613E+02  0.10503579540E+03  0.17770000000E+01 0.  1.
</event>
<event>
 7    1  0.1792335E-008  0.1627620E+03  0.7546771E-02  0.1085351E+00
        -11   -1    0    0    0    0  0.00000000000E+00  0.00000000000E+00  0.18250000000E+03  0.18250000000E+03  0.00000000000E+00 0. -1.
         11   -1    0    0    0    0 -0.00000000000E+00 -0.00000000000E+00 -0.18250000000E+03  0.18250000000E+03  0.00000000000E+00 0.  1.
         25    2    1    2    0    0 -0.19839809008E+01 -0.37838624887E+02  0.11118424309E+03  0.17148061626E+03  0.12493185393E+03 0.  0.
        -11    1    1    2    0    0  0.49874988682E+02 -0.29446885922E+02 -0.92029544075E+02  0.10873854224E+03  0.00000000000E+00 0.  1.
         11    1    1    2    0    0 -0.47891007781E+02  0.67285510809E+02 -0.19154699020E+02  0.84780841502E+02  0.00000000000E+00 0. -1.
        -15    1    3    3    0    0  0.48006045706E+02 -0.30365752879E+02  0.10646533395E+03  0.12068423441E+03  0.17770000000E+01 0. -1.
         15    1    3    3    0    0 -0.49990026606E+02 -0.74728720080E+01  0.47189091416E+01  0.50796381846E+02  0.17770000000E+01 0. -1.
</event>
<event>
 8    1  0.1792335E-008  0.1983907E+03  0.7546771E-02  0.1056465E+00
        -11   -1    0    0    0    0  0.00000000000E+00  0.00000000000E+00  0.18250000000E+03  0.18250000000E+03  0.00000000000E+00 0.  1.
         11   -1    0    0    0    0 -0.00000000000E+00 -0.00000000000E+00 -0.18250000000E+03  0.18250000000E+03  0.00000000000E+00 0. -1.
         25    2    1    2    0    0  0.72235052620E+02  0.13204008630E+03  0.33023090686E+02  0.19839072467E+03  0.12496346625E+03 0.  0.
         23    2    1    2    0    0 -0.72235052620E+02 -0.13204008630E+03 -0.33023090686E+02  0.16660927533E+03  0.63369068890E+02 0.  0.
        -11    1    4    4    0    0 -0.62105053769E+02 -0.98738143741E+02 -0.51145051580E+02  0.12736591002E+03  0.00000000000E+00 0. -1.
         11    1    4    4    0    0 -0.10129998851E+02 -0.33301942559E+02  0.18121960894E+02  0.39243365319E+02  0.00000000000E+00 0.  1.
        -15    1    3    3    0    0  0.51550570132E+02  0.15462386192E+03  0.37849246432E+02  0.16733715409E+03  0.17770000000E+01 0. -1.
         15    1    3    3    0    0  0.20684482489E+02 -0.22583775619E+02 -0.48261557458E+01  0.31053570573E+02  0.17770000000E+01 0. -1.
</event>
<event>
 7    1  0.1792335E-008  0.1872830E+03  0.7546771E-02  0.1064710E+00
        -11   -1    0    0    0    0  0.00000000000E+00  0.00000000000E+00  0.18250000000E+03  0.18250000000E+03  0.00000000000E+00 0. -1.
         11   -1    0    0    0    0 -0.00000000000E+00 -0.00000000000E+00 -0.18250000000E+03  0.18250000000E+03  0.00000000000E+00 0.  1.
         23    2    1    2    0    0  0.11886277201E+03  0.14988809310E+01  0.73190037913E+02  0.17771696527E+03  0.10998151154E+03 0.  0.
        -11    1    3    3    0    0  0.92483943223E+02  0.50954690867E+02  0.42595374303E+02  0.11385967762E+03  0.00000000000E+00 0. -1.
         11    1    3    3    0    0  0.26378828789E+02 -0.49455809936E+02  0.30594663611E+02  0.63857287651E+02  0.00000000000E+00 0.  1.
        -15    1    1    2    0    0 -0.11907017191E+03 -0.68005800228E+01 -0.55442664662E+01  0.11940624082E+03  0.17770000000E+01 0.  1.
         15    1    1    2    0    0  0.20739989702E+00  0.53016990918E+01 -0.67645771447E+02  0.67876793911E+02  0.17770000000E+01 0.  1.
</event>
<event>
 8    1  0.1792335E-008  0.1874964E+03  0.7546771E-02  0.1064546E+00
        -11   -1    0    0    0    0  0.00000000000E+00  0.00000000000E+00  0.18250000000E+03  0.18250000000E+03  0.00000000000E+00 0. -1.
         11   -1    0    0    0    0 -0.00000000000E+00 -0.00000000000E+00 -0.18250000000E+03  0.18250000000E+03  0.00000000000E+00 0.  1.
         25    2    1    2    0    0 -0.33700926030E+02  0.73427894212E+02  0.11407215015E+03  0.18749643330E+03  0.12496018964E+03 0.  0.
         23    2    1    2    0    0  0.33700926030E+02 -0.73427894212E+02 -0.11407215015E+03  0.17750356670E+03  0.10939676727E+03 0.  0.
        -11    1    4    4    0    0  0.20576973925E+02 -0.69375537095E+02 -0.13459163954E+03  0.15281127719E+03  0.00000000000E+00 0.  1.
         11    1    4    4    0    0  0.13123952105E+02 -0.40523571167E+01  0.20519489382E+02  0.24692289516E+02  0.00000000000E+00 0. -1.
        -15    1    3    3    0    0 -0.64347343749E+02  0.92053589465E+02  0.79189663943E+02  0.13743581988E+03  0.17770000000E+01 0.  1.
         15    1    3    3    0    0  0.30646417719E+02 -0.18625695253E+02  0.34882486210E+02  0.50060613419E+02  0.17770000000E+01 0.  1.
</event>
<event>
 8    1  0.1792335E-008  0.1889028E+03  0.7546771E-02  0.1063469E+00
        -11   -1    0    0    0    0  0.00000000000E+00  0.00000000000E+00  0.18250000000E+03  0.18250000000E+03  0.00000000000E+00 0.  1.
         11   -1    0    0    0    0 -0.00000000000E+00 -0.00000000000E+00 -0.18250000000E+03  0.18250000000E+03  0.00000000000E+00 0. -1.
         25    2    1    2    0    0  0.58512566328E+02  0.95637214727E+02 -0.86431940839E+02  0.18890283559E+03  0.12507439242E+03 0.  0.
         23    2    1    2    0    0 -0.58512566328E+02 -0.95637214727E+02  0.86431940839E+02  0.17609716441E+03  0.10473554152E+03 0.  0.
        -11    1    4    4    0    0  0.20520817475E+01  0.99154859984E+01 -0.14710988650E+02  0.17858921836E+02  0.00000000000E+00 0. -1.
         11    1    4    4    0    0 -0.60564648076E+02 -0.10555270072E+03  0.10114292949E+03  0.15823824257E+03  0.00000000000E+00 0.  1.
        -15    1    3    3    0    0  0.59318905892E+02  0.82882823305E+02 -0.11732474519E+03  0.15542377089E+03  0.17770000000E+01 0.  1.
         15    1    3    3    0    0 -0.80633956381E+00  0.12754391421E+02  0.30892804347E+02  0.33479064703E+02  0.17770000000E+01 0.  1.
</event>
<event>
 8    1  0.1792335E-008  0.1867856E+03  0.7546771E-02  0.1065094E+00
        -11   -1    0    0    0    0  0.00000000000E+00  0.00000000000E+00  0.18250000000E+03  0.18250000000E+03  0.00000000000E+00 0.  1.
         11   -1    0    0    0    0 -0.00000000000E+00 -0.00000000000E+00 -0.18250000000E+03  0.18250000000E+03  0.00000000000E+00 0. -1.
         25    2    1    2    0    0 -0.16158333496E+02 -0.11555404498E+03 -0.75076291742E+02  0.18678561819E+03  0.12505434230E+03 0.  0.
         23    2    1    2    0    0  0.16158333496E+02  0.11555404498E+03  0.75076291742E+02  0.17821438181E+03  0.11184850133E+03 0.  0.
        -11    1    4    4    0    0 -0.18707448370E+02  0.26201732732E+02 -0.24122586409E+02  0.40229325096E+02  0.00000000000E+00 0. -1.
         11    1    4    4    0    0  0.34865781866E+02  0.89352312252E+02  0.99198878151E+02  0.13798505671E+03  0.00000000000E+00 0.  1.
        -15    1    3    3    0    0 -0.39932878717E+02 -0.12824313076E+03 -0.83895537139E+02  0.15837472738E+03  0.17770000000E+01 0.  1.
         15    1    3    3    0    0  0.23774545221E+02  0.12689085781E+02  0.88192453972E+01  0.28410890813E+02  0.17770000000E+01 0.  1.
</event>
<event>
 7    1  0.1792335E-008  0.1577723E+03  0.7546771E-02  0.1090042E+00
        -11   -1    0    0    0    0  0.00000000000E+00  0.00000000000E+00  0.18250000000E+03  0.18250000000E+03  0.00000000000E+00 0.  1.
         11   -1    0    0    0    0 -0.00000000000E+00 -0.00000000000E+00 -0.18250000000E+03  0.18250000000E+03  0.00000000000E+00 0. -1.
         25    2    1    2    0    0  0.11123197552E+03  0.38378304566E+01 -0.11776402505E+02  0.16775351243E+03  0.12496109777E+03 0.  0.
        -11    1    1    2    0    0 -0.67415939687E+02  0.78057674368E+02 -0.30772444729E+01  0.10318613708E+03  0.00000000000E+00 0.  1.
         11    1    1    2    0    0 -0.43816035830E+02 -0.81895504825E+02  0.14853646978E+02  0.94060350493E+02  0.00000000000E+00 0. -1.
        -15    1    3    3    0    0  0.91075399708E+02  0.46701537730E+02 -0.42960207986E+02  0.11101576130E+03  0.17770000000E+01 0. -1.
         15    1    3    3    0    0  0.20156575809E+02 -0.42863707274E+02  0.31183805481E+02  0.56737751126E+02  0.17770000000E+01 0. -1.
</event>
<event>
 8    1  0.1792335E-008  0.1883123E+03  0.7546771E-02  0.1063920E+00
        -11   -1    0    0    0    0  0.00000000000E+00  0.00000000000E+00  0.18250000000E+03  0.18250000000E+03  0.00000000000E+00 0. -1.
         11   -1    0    0    0    0 -0.00000000000E+00 -0.00000000000E+00 -0.18250000000E+03  0.18250000000E+03  0.00000000000E+00 0. -1.
         25    2    1    2    0    0 -0.40512512659E+02 -0.12791062615E+03 -0.42961863884E+02  0.18831228230E+03  0.12495359920E+03 0.  0.
         23    2    1    2    0    0  0.40512512659E+02  0.12791062615E+03  0.42961863884E+02  0.17668771770E+03  0.10663224593E+03 0.  0.
        -11    1    4    4    0    0  0.22197985104E+02  0.10187569268E+03  0.77352945873E+02  0.12982636687E+03  0.00000000000E+00 0. -1.
         11    1    4    4    0    0  0.18314527554E+02  0.26034933475E+02 -0.34391081989E+02  0.46861350823E+02  0.00000000000E+00 0. -1.
        -15    1    3    3    0    0 -0.84316852468E+02 -0.70188075508E+02 -0.15548104550E+02  0.11081786335E+03  0.17770000000E+01 0.  1.
         15    1    3    3    0    0  0.43804339809E+02 -0.57722550643E+02 -0.27413759334E+02  0.77494418951E+02  0.17770000000E+01 0.  1.
</event>
<event>
 8    1  0.1792335E-008  0.1880044E+03  0.7546771E-02  0.1064156E+00
        -11   -1    0    0    0    0  0.00000000000E+00  0.00000000000E+00  0.18250000000E+03  0.18250000000E+03  0.00000000000E+00 0. -1.
         11   -1    0    0    0    0 -0.00000000000E+00 -0.00000000000E+00 -0.18250000000E+03  0.18250000000E+03  0.00000000000E+00 0.  1.
         25    2    1    2    0    0  0.65616007926E+02  0.76725912909E+02  0.97569937103E+02  0.18800441470E+03  0.12503375990E+03 0.  0.
         23    2    1    2    0    0 -0.65616007926E+02 -0.76725912909E+02 -0.97569937103E+02  0.17699558530E+03  0.10777392254E+03 0.  0.
        -11    1    4    4    0    0 -0.57518337526E+02  0.65544590459E+01 -0.15813937304E+02  0.60011671350E+02  0.00000000000E+00 0. -1.
         11    1    4    4    0    0 -0.80976704001E+01 -0.83280371955E+02 -0.81755999799E+02  0.11698391395E+03  0.00000000000E+00 0.  1.
        -15    1    3    3    0    0 -0.24073569275E+02 -0.18079079096E+02  0.19635522504E+02  0.35987516053E+02  0.17770000000E+01 0. -1.
         15    1    3    3    0    0  0.89689577202E+02  0.94804992005E+02  0.77934414599E+02  0.15201689865E+03  0.17770000000E+01 0. -1.
</event>
<event>
 8    1  0.1792335E-008  0.1954769E+03  0.7546771E-02  0.1058570E+00
        -11   -1    0    0    0    0  0.00000000000E+00  0.00000000000E+00  0.18250000000E+03  0.18250000000E+03  0.00000000000E+00 0. -1.
         11   -1    0    0    0    0 -0.00000000000E+00 -0.00000000000E+00 -0.18250000000E+03  0.18250000000E+03  0.00000000000E+00 0.  1.
         25    2    1    2    0    0 -0.91138059014E+02  0.10711540056E+03 -0.53167043690E+02  0.19547694495E+03  0.12491856001E+03 0.  0.
         23    2    1    2    0    0  0.91138059014E+02 -0.10711540056E+03  0.53167043690E+02  0.16952305505E+03  0.78303747162E+02 0.  0.
        -11    1    4    4    0    0 -0.13973591315E+02 -0.10760830303E+02  0.11162044576E+02  0.20872181538E+02  0.00000000000E+00 0.  1.
         11    1    4    4    0    0  0.10511165033E+03 -0.96354570258E+02  0.42004999114E+02  0.14865087351E+03  0.00000000000E+00 0. -1.
        -15    1    3    3    0    0  0.28648530544E+02  0.43749280065E+02 -0.19421760264E+02  0.55813083674E+02  0.17770000000E+01 0.  1.
         15    1    3    3    0    0 -0.11978658956E+03  0.63366120496E+02 -0.33745283426E+02  0.13966386128E+03  0.17770000000E+01 0.  1.
</event>
<event>
 8    1  0.1792335E-008  0.1891272E+03  0.7546771E-02  0.1063299E+00
        -11   -1    0    0    0    0  0.00000000000E+00  0.00000000000E+00  0.18250000000E+03  0.18250000000E+03  0.00000000000E+00 0.  1.
         11   -1    0    0    0    0 -0.00000000000E+00 -0.00000000000E+00 -0.18250000000E+03  0.18250000000E+03  0.00000000000E+00 0. -1.
         25    2    1    2    0    0  0.23272118899E+02 -0.13804628420E+03 -0.23123847439E+02  0.18912721821E+03  0.12504408922E+03 0.  0.
         23    2    1    2    0    0 -0.23272118899E+02  0.13804628420E+03  0.23123847439E+02  0.17587278179E+03  0.10391417110E+03 0.  0.
        -11    1    4    4    0    0  0.32816177702E+01  0.71895552110E+02  0.61721931966E+02  0.94812110587E+02  0.00000000000E+00 0.  1.
         11    1    4    4    0    0 -0.26553736669E+02  0.66150732086E+02 -0.38598084526E+02  0.81060671202E+02  0.00000000000E+00 0. -1.
        -15    1    3    3    0    0  0.40724601894E+02 -0.10561100302E+03  0.36567355643E+02  0.11896430720E+03  0.17770000000E+01 0.  1.
         15    1    3    3    0    0 -0.17452482995E+02 -0.32435281171E+02 -0.59691203083E+02  0.70162911013E+02  0.17770000000E+01 0.  1.
</event>
<event>
 6    1  0.1792335E-008  0.1451205E+03  0.7546771E-02  0.1102843E+00
        -11   -1    0    0    0    0  0.00000000000E+00  0.00000000000E+00  0.18250000000E+03  0.18250000000E+03  0.00000000000E+00 0.  1.
         11   -1    0    0    0    0 -0.00000000000E+00 -0.00000000000E+00 -0.18250000000E+03  0.18250000000E+03  0.00000000000E+00 0.  1.
        -11    1    1    2    0    0 -0.87016506355E+02  0.93643656742E+02  0.79209392131E+02  0.15038329238E+03  0.00000000000E+00 0.  1.
         11    1    1    2    0    0  0.26414890252E+02  0.30577892259E+01 -0.26416000799E+02  0.37482017024E+02  0.00000000000E+00 0.  1.
        -15    1    1    2    0    0  0.88316729570E+02 -0.10682480213E+03 -0.36324367710E+02  0.14329689630E+03  0.17770000000E+01 0. -1.
         15    1    1    2    0    0 -0.27715113466E+02  0.10123356159E+02 -0.16469023622E+02  0.33837794290E+02  0.17770000000E+01 0. -1.
</event>
<event>
 8    1  0.1792335E-008  0.1890483E+03  0.7546771E-02  0.1063359E+00
        -11   -1    0    0    0    0  0.00000000000E+00  0.00000000000E+00  0.18250000000E+03  0.18250000000E+03  0.00000000000E+00 0.  1.
         11   -1    0    0    0    0 -0.00000000000E+00 -0.00000000000E+00 -0.18250000000E+03  0.18250000000E+03  0.00000000000E+00 0. -1.
         25    2    1    2    0    0  0.49110638747E+02  0.19357976783E+02 -0.13167484975E+03  0.18904830678E+03  0.12495763336E+03 0.  0.
         23    2    1    2    0    0 -0.49110638747E+02 -0.19357976783E+02  0.13167484975E+03  0.17595169322E+03  0.10408720472E+03 0.  0.
        -11    1    4    4    0    0  0.12570173199E+01  0.31690071177E+02  0.75524208854E+01  0.32601836835E+02  0.00000000000E+00 0. -1.
         11    1    4    4    0    0 -0.50367656067E+02 -0.51048047960E+02  0.12412242887E+03  0.14334985639E+03  0.00000000000E+00 0.  1.
        -15    1    3    3    0    0  0.32579103648E+01  0.19979510035E+01  0.24751963410E+02  0.25108229922E+02  0.17770000000E+01 0. -1.
         15    1    3    3    0    0  0.45852728382E+02  0.17360025779E+02 -0.15642681316E+03  0.16394007686E+03  0.17770000000E+01 0. -1.
</event>
<event>
 8    1  0.1792335E-008  0.1974865E+03  0.7546771E-02  0.1057114E+00
        -11   -1    0    0    0    0  0.00000000000E+00  0.00000000000E+00  0.18250000000E+03  0.18250000000E+03  0.00000000000E+00 0. -1.
         11   -1    0    0    0    0 -0.00000000000E+00 -0.00000000000E+00 -0.18250000000E+03  0.18250000000E+03  0.00000000000E+00 0.  1.
         25    2    1    2    0    0 -0.13169003923E+03  0.72565732681E+02  0.27871369191E+02  0.19748649547E+03  0.12496419761E+03 0.  0.
         23    2    1    2    0    0  0.13169003923E+03 -0.72565732681E+02 -0.27871369191E+02  0.16751350453E+03  0.68380618506E+02 0.  0.
        -11    1    4    4    0    0  0.26127324180E+02  0.12252933761E+02 -0.11681351027E+02  0.31132385330E+02  0.00000000000E+00 0.  1.
         11    1    4    4    0    0  0.10556271505E+03 -0.84818666442E+02 -0.16190018164E+02  0.13638111920E+03  0.00000000000E+00 0. -1.
        -15    1    3    3    0    0  0.10449613474E+02 -0.21247542713E+01  0.35118140211E+02  0.36744394176E+02  0.17770000000E+01 0. -1.
         15    1    3    3    0    0 -0.14213965270E+03  0.74690486952E+02 -0.72467710196E+01  0.16074210130E+03  0.17770000000E+01 0. -1.
</event>
<event>
 7    1  0.1792335E-008  0.1636600E+03  0.7546771E-02  0.1084526E+00
        -11   -1    0    0    0    0  0.00000000000E+00  0.00000000000E+00  0.18250000000E+03  0.18250000000E+03  0.00000000000E+00 0. -1.
         11   -1    0    0    0    0 -0.00000000000E+00 -0.00000000000E+00 -0.18250000000E+03  0.18250000000E+03  0.00000000000E+00 0.  1.
         25    2    1    2    0    0  0.55261146978E+02 -0.40750907985E+02 -0.16385199664E+02  0.14352456213E+03  0.12496557245E+03 0.  0.
        -11    1    1    2    0    0 -0.12020339325E+03  0.60851437998E+02 -0.31450190116E+02  0.13835052480E+03  0.00000000000E+00 0. -1.
         11    1    1    2    0    0  0.64942246271E+02 -0.20100530013E+02  0.47835389780E+02  0.83124913071E+02  0.00000000000E+00 0.  1.
        -15    1    3    3    0    0  0.67373468726E+02  0.57412364827E+01  0.32426630131E+02  0.75011933419E+02  0.17770000000E+01 0.  1.
         15    1    3    3    0    0 -0.12112321748E+02 -0.46492144468E+02 -0.48811829796E+02  0.68512628707E+02  0.17770000000E+01 0.  1.
</event>
<event>
 8    1  0.1792335E-008  0.1889741E+03  0.7546771E-02  0.1063415E+00
        -11   -1    0    0    0    0  0.00000000000E+00  0.00000000000E+00  0.18250000000E+03  0.18250000000E+03  0.00000000000E+00 0.  1.
         11   -1    0    0    0    0 -0.00000000000E+00 -0.00000000000E+00 -0.18250000000E+03  0.18250000000E+03  0.00000000000E+00 0. -1.
         25    2    1    2    0    0  0.14030488989E+03 -0.90042748771E+01 -0.18124414431E+02  0.18897414244E+03  0.12496476711E+03 0.  0.
         23    2    1    2    0    0 -0.14030488989E+03  0.90042748771E+01  0.18124414431E+02  0.17602585756E+03  0.10435549357E+03 0.  0.
        -11    1    4    4    0    0  0.15640646118E+02  0.10723168956E+02 -0.44817017190E+00  0.18968843401E+02  0.00000000000E+00 0.  1.
         11    1    4    4    0    0 -0.15594553601E+03 -0.17188940788E+01  0.18572584603E+02  0.15705701416E+03  0.00000000000E+00 0. -1.
        -15    1    3    3    0    0 -0.18886277021E+02 -0.11778917505E+02  0.14252970530E+02  0.26490361554E+02  0.17770000000E+01 0.  1.
         15    1    3    3    0    0  0.15919116691E+03  0.27746426283E+01 -0.32377384961E+02  0.16248378088E+03  0.17770000000E+01 0.  1.
</event>
<event>
 8    1  0.1792335E-008  0.1841284E+03  0.7546771E-02  0.1067166E+00
        -11   -1    0    0    0    0  0.00000000000E+00  0.00000000000E+00  0.18250000000E+03  0.18250000000E+03  0.00000000000E+00 0. -1.
         11   -1    0    0    0    0 -0.00000000000E+00 -0.00000000000E+00 -0.18250000000E+03  0.18250000000E+03  0.00000000000E+00 0. -1.
         25    2    1    2    0    0 -0.12169314084E+02  0.94234564115E+02 -0.96222916407E+02  0.18412840046E+03  0.12496468676E+03 0.  0.
         23    2    1    2    0    0  0.12169314084E+02 -0.94234564115E+02  0.96222916407E+02  0.18087159954E+03  0.12011428141E+03 0.  0.
        -11    1    4    4    0    0  0.38549806903E+02 -0.46539824975E+02  0.10923355207E+03  0.12483593961E+03  0.00000000000E+00 0. -1.
         11    1    4    4    0    0 -0.26380492819E+02 -0.47694739139E+02 -0.13010635661E+02  0.56035659925E+02  0.00000000000E+00 0. -1.
        -15    1    3    3    0    0  0.47888387798E+02  0.28912039343E+02 -0.73736091354E+02  0.92570905807E+02  0.17770000000E+01 0. -1.
         15    1    3    3    0    0 -0.60057701882E+02  0.65322524772E+02 -0.22486825053E+02  0.91557494657E+02  0.17770000000E+01 0. -1.
</event>
<event>
 8    1  0.1792335E-008  0.1861733E+03  0.7546771E-02  0.1065568E+00
        -11   -1    0    0    0    0  0.00000000000E+00  0.00000000000E+00  0.18250000000E+03  0.18250000000E+03  0.00000000000E+00 0. -1.
         11   -1    0    0    0    0 -0.00000000000E+00 -0.00000000000E+00 -0.18250000000E+03  0.18250000000E+03  0.00000000000E+00 0.  1.
         25    2    1    2    0    0  0.97056690665E+02 -0.67459616890E+02  0.71074244761E+02  0.18617334755E+03  0.12505265273E+03 0.  0.
         23    2    1    2    0    0 -0.97056690665E+02  0.67459616890E+02 -0.71074244761E+02  0.17882665245E+03  0.11382715953E+03 0.  0.
        -11    1    4    4    0    0 -0.10618910966E+03  0.13848855247E+02 -0.61851877300E+02  0.12366718452E+03  0.00000000000E+00 0. -1.
         11    1    4    4    0    0  0.91324189981E+01  0.53610761643E+02 -0.92223674613E+01  0.55159467930E+02  0.00000000000E+00 0.  1.
        -15    1    3    3    0    0  0.10881054302E+03 -0.10836363407E+02  0.24931874172E+02  0.11216914515E+03  0.17770000000E+01 0. -1.
         15    1    3    3    0    0 -0.11753852354E+02 -0.56623253483E+02  0.46142370589E+02  0.74004202400E+02  0.17770000000E+01 0. -1.
</event>
<event>
 8    1  0.1792335E-008  0.1865688E+03  0.7546771E-02  0.1065261E+00
        -11   -1    0    0    0    0  0.00000000000E+00  0.00000000000E+00  0.18250000000E+03  0.18250000000E+03  0.00000000000E+00 0. -1.
         11   -1    0    0    0    0 -0.00000000000E+00 -0.00000000000E+00 -0.18250000000E+03  0.18250000000E+03  0.00000000000E+00 0.  1.
         25    2    1    2    0    0  0.12463587390E+02 -0.13569469396E+03 -0.25131332737E+02  0.18656880547E+03  0.12493175860E+03 0.  0.
         23    2    1    2    0    0 -0.12463587390E+02  0.13569469396E+03  0.25131332737E+02  0.17843119453E+03  0.11241759790E+03 0.  0.
        -11    1    4    4    0    0 -0.46904074213E+02  0.48797377310E+02  0.47038971989E+02  0.82424760211E+02  0.00000000000E+00 0. -1.
         11    1    4    4    0    0  0.34440486823E+02  0.86897316651E+02 -0.21907639252E+02  0.96006434323E+02  0.00000000000E+00 0.  1.
        -15    1    3    3    0    0  0.15881710575E+02 -0.92638072209E+02  0.44971132575E+02  0.10420941247E+03  0.17770000000E+01 0. -1.
         15    1    3    3    0    0 -0.34181231850E+01 -0.43056621753E+02 -0.70102465312E+02  0.82359392996E+02  0.17770000000E+01 0. -1.
</event>
<event>
 8    1  0.2296047E-008  0.1963551E+03  0.7546771E-02  0.1057932E+00
        -11   -1    0    0    0    0  0.00000000000E+00  0.00000000000E+00  0.18250000000E+03  0.18250000000E+03  0.00000000000E+00 0.  1.
         11   -1    0    0    0    0 -0.00000000000E+00 -0.00000000000E+00 -0.18250000000E+03  0.18250000000E+03  0.00000000000E+00 0. -1.
         25    2    1    2    0    0  0.51739817614E+02 -0.11870800629E+03  0.78441932914E+02  0.19635511995E+03  0.12503438250E+03 0.  0.
         23    2    1    2    0    0 -0.51739817614E+02  0.11870800629E+03 -0.78441932914E+02  0.16864488005E+03  0.74292390216E+02 0.  0.
        -11    1    4    4    0    0 -0.35004980691E+01  0.82463090468E+02 -0.68984305822E+02  0.10756974122E+03  0.00000000000E+00 0.  1.
         11    1    4    4    0    0 -0.48239319544E+02  0.36244915824E+02 -0.94576270917E+01  0.61075138832E+02  0.00000000000E+00 0. -1.
        -15    1    3    3    0    0 -0.39441200267E+01  0.25228359252E+02  0.13055160059E+02  0.28733623623E+02  0.17770000000E+01 0.  1.
         15    1    3    3    0    0  0.55683937640E+02 -0.14393636554E+03  0.65386772855E+02  0.16762149633E+03  0.17770000000E+01 0.  1.
</event>
<event>
 8    1  0.1792335E-008  0.1953664E+03  0.7546771E-02  0.1058651E+00
        -11   -1    0    0    0    0  0.00000000000E+00  0.00000000000E+00  0.18250000000E+03  0.18250000000E+03  0.00000000000E+00 0.  1.
         11   -1    0    0    0    0 -0.00000000000E+00 -0.00000000000E+00 -0.18250000000E+03  0.18250000000E+03  0.00000000000E+00 0. -1.
         25    2    1    2    0    0 -0.74719556898E+02 -0.51208401897E+01  0.13017412796E+03  0.19536641055E+03  0.12495397389E+03 0.  0.
         23    2    1    2    0    0  0.74719556898E+02  0.51208401897E+01 -0.13017412796E+03  0.16963358945E+03  0.78873416902E+02 0.  0.
        -11    1    4    4    0    0  0.76274742674E+02 -0.12550086323E+02 -0.13074319703E+03  0.15188523499E+03  0.00000000000E+00 0. -1.
         11    1    4    4    0    0 -0.15551857765E+01  0.17670926513E+02  0.56906907490E+00  0.17748354466E+02  0.00000000000E+00 0.  1.
        -15    1    3    3    0    0  0.13597863105E+02  0.27164787855E+02  0.86449636774E+02  0.91648922566E+02  0.17770000000E+01 0. -1.
         15    1    3    3    0    0 -0.88317420003E+02 -0.32285628044E+02  0.43724491186E+02  0.10371748798E+03  0.17770000000E+01 0. -1.
</event>
<event>
 7    1  0.1792335E-008  0.1960550E+03  0.7546771E-02  0.1058149E+00
        -11   -1    0    0    0    0  0.00000000000E+00  0.00000000000E+00  0.18250000000E+03  0.18250000000E+03  0.00000000000E+00 0. -1.
         11   -1    0    0    0    0 -0.00000000000E+00 -0.00000000000E+00 -0.18250000000E+03  0.18250000000E+03  0.00000000000E+00 0.  1.
         23    2    1    2    0    0 -0.92657108899E+02  0.27856316758E+02 -0.11617019578E+03  0.16894497994E+03  0.75402769486E+02 0.  0.
        -11    1    3    3    0    0 -0.36616610996E+02  0.33150254922E+02 -0.98087195243E+02  0.10982173497E+03  0.00000000000E+00 0.  1.
         11    1    3    3    0    0 -0.56040497904E+02 -0.52939381640E+01 -0.18083000534E+02  0.59123244963E+02  0.00000000000E+00 0. -1.
        -15    1    1    2    0    0  0.89261878013E+02 -0.60275292307E+02  0.43099535383E+02  0.11602379673E+03  0.17770000000E+01 0. -1.
         15    1    1    2    0    0  0.33952308865E+01  0.32418975549E+02  0.73070660394E+02  0.80031223330E+02  0.17770000000E+01 0. -1.
</event>
<event>
 8    1  0.1792335E-008  0.1846944E+03  0.7546771E-02  0.1066721E+00
        -11   -1    0    0    0    0  0.00000000000E+00  0.00000000000E+00  0.18250000000E+03  0.18250000000E+03  0.00000000000E+00 0.  1.
         11   -1    0    0    0    0 -0.00000000000E+00 -0.00000000000E+00 -0.18250000000E+03  0.18250000000E+03  0.00000000000E+00 0. -1.
         25    2    1    2    0    0 -0.55672364513E+02 -0.29805596836E+01  0.12397174495E+03  0.18469438779E+03  0.12503890366E+03 0.  0.
         23    2    1    2    0    0  0.55672364513E+02  0.29805596836E+01 -0.12397174495E+03  0.18030561221E+03  0.11846022261E+03 0.  0.
        -11    1    4    4    0    0  0.65738738768E+02 -0.26789741352E+02 -0.13017532651E+03  0.14827301727E+03  0.00000000000E+00 0. -1.
         11    1    4    4    0    0 -0.10066374254E+02  0.29770301036E+02  0.62035815647E+01  0.32032594940E+02  0.00000000000E+00 0.  1.
        -15    1    3    3    0    0 -0.26706882856E+02  0.29934758482E+02 -0.11924439637E+02  0.41889107736E+02  0.17770000000E+01 0. -1.
         15    1    3    3    0    0 -0.28965481658E+02 -0.32915318165E+02  0.13589618459E+03  0.14280528006E+03  0.17770000000E+01 0. -1.
</event>
<event>
 6    1  0.1792335E-008  0.1579791E+03  0.7546771E-02  0.1089844E+00
        -11   -1    0    0    0    0  0.00000000000E+00  0.00000000000E+00  0.18250000000E+03  0.18250000000E+03  0.00000000000E+00 0. -1.
         11   -1    0    0    0    0 -0.00000000000E+00 -0.00000000000E+00 -0.18250000000E+03  0.18250000000E+03  0.00000000000E+00 0. -1.
        -11    1    1    2    0    0  0.47345873425E+02  0.62880904577E+02 -0.73866162241E+02  0.10794373449E+03  0.00000000000E+00 0. -1.
         11    1    1    2    0    0 -0.57975721155E+02  0.41469493684E+02  0.60522693784E+02  0.93508821042E+02  0.00000000000E+00 0. -1.
        -15    1    1    2    0    0  0.60091297995E+02 -0.91110630823E+02  0.22632111513E+02  0.11147861384E+03  0.17770000000E+01 0. -1.
         15    1    1    2    0    0 -0.49461450265E+02 -0.13239767438E+02 -0.92886430549E+01  0.52068830628E+02  0.17770000000E+01 0.  1.
</event>
<event>
 8    1  0.1792335E-008  0.1890824E+03  0.7546771E-02  0.1063333E+00
        -11   -1    0    0    0    0  0.00000000000E+00  0.00000000000E+00  0.18250000000E+03  0.18250000000E+03  0.00000000000E+00 0.  1.
         11   -1    0    0    0    0 -0.00000000000E+00 -0.00000000000E+00 -0.18250000000E+03  0.18250000000E+03  0.00000000000E+00 0. -1.
         25    2    1    2    0    0  0.73214532161E+02 -0.25971730791E+02 -0.11876506266E+03  0.18908240388E+03  0.12494845668E+03 0.  0.
         23    2    1    2    0    0 -0.73214532161E+02  0.25971730791E+02  0.11876506266E+03  0.17591759612E+03  0.10395653899E+03 0.  0.
        -11    1    4    4    0    0 -0.57898211963E+02 -0.79421317136E+01  0.12518652284E+03  0.13815551348E+03  0.00000000000E+00 0.  1.
         11    1    4    4    0    0 -0.15316320198E+02  0.33913862504E+02 -0.64214601867E+01  0.37762082640E+02  0.00000000000E+00 0. -1.
        -15    1    3    3    0    0  0.58818310811E+02 -0.62321279855E+02 -0.27886982666E+02  0.90135326818E+02  0.17770000000E+01 0. -1.
         15    1    3    3    0    0  0.14396221350E+02  0.36349549064E+02 -0.90878079991E+02  0.98947077057E+02  0.17770000000E+01 0. -1.
</event>
<event>
 7    1  0.1873531E-008  0.1728118E+03  0.7546771E-02  0.1076439E+00
        -11   -1    0    0    0    0  0.00000000000E+00  0.00000000000E+00  0.18250000000E+03  0.18250000000E+03  0.00000000000E+00 0.  1.
         11   -1    0    0    0    0 -0.00000000000E+00 -0.00000000000E+00 -0.18250000000E+03  0.18250000000E+03  0.00000000000E+00 0.  1.
         25    2    1    2    0    0  0.74067014771E+02  0.60888270686E+02 -0.72017915573E+02  0.17324483463E+03  0.12503554846E+03 0.  0.
        -11    1    1    2    0    0 -0.57900714613E+02  0.21907597377E+02 -0.21757698896E+02  0.65618846658E+02  0.00000000000E+00 0.  1.
         11    1    1    2    0    0 -0.16166300158E+02 -0.82795868064E+02  0.93775614469E+02  0.12613631871E+03  0.00000000000E+00 0.  1.
        -15    1    3    3    0    0  0.95619462655E+02  0.36111958168E+02 -0.89615669450E+02  0.13594587563E+03  0.17770000000E+01 0. -1.
         15    1    3    3    0    0 -0.21552447884E+02  0.24776312518E+02  0.17597753877E+02  0.37298958998E+02  0.17770000000E+01 0. -1.
</event>
<event>
 8    1  0.1792335E-008  0.1888195E+03  0.7546771E-02  0.1063533E+00
        -11   -1    0    0    0    0  0.00000000000E+00  0.00000000000E+00  0.18250000000E+03  0.18250000000E+03  0.00000000000E+00 0.  1.
         11   -1    0    0    0    0 -0.00000000000E+00 -0.00000000000E+00 -0.18250000000E+03  0.18250000000E+03  0.00000000000E+00 0. -1.
         25    2    1    2    0    0  0.67011715875E+02 -0.66453259659E+02 -0.10540900847E+03  0.18881946773E+03  0.12504049962E+03 0.  0.
         23    2    1    2    0    0 -0.67011715875E+02  0.66453259659E+02  0.10540900847E+03  0.17618053227E+03  0.10498530897E+03 0.  0.
        -11    1    4    4    0    0 -0.50389599836E+02 -0.15931567741E+02  0.20426846232E+02  0.56658473941E+02  0.00000000000E+00 0.  1.
         11    1    4    4    0    0 -0.16622116039E+02  0.82384827400E+02  0.84982162240E+02  0.11952205833E+03  0.00000000000E+00 0. -1.
        -15    1    3    3    0    0  0.56041452123E+02  0.37673913458E+01 -0.10341450861E+03  0.11769688150E+03  0.17770000000E+01 0.  1.
         15    1    3    3    0    0  0.10970263752E+02 -0.70220651005E+02 -0.19944998590E+01  0.71122586237E+02  0.17770000000E+01 0.  1.
</event>
<event>
 7    1  0.1792335E-008  0.1965933E+03  0.7546771E-02  0.1057759E+00
        -11   -1    0    0    0    0  0.00000000000E+00  0.00000000000E+00  0.18250000000E+03  0.18250000000E+03  0.00000000000E+00 0. -1.
         11   -1    0    0    0    0 -0.00000000000E+00 -0.00000000000E+00 -0.18250000000E+03  0.18250000000E+03  0.00000000000E+00 0.  1.
         23    2    1    2    0    0 -0.15289721547E+02 -0.14999664956E+03 -0.16039808770E+02  0.16840673900E+03  0.73285631677E+02 0.  0.
        -11    1    3    3    0    0 -0.14057699455E+02 -0.15618813685E+03 -0.23569509634E+02  0.15858081470E+03  0.00000000000E+00 0.  1.
         11    1    3    3    0    0 -0.12320220919E+01  0.61914872871E+01  0.75297008638E+01  0.98259243005E+01  0.00000000000E+00 0. -1.
        -15    1    1    2    0    0  0.45887065936E+02  0.28139732488E+02  0.41986949373E+02  0.68290035960E+02  0.17770000000E+01 0. -1.
         15    1    1    2    0    0 -0.30597344389E+02  0.12185691707E+03 -0.25947140604E+02  0.12830322504E+03  0.17770000000E+01 0. -1.
</event>
<event>
 8    1  0.2103999E-008  0.1887640E+03  0.7546771E-02  0.1063575E+00
        -11   -1    0    0    0    0  0.00000000000E+00  0.00000000000E+00  0.18250000000E+03  0.18250000000E+03  0.00000000000E+00 0.  1.
         11   -1    0    0    0    0 -0.00000000000E+00 -0.00000000000E+00 -0.18250000000E+03  0.18250000000E+03  0.00000000000E+00 0. -1.
         25    2    1    2    0    0 -0.39628841644E+02 -0.70109050856E+02 -0.11631536724E+03  0.18876402555E+03  0.12496747010E+03 0.  0.
         23    2    1    2    0    0  0.39628841644E+02  0.70109050856E+02  0.11631536724E+03  0.17623597445E+03  0.10509105543E+03 0.  0.
        -11    1    4    4    0    0  0.20830984532E+02  0.53566116021E+02  0.22368304216E+00  0.57474418103E+02  0.00000000000E+00 0. -1.
         11    1    4    4    0    0  0.18797857112E+02  0.16542934834E+02  0.11609168420E+03  0.11876155635E+03  0.00000000000E+00 0.  1.
        -15    1    3    3    0    0  0.40789189478E+02 -0.16001409161E+02 -0.10177039906E+02  0.45017029485E+02  0.17770000000E+01 0. -1.
         15    1    3    3    0    0 -0.80418031121E+02 -0.54107641694E+02 -0.10613832734E+03  0.14374699607E+03  0.17770000000E+01 0. -1.
</event>
<event>
 8    1  0.1792335E-008  0.1825752E+03  0.7546771E-02  0.1068395E+00
        -11   -1    0    0    0    0  0.00000000000E+00  0.00000000000E+00  0.18250000000E+03  0.18250000000E+03  0.00000000000E+00 0. -1.
         11   -1    0    0    0    0 -0.00000000000E+00 -0.00000000000E+00 -0.18250000000E+03  0.18250000000E+03  0.00000000000E+00 0.  1.
         25    2    1    2    0    0  0.12552632533E+03 -0.31508143356E+01 -0.43882122417E+02  0.18257521336E+03  0.12506511058E+03 0.  0.
         23    2    1    2    0    0 -0.12552632533E+03  0.31508143356E+01  0.43882122417E+02  0.18242478664E+03  0.12484540892E+03 0.  0.
        -11    1    4    4    0    0 -0.10235831487E+03  0.35424710923E+02 -0.17086485633E+02  0.10965437866E+03  0.00000000000E+00 0.  1.
         11    1    4    4    0    0 -0.23168010456E+02 -0.32273896587E+02  0.60968608050E+02  0.72770407976E+02  0.00000000000E+00 0. -1.
        -15    1    3    3    0    0  0.64354764902E+02  0.57725597715E+02 -0.16658998566E+01  0.86485336031E+02  0.17770000000E+01 0. -1.
         15    1    3    3    0    0  0.61171560429E+02 -0.60876412051E+02 -0.42216222561E+02  0.96089877332E+02  0.17770000000E+01 0. -1.
</event>
<event>
 7    1  0.1792335E-008  0.1841939E+03  0.7546771E-02  0.1067114E+00
        -11   -1    0    0    0    0  0.00000000000E+00  0.00000000000E+00  0.18250000000E+03  0.18250000000E+03  0.00000000000E+00 0.  1.
         11   -1    0    0    0    0 -0.00000000000E+00 -0.00000000000E+00 -0.18250000000E+03  0.18250000000E+03  0.00000000000E+00 0. -1.
         23    2    1    2    0    0 -0.13033591304E+03  0.19103523595E+02 -0.31303980412E+02  0.18080614276E+03  0.11982707218E+03 0.  0.
        -11    1    3    3    0    0 -0.12003766015E+03  0.67569752919E+00 -0.68374052739E+02  0.13814668837E+03  0.00000000000E+00 0. -1.
         11    1    3    3    0    0 -0.10298252897E+02  0.18427826066E+02  0.37070072327E+02  0.42659454386E+02  0.00000000000E+00 0.  1.
        -15    1    1    2    0    0  0.26816769360E+02  0.48284242871E+02  0.24573136507E+02  0.60477301488E+02  0.17770000000E+01 0.  1.
         15    1    1    2    0    0  0.10351914368E+03 -0.67387766466E+02  0.67308439052E+01  0.12371655575E+03  0.17770000000E+01 0.  1.
</event>
<event>
 8    1  0.1792335E-008  0.1989826E+03  0.7546771E-02  0.1056043E+00
        -11   -1    0    0    0    0  0.00000000000E+00  0.00000000000E+00  0.18250000000E+03  0.18250000000E+03  0.00000000000E+00 0. -1.
         11   -1    0    0    0    0 -0.00000000000E+00 -0.00000000000E+00 -0.18250000000E+03  0.18250000000E+03  0.00000000000E+00 0.  1.
         25    2    1    2    0    0  0.15185026773E+03  0.22663627427E+02  0.19698710412E+02  0.19898255561E+03  0.12503549267E+03 0.  0.
         23    2    1    2    0    0 -0.15185026773E+03 -0.22663627427E+02 -0.19698710412E+02  0.16601744439E+03  0.60013405422E+02 0.  0.
        -11    1    4    4    0    0 -0.95522343356E+02  0.14187089839E+02 -0.20405392585E+02  0.98702439913E+02  0.00000000000E+00 0.  1.
         11    1    4    4    0    0 -0.56327924376E+02 -0.36850717266E+02  0.70668217373E+00  0.67315004473E+02  0.00000000000E+00 0. -1.
        -15    1    3    3    0    0  0.12346314059E+03  0.12754331945E+02  0.68392139976E+02  0.14172671804E+03  0.17770000000E+01 0. -1.
         15    1    3    3    0    0  0.28387127144E+02  0.99092954819E+01 -0.48693429564E+02  0.57255837573E+02  0.17770000000E+01 0. -1.
</event>
<event>
 8    1  0.1792335E-008  0.1887929E+03  0.7546771E-02  0.1063553E+00
        -11   -1    0    0    0    0  0.00000000000E+00  0.00000000000E+00  0.18250000000E+03  0.18250000000E+03  0.00000000000E+00 0.  1.
         11   -1    0    0    0    0 -0.00000000000E+00 -0.00000000000E+00 -0.18250000000E+03  0.18250000000E+03  0.00000000000E+00 0. -1.
         25    2    1    2    0    0  0.96014040455E+02  0.90084107321E+02 -0.51606076647E+02  0.18879293788E+03  0.12508294804E+03 0.  0.
         23    2    1    2    0    0 -0.96014040455E+02 -0.90084107321E+02  0.51606076647E+02  0.17620706212E+03  0.10512801357E+03 0.  0.
        -11    1    4    4    0    0 -0.19264268689E+02 -0.86780909170E+02  0.43481025147E+02  0.98957757615E+02  0.00000000000E+00 0.  1.
         11    1    4    4    0    0 -0.76749771766E+02 -0.33031981518E+01  0.81250515002E+01  0.77249304502E+02  0.00000000000E+00 0. -1.
        -15    1    3    3    0    0  0.12718637571E+02  0.91857966694E+02 -0.50162785895E+02  0.10544720292E+03  0.17770000000E+01 0. -1.
         15    1    3    3    0    0  0.83295402884E+02 -0.17738593727E+01 -0.14432907522E+01  0.83345734959E+02  0.17770000000E+01 0. -1.
</event>
<event>
 8    1  0.2386050E-008  0.1885238E+03  0.7546771E-02  0.1063758E+00
        -11   -1    0    0    0    0  0.00000000000E+00  0.00000000000E+00  0.18250000000E+03  0.18250000000E+03  0.00000000000E+00 0. -1.
         11   -1    0    0    0    0 -0.00000000000E+00 -0.00000000000E+00 -0.18250000000E+03  0.18250000000E+03  0.00000000000E+00 0.  1.
         25    2    1    2    0    0 -0.17465829629E+02 -0.56691879821E+02 -0.12808605802E+03  0.18852383497E+03  0.12496468962E+03 0.  0.
         23    2    1    2    0    0  0.17465829629E+02  0.56691879821E+02  0.12808605802E+03  0.17647616503E+03  0.10591871470E+03 0.  0.
        -11    1    4    4    0    0 -0.11167706454E+02  0.52228052933E+02  0.93076093700E+01  0.54213640099E+02  0.00000000000E+00 0.  1.
         11    1    4    4    0    0  0.28633536083E+02  0.44638268883E+01  0.11877844865E+03  0.12226252493E+03  0.00000000000E+00 0. -1.
        -15    1    3    3    0    0 -0.49878981269E+02 -0.27331349427E+02 -0.13282209153E+03  0.14449837771E+03  0.17770000000E+01 0.  1.
         15    1    3    3    0    0  0.32413151641E+02 -0.29360530394E+02  0.47360335119E+01  0.44025457257E+02  0.17770000000E+01 0.  1.
</event>
<event>
 8    1  0.1792335E-008  0.1889648E+03  0.7546771E-02  0.1063422E+00
        -11   -1    0    0    0    0  0.00000000000E+00  0.00000000000E+00  0.18250000000E+03  0.18250000000E+03  0.00000000000E+00 0. -1.
         11   -1    0    0    0    0 -0.00000000000E+00 -0.00000000000E+00 -0.18250000000E+03  0.18250000000E+03  0.00000000000E+00 0.  1.
         25    2    1    2    0    0  0.62022419162E+02  0.12706808132E+03 -0.10236219672E+02  0.18896479048E+03  0.12493932159E+03 0.  0.
         23    2    1    2    0    0 -0.62022419162E+02 -0.12706808132E+03  0.10236219672E+02  0.17603520952E+03  0.10435773583E+03 0.  0.
        -11    1    4    4    0    0 -0.32520995859E+02 -0.49343986211E+02  0.55761733308E+02  0.81251554129E+02  0.00000000000E+00 0.  1.
         11    1    4    4    0    0 -0.29501423303E+02 -0.77724095109E+02 -0.45525513636E+02  0.94783655391E+02  0.00000000000E+00 0. -1.
        -15    1    3    3    0    0 -0.32533118988E+02  0.72348043020E+02 -0.16038513005E+01  0.79362290969E+02  0.17770000000E+01 0. -1.
         15    1    3    3    0    0  0.94555538150E+02  0.54720038301E+02 -0.86323683712E+01  0.10960249951E+03  0.17770000000E+01 0. -1.
</event>
<event>
 7    1  0.1792335E-008  0.1738610E+03  0.7546771E-02  0.1075547E+00
        -11   -1    0    0    0    0  0.00000000000E+00  0.00000000000E+00  0.18250000000E+03  0.18250000000E+03  0.00000000000E+00 0. -1.
         11   -1    0    0    0    0 -0.00000000000E+00 -0.00000000000E+00 -0.18250000000E+03  0.18250000000E+03  0.00000000000E+00 0.  1.
         25    2    1    2    0    0 -0.12136820792E+03  0.16397531043E+02  0.22892678931E+02  0.17651261091E+03  0.12503401995E+03 0.  0.
        -11    1    1    2    0    0  0.10648987546E+03  0.37141428261E+02 -0.53741443807E+02  0.12493086909E+03  0.00000000000E+00 0.  1.
         11    1    1    2    0    0  0.14878332458E+02 -0.53538959305E+02  0.30848764876E+02  0.63556520000E+02  0.00000000000E+00 0. -1.
        -15    1    3    3    0    0 -0.11912060345E+03  0.19385448824E+02 -0.29259348611E+02  0.12419654183E+03  0.17770000000E+01 0. -1.
         15    1    3    3    0    0 -0.22476044693E+01 -0.29879177805E+01  0.52152027542E+02  0.52316069083E+02  0.17770000000E+01 0. -1.
</event>
<event>
 8    1  0.1792335E-008  0.1879267E+03  0.7546771E-02  0.1064215E+00
        -11   -1    0    0    0    0  0.00000000000E+00  0.00000000000E+00  0.18250000000E+03  0.18250000000E+03  0.00000000000E+00 0. -1.
         11   -1    0    0    0    0 -0.00000000000E+00 -0.00000000000E+00 -0.18250000000E+03  0.18250000000E+03  0.00000000000E+00 0.  1.
         25    2    1    2    0    0 -0.10656488688E+03 -0.54441816564E+02  0.73356896617E+02  0.18792668228E+03  0.12496086238E+03 0.  0.
         23    2    1    2    0    0  0.10656488688E+03  0.54441816564E+02 -0.73356896617E+02  0.17707331772E+03  0.10795248519E+03 0.  0.
        -11    1    4    4    0    0  0.39569873145E+02  0.75795111528E+02 -0.17507243189E+02  0.87276442161E+02  0.00000000000E+00 0. -1.
         11    1    4    4    0    0  0.66995013736E+02 -0.21353294964E+02 -0.55849653428E+02  0.89796875554E+02  0.00000000000E+00 0.  1.
        -15    1    3    3    0    0 -0.50079392544E+02 -0.90475643188E+02  0.60048788665E+02  0.11959432393E+03  0.17770000000E+01 0.  1.
         15    1    3    3    0    0 -0.56485494337E+02  0.36033826624E+02  0.13308107952E+02  0.68332358352E+02  0.17770000000E+01 0.  1.
</event>
<event>
 7    1  0.1792335E-008  0.1874529E+03  0.7546771E-02  0.1064579E+00
        -11   -1    0    0    0    0  0.00000000000E+00  0.00000000000E+00  0.18250000000E+03  0.18250000000E+03  0.00000000000E+00 0. -1.
         11   -1    0    0    0    0 -0.00000000000E+00 -0.00000000000E+00 -0.18250000000E+03  0.18250000000E+03  0.00000000000E+00 0.  1.
         23    2    1    2    0    0 -0.85380743927E+01 -0.18249147002E+02  0.13834635176E+03  0.17754711413E+03  0.10944100972E+03 0.  0.
        -11    1    3    3    0    0  0.16483477131E+02  0.22748464205E+02 -0.30103058215E+01  0.28253487982E+02  0.00000000000E+00 0.  1.
         11    1    3    3    0    0 -0.25021551523E+02 -0.40997611207E+02  0.14135665758E+03  0.14929362615E+03  0.00000000000E+00 0. -1.
        -15    1    1    2    0    0  0.42286069873E+01  0.35912626602E+01 -0.16043268355E+03  0.16053841274E+03  0.17770000000E+01 0.  1.
         15    1    1    2    0    0  0.43094674054E+01  0.14657884341E+02  0.22086331792E+02  0.26914473127E+02  0.17770000000E+01 0.  1.
</event>
<event>
 8    1  0.1792335E-008  0.1837578E+03  0.7546771E-02  0.1067458E+00
        -11   -1    0    0    0    0  0.00000000000E+00  0.00000000000E+00  0.18250000000E+03  0.18250000000E+03  0.00000000000E+00 0. -1.
         11   -1    0    0    0    0 -0.00000000000E+00 -0.00000000000E+00 -0.18250000000E+03  0.18250000000E+03  0.00000000000E+00 0.  1.
         25    2    1    2    0    0 -0.12326194978E+03  0.38164970979E+02  0.38351579879E+02  0.18375781325E+03  0.12508403967E+03 0.  0.
         23    2    1    2    0    0  0.12326194978E+03 -0.38164970979E+02 -0.38351579879E+02  0.18124218675E+03  0.12135820246E+03 0.  0.
        -11    1    4    4    0    0  0.11270419251E+03 -0.29618565357E+02 -0.77403301055E+02  0.13989555188E+03  0.00000000000E+00 0.  1.
         11    1    4    4    0    0  0.10557757268E+02 -0.85464056223E+01  0.39051721176E+02  0.41346634862E+02  0.00000000000E+00 0. -1.
        -15    1    3    3    0    0  0.16076508115E+02 -0.17716659665E+02  0.22320594381E+02  0.32767374100E+02  0.17770000000E+01 0.  1.
         15    1    3    3    0    0 -0.13933845789E+03  0.55881630645E+02  0.16030985498E+02  0.15099043915E+03  0.17770000000E+01 0.  1.
</event>
<event>
 7    1  0.1792335E-008  0.1501052E+03  0.7546771E-02  0.1097634E+00
        -11   -1    0    0    0    0  0.00000000000E+00  0.00000000000E+00  0.18250000000E+03  0.18250000000E+03  0.00000000000E+00 0.  1.
         11   -1    0    0    0    0 -0.00000000000E+00 -0.00000000000E+00 -0.18250000000E+03  0.18250000000E+03  0.00000000000E+00 0.  1.
         25    2    1    2    0    0  0.26758331680E+02  0.68035571011E+02  0.12681849691E+02  0.14541649190E+03  0.12506110334E+03 0.  0.
        -11    1    1    2    0    0  0.34918796354E+02 -0.41645296236E+02 -0.97390100803E+02  0.11152795511E+03  0.00000000000E+00 0.  1.
         11    1    1    2    0    0 -0.61677128033E+02 -0.26390274775E+02  0.84708251112E+02  0.10805555299E+03  0.00000000000E+00 0.  1.
        -15    1    3    3    0    0 -0.47413028773E+02  0.23953257338E+02  0.24109608229E+02  0.58362528839E+02  0.17770000000E+01 0.  1.
         15    1    3    3    0    0  0.74171360453E+02  0.44082313673E+02 -0.11427758537E+02  0.87053963060E+02  0.17770000000E+01 0.  1.
</event>
<event>
 7    1  0.1792335E-008  0.1824864E+03  0.7546771E-02  0.1068466E+00
        -11   -1    0    0    0    0  0.00000000000E+00  0.00000000000E+00  0.18250000000E+03  0.18250000000E+03  0.00000000000E+00 0.  1.
         11   -1    0    0    0    0 -0.00000000000E+00 -0.00000000000E+00 -0.18250000000E+03  0.18250000000E+03  0.00000000000E+00 0.  1.
         25    2    1    2    0    0  0.51179035396E+02 -0.84893796128E+02 -0.73079952559E+02  0.17544902894E+03  0.12496172215E+03 0.  0.
        -11    1    1    2    0    0 -0.62655938243E+02  0.12048532689E+03  0.46010313251E+02  0.14338559732E+03  0.00000000000E+00 0.  1.
         11    1    1    2    0    0  0.11476902847E+02 -0.35591530761E+02  0.27069639308E+02  0.46165373747E+02  0.00000000000E+00 0.  1.
        -15    1    3    3    0    0  0.41393629743E+02 -0.44557776966E+02  0.27392901175E+02  0.66725983209E+02  0.17770000000E+01 0. -1.
         15    1    3    3    0    0  0.97854056529E+01 -0.40336019162E+02 -0.10047285373E+03  0.10872304573E+03  0.17770000000E+01 0.  1.
</event>
<event>
 8    1  0.1792335E-008  0.1829567E+03  0.7546771E-02  0.1068092E+00
        -11   -1    0    0    0    0  0.00000000000E+00  0.00000000000E+00  0.18250000000E+03  0.18250000000E+03  0.00000000000E+00 0.  1.
         11   -1    0    0    0    0 -0.00000000000E+00 -0.00000000000E+00 -0.18250000000E+03  0.18250000000E+03  0.00000000000E+00 0. -1.
         25    2    1    2    0    0 -0.98245704560E+02  0.18641740575E+02  0.88637499360E+02  0.18295673004E+03  0.12496729900E+03 0.  0.
         23    2    1    2    0    0  0.98245704560E+02 -0.18641740575E+02 -0.88637499360E+02  0.18204326996E+03  0.12362610116E+03 0.  0.
        -11    1    4    4    0    0  0.38525157998E+02 -0.64643088292E+02 -0.15140343080E+02  0.76760319510E+02  0.00000000000E+00 0. -1.
         11    1    4    4    0    0  0.59720546562E+02  0.46001347718E+02 -0.73497156280E+02  0.10528295045E+03  0.00000000000E+00 0.  1.
        -15    1    3    3    0    0 -0.59053304901E+02  0.51511362600E+02 -0.25090184942E+01  0.78422995349E+02  0.17770000000E+01 0.  1.
         15    1    3    3    0    0 -0.39192399659E+02 -0.32869622025E+02  0.91146517854E+02  0.10453373469E+03  0.17770000000E+01 0.  1.
</event>
<event>
 8    1  0.1792335E-008  0.1857889E+03  0.7546771E-02  0.1065867E+00
        -11   -1    0    0    0    0  0.00000000000E+00  0.00000000000E+00  0.18250000000E+03  0.18250000000E+03  0.00000000000E+00 0. -1.
         11   -1    0    0    0    0 -0.00000000000E+00 -0.00000000000E+00 -0.18250000000E+03  0.18250000000E+03  0.00000000000E+00 0.  1.
         25    2    1    2    0    0 -0.89490542310E+02  0.10189389492E+03 -0.22681282511E+02  0.18578889689E+03  0.12494859201E+03 0.  0.
         23    2    1    2    0    0  0.89490542310E+02 -0.10189389492E+03  0.22681282511E+02  0.17921110311E+03  0.11494022758E+03 0.  0.
        -11    1    4    4    0    0  0.11040114199E+03 -0.48897271986E+02  0.13379823890E+02  0.12148405265E+03  0.00000000000E+00 0.  1.
         11    1    4    4    0    0 -0.20910599685E+02 -0.52996622937E+02  0.93014586203E+01  0.57727050457E+02  0.00000000000E+00 0. -1.
        -15    1    3    3    0    0 -0.90674180970E+00 -0.15863024559E+02  0.26057698018E+02  0.30571540423E+02  0.17770000000E+01 0. -1.
         15    1    3    3    0    0 -0.88583800500E+02  0.11775691948E+03 -0.48738980528E+02  0.15521735647E+03  0.17770000000E+01 0. -1.
</event>
<event>
 8    1  0.1792335E-008  0.1838001E+03  0.7546771E-02  0.1067425E+00
        -11   -1    0    0    0    0  0.00000000000E+00  0.00000000000E+00  0.18250000000E+03  0.18250000000E+03  0.00000000000E+00 0. -1.
         11   -1    0    0    0    0 -0.00000000000E+00 -0.00000000000E+00 -0.18250000000E+03  0.18250000000E+03  0.00000000000E+00 0.  1.
         25    2    1    2    0    0 -0.33483465975E+02 -0.13002385702E+03  0.10773350062E+02  0.18380010446E+03  0.12505625710E+03 0.  0.
         23    2    1    2    0    0  0.33483465975E+02  0.13002385702E+03 -0.10773350062E+02  0.18119989554E+03  0.12120227384E+03 0.  0.
        -11    1    4    4    0    0  0.20196780720E+01  0.20539262981E+02 -0.55196430318E+02  0.58928654687E+02  0.00000000000E+00 0.  1.
         11    1    4    4    0    0  0.31463787903E+02  0.10948459404E+03  0.44423080257E+02  0.12227124086E+03  0.00000000000E+00 0. -1.
        -15    1    3    3    0    0  0.21990307226E+01 -0.11931246908E+03 -0.35361293835E+02  0.12447441442E+03  0.17770000000E+01 0. -1.
         15    1    3    3    0    0 -0.35682496698E+02 -0.10711387937E+02  0.46134643896E+02  0.59325690039E+02  0.17770000000E+01 0. -1.
</event>
<event>
 8    1  0.1792335E-008  0.1847648E+03  0.7546771E-02  0.1066666E+00
        -11   -1    0    0    0    0  0.00000000000E+00  0.00000000000E+00  0.18250000000E+03  0.18250000000E+03  0.00000000000E+00 0. -1.
         11   -1    0    0    0    0 -0.00000000000E+00 -0.00000000000E+00 -0.18250000000E+03  0.18250000000E+03  0.00000000000E+00 0. -1.
         25    2    1    2    0    0  0.25760838872E+01 -0.99619880179E+02  0.92555691512E+02  0.18476476228E+03  0.12506280268E+03 0.  0.
         23    2    1    2    0    0 -0.25760838872E+01  0.99619880179E+02 -0.92555691512E+02  0.18023523772E+03  0.11826845796E+03 0.  0.
        -11    1    4    4    0    0 -0.23261538695E+02 -0.16232480974E+02  0.31602049753E+01  0.28540839450E+02  0.00000000000E+00 0. -1.
         11    1    4    4    0    0  0.20685454808E+02  0.11585236115E+03 -0.95715896487E+02  0.15169439827E+03  0.00000000000E+00 0. -1.
        -15    1    3    3    0    0 -0.18253200559E+02 -0.93505025890E+02  0.11774085354E+03  0.15146760551E+03  0.17770000000E+01 0.  1.
         15    1    3    3    0    0  0.20829284446E+02 -0.61148542891E+01 -0.25185162032E+02  0.33297156771E+02  0.17770000000E+01 0.  1.
</event>
<event>
 8    1  0.1792335E-008  0.1967321E+03  0.7546771E-02  0.1057659E+00
        -11   -1    0    0    0    0  0.00000000000E+00  0.00000000000E+00  0.18250000000E+03  0.18250000000E+03  0.00000000000E+00 0.  1.
         11   -1    0    0    0    0 -0.00000000000E+00 -0.00000000000E+00 -0.18250000000E+03  0.18250000000E+03  0.00000000000E+00 0. -1.
         25    2    1    2    0    0  0.11498831442E+03  0.69820414461E+02 -0.70445549390E+02  0.19673211144E+03  0.12507495958E+03 0.  0.
         23    2    1    2    0    0 -0.11498831442E+03 -0.69820414461E+02  0.70445549390E+02  0.16826788856E+03  0.72486579181E+02 0.  0.
        -11    1    4    4    0    0 -0.67266832664E+02 -0.28224216249E+02 -0.81039896637E+00  0.72952655236E+02  0.00000000000E+00 0. -1.
         11    1    4    4    0    0 -0.47721481760E+02 -0.41596198212E+02  0.71255948357E+02  0.95315233323E+02  0.00000000000E+00 0.  1.
        -15    1    3    3    0    0  0.17202035677E+02  0.75773422713E+02 -0.60012904271E+02  0.98194847263E+02  0.17770000000E+01 0. -1.
         15    1    3    3    0    0  0.97786278747E+02 -0.59530082519E+01 -0.10432645119E+02  0.98537264178E+02  0.17770000000E+01 0. -1.
</event>
<event>
 6    1  0.1792335E-008  0.1734927E+03  0.7546771E-02  0.1075860E+00
        -11   -1    0    0    0    0  0.00000000000E+00  0.00000000000E+00  0.18250000000E+03  0.18250000000E+03  0.00000000000E+00 0.  1.
         11   -1    0    0    0    0 -0.00000000000E+00 -0.00000000000E+00 -0.18250000000E+03  0.18250000000E+03  0.00000000000E+00 0. -1.
        -11    1    1    2    0    0 -0.35967171691E+02  0.72294304119E+02  0.97993938978E+02  0.12697604469E+03  0.00000000000E+00 0.  1.
         11    1    1    2    0    0 -0.50033122588E+02 -0.11316119209E+02 -0.38470352545E+02  0.64119700052E+02  0.00000000000E+00 0. -1.
        -15    1    1    2    0    0  0.81524336037E+02 -0.65783237594E+02 -0.92787891609E+02  0.13995142826E+03  0.17770000000E+01 0.  1.
         15    1    1    2    0    0  0.44759582412E+01  0.48050526844E+01  0.33264305175E+02  0.33952827000E+02  0.17770000000E+01 0.  1.
</event>
<event>
 7    1  0.1792335E-008  0.1882513E+03  0.7546771E-02  0.1063967E+00
        -11   -1    0    0    0    0  0.00000000000E+00  0.00000000000E+00  0.18250000000E+03  0.18250000000E+03  0.00000000000E+00 0.  1.
         11   -1    0    0    0    0 -0.00000000000E+00 -0.00000000000E+00 -0.18250000000E+03  0.18250000000E+03  0.00000000000E+00 0. -1.
         23    2    1    2    0    0  0.28132451410E+02 -0.27189537958E+02 -0.13541819185E+03  0.17674865977E+03  0.10663628017E+03 0.  0.
        -11    1    3    3    0    0  0.24109163862E+02  0.33034511186E+02 -0.17912204888E+02  0.44647259663E+02  0.00000000000E+00 0.  1.
         11    1    3    3    0    0  0.40232875488E+01 -0.60224049144E+02 -0.11750598696E+03  0.13210140010E+03  0.00000000000E+00 0. -1.
        -15    1    1    2    0    0  0.26644573626E+02 -0.12028402892E+02  0.11375197948E+03  0.11746185059E+03  0.17770000000E+01 0.  1.
         15    1    1    2    0    0 -0.54777025036E+02  0.39217940850E+02  0.21666212364E+02  0.70789489640E+02  0.17770000000E+01 0. -1.
</event>
<event>
 8    1  0.1792335E-008  0.1886416E+03  0.7546771E-02  0.1063669E+00
        -11   -1    0    0    0    0  0.00000000000E+00  0.00000000000E+00  0.18250000000E+03  0.18250000000E+03  0.00000000000E+00 0.  1.
         11   -1    0    0    0    0 -0.00000000000E+00 -0.00000000000E+00 -0.18250000000E+03  0.18250000000E+03  0.00000000000E+00 0. -1.
         25    2    1    2    0    0  0.12003449219E+03  0.29665038381E+02 -0.68295970379E+02  0.18864158729E+03  0.12503205616E+03 0.  0.
         23    2    1    2    0    0 -0.12003449219E+03 -0.29665038381E+02  0.68295970379E+02  0.17635841271E+03  0.10559193315E+03 0.  0.
        -11    1    4    4    0    0 -0.96911376095E+02  0.25568347240E+02  0.57389259081E+02  0.11549494472E+03  0.00000000000E+00 0.  1.
         11    1    4    4    0    0 -0.23123116093E+02 -0.55233385621E+02  0.10906711298E+02  0.60863467994E+02  0.00000000000E+00 0. -1.
        -15    1    3    3    0    0  0.47593229487E+02 -0.48935352573E+02 -0.34596985950E+02  0.76549940498E+02  0.17770000000E+01 0. -1.
         15    1    3    3    0    0  0.72441262700E+02  0.78600390954E+02 -0.33698984430E+02  0.11209164679E+03  0.17770000000E+01 0. -1.
</event>
<event>
 7    1  0.1792335E-008  0.1954759E+03  0.7546771E-02  0.1058571E+00
        -11   -1    0    0    0    0  0.00000000000E+00  0.00000000000E+00  0.18250000000E+03  0.18250000000E+03  0.00000000000E+00 0. -1.
         11   -1    0    0    0    0 -0.00000000000E+00 -0.00000000000E+00 -0.18250000000E+03  0.18250000000E+03  0.00000000000E+00 0. -1.
         23    2    1    2    0    0  0.78515339778E+02 -0.34295045760E+02  0.12377807966E+03  0.16952407843E+03  0.77952494624E+02 0.  0.
        -11    1    3    3    0    0  0.16327054332E+01 -0.38401782576E+02  0.48037239479E+02  0.61521857976E+02  0.00000000000E+00 0. -1.
         11    1    3    3    0    0  0.76882634345E+02  0.41067368160E+01  0.75740840184E+02  0.10800222045E+03  0.00000000000E+00 0. -1.
        -15    1    1    2    0    0 -0.51025435624E+02 -0.11837099033E+02  0.81363783533E+01  0.53038385871E+02  0.17770000000E+01 0.  1.
         15    1    1    2    0    0 -0.27489904154E+02  0.46132144793E+02 -0.13191445802E+03  0.14243753570E+03  0.17770000000E+01 0. -1.
</event>
<event>
 8    1  0.1792335E-008  0.1969133E+03  0.7546771E-02  0.1057528E+00
        -11   -1    0    0    0    0  0.00000000000E+00  0.00000000000E+00  0.18250000000E+03  0.18250000000E+03  0.00000000000E+00 0.  1.
         11   -1    0    0    0    0 -0.00000000000E+00 -0.00000000000E+00 -0.18250000000E+03  0.18250000000E+03  0.00000000000E+00 0.  1.
         25    2    1    2    0    0  0.48687489797E+02  0.12480792062E+03  0.72047345901E+02  0.19691332761E+03  0.12504619077E+03 0.  0.
         23    2    1    2    0    0 -0.48687489797E+02 -0.12480792062E+03 -0.72047345901E+02  0.16808667239E+03  0.71517974477E+02 0.  0.
        -11    1    4    4    0    0 -0.27275577486E+01 -0.60502898479E+02  0.83852880058E+00  0.60570152932E+02  0.00000000000E+00 0.  1.
         11    1    4    4    0    0 -0.45959932048E+02 -0.64305022137E+02 -0.72885874701E+02  0.10751651946E+03  0.00000000000E+00 0.  1.
        -15    1    3    3    0    0  0.11699195464E+02  0.21474638428E+02  0.83051173585E+02  0.86594956163E+02  0.17770000000E+01 0.  1.
         15    1    3    3    0    0  0.36988294333E+02  0.10333328219E+03 -0.11003827684E+02  0.11031837144E+03  0.17770000000E+01 0.  1.
</event>
<event>
 7    1  0.1792335E-008  0.1722368E+03  0.7546771E-02  0.1076931E+00
        -11   -1    0    0    0    0  0.00000000000E+00  0.00000000000E+00  0.18250000000E+03  0.18250000000E+03  0.00000000000E+00 0.  1.
         11   -1    0    0    0    0 -0.00000000000E+00 -0.00000000000E+00 -0.18250000000E+03  0.18250000000E+03  0.00000000000E+00 0. -1.
         25    2    1    2    0    0  0.28300985595E+02 -0.63445205836E+02 -0.77476223850E+02  0.16260503926E+03  0.12494636290E+03 0.  0.
        -11    1    1    2    0    0  0.64229729981E+02 -0.12153929872E+02  0.13099825627E+02  0.66669195707E+02  0.00000000000E+00 0.  1.
         11    1    1    2    0    0 -0.92530715576E+02  0.75599135708E+02  0.64376398223E+02  0.13572576503E+03  0.00000000000E+00 0. -1.
        -15    1    3    3    0    0  0.50569679415E+02 -0.38185303047E+02 -0.10256521735E+03  0.12057442260E+03  0.17770000000E+01 0.  1.
         15    1    3    3    0    0 -0.22268693820E+02 -0.25259902788E+02  0.25088993503E+02  0.42030616666E+02  0.17770000000E+01 0.  1.
</event>
<event>
 6    1  0.1792335E-008  0.1363614E+03  0.7546771E-02  0.1112578E+00
        -11   -1    0    0    0    0  0.00000000000E+00  0.00000000000E+00  0.18250000000E+03  0.18250000000E+03  0.00000000000E+00 0.  1.
         11   -1    0    0    0    0 -0.00000000000E+00 -0.00000000000E+00 -0.18250000000E+03  0.18250000000E+03  0.00000000000E+00 0.  1.
        -11    1    1    2    0    0  0.15267593135E+02 -0.40223968772E+02  0.33200202708E+02  0.54344461758E+02  0.00000000000E+00 0.  1.
         11    1    1    2    0    0 -0.89524666625E+01  0.14523795976E+03 -0.12233505191E+02  0.14602695048E+03  0.00000000000E+00 0.  1.
        -15    1    1    2    0    0 -0.14536666046E+02  0.21980559130E+02 -0.26260741638E+02  0.37245723510E+02  0.17770000000E+01 0. -1.
         15    1    1    2    0    0  0.82215395744E+01 -0.12699455012E+03  0.52940441216E+01  0.12738286426E+03  0.17770000000E+01 0. -1.
</event>
<event>
 8    1  0.1792335E-008  0.1854377E+03  0.7546771E-02  0.1066140E+00
        -11   -1    0    0    0    0  0.00000000000E+00  0.00000000000E+00  0.18250000000E+03  0.18250000000E+03  0.00000000000E+00 0.  1.
         11   -1    0    0    0    0 -0.00000000000E+00 -0.00000000000E+00 -0.18250000000E+03  0.18250000000E+03  0.00000000000E+00 0. -1.
         25    2    1    2    0    0  0.12462958031E+03 -0.35656960861E+02  0.44086539757E+02  0.18543772158E+03  0.12505828421E+03 0.  0.
         23    2    1    2    0    0 -0.12462958031E+03  0.35656960861E+02 -0.44086539757E+02  0.17956227842E+03  0.11616814407E+03 0.  0.
        -11    1    4    4    0    0 -0.24958226768E+02 -0.22083570899E+02  0.28127662464E+02  0.43609202959E+02  0.00000000000E+00 0.  1.
         11    1    4    4    0    0 -0.99671353544E+02  0.57740531759E+02 -0.72214202221E+02  0.13595307546E+03  0.00000000000E+00 0. -1.
        -15    1    3    3    0    0  0.61942841569E+02 -0.50043410228E+02 -0.31959768784E+02  0.85824489970E+02  0.17770000000E+01 0.  1.
         15    1    3    3    0    0  0.62686738744E+02  0.14386449367E+02  0.76046308541E+02  0.99613231608E+02  0.17770000000E+01 0.  1.
</event>
<event>
 6    1  0.1792335E-008  0.1139358E+03  0.7546771E-02  0.1141685E+00
        -11   -1    0    0    0    0  0.00000000000E+00  0.00000000000E+00  0.18250000000E+03  0.18250000000E+03  0.00000000000E+00 0.  1.
         11   -1    0    0    0    0 -0.00000000000E+00 -0.00000000000E+00 -0.18250000000E+03  0.18250000000E+03  0.00000000000E+00 0. -1.
        -11    1    1    2    0    0 -0.39294626856E+02 -0.28395677351E+02 -0.63610067252E+02  0.79978890014E+02  0.00000000000E+00 0. -1.
         11    1    1    2    0    0 -0.88661204792E+02  0.36022427625E+02  0.42336421754E+02  0.10464605647E+03  0.00000000000E+00 0.  1.
        -15    1    1    2    0    0  0.84206987834E+01  0.18886146356E+02  0.50399709092E+02  0.54505807927E+02  0.17770000000E+01 0. -1.
         15    1    1    2    0    0  0.11953513286E+03 -0.26512896630E+02 -0.29126063594E+02  0.12586924559E+03  0.17770000000E+01 0. -1.
</event>
<event>
 7    1  0.1792335E-008  0.1501813E+03  0.7546771E-02  0.1097556E+00
        -11   -1    0    0    0    0  0.00000000000E+00  0.00000000000E+00  0.18250000000E+03  0.18250000000E+03  0.00000000000E+00 0.  1.
         11   -1    0    0    0    0 -0.00000000000E+00 -0.00000000000E+00 -0.18250000000E+03  0.18250000000E+03  0.00000000000E+00 0.  1.
         25    2    1    2    0    0 -0.39332992996E+02  0.34353108393E+02  0.13846153415E+02  0.13624211173E+03  0.12507188592E+03 0.  0.
        -11    1    1    2    0    0  0.39350234111E+02  0.50621619364E+01  0.10037275416E+03  0.10792940372E+03  0.00000000000E+00 0.  1.
         11    1    1    2    0    0 -0.17241114830E-01 -0.39415270329E+02 -0.11421890758E+03  0.12082848456E+03  0.00000000000E+00 0.  1.
        -15    1    3    3    0    0 -0.40619062769E+02  0.11852485686E+02  0.66556622746E+02  0.78888094397E+02  0.17770000000E+01 0.  1.
         15    1    3    3    0    0  0.12860697729E+01  0.22500622707E+02 -0.52710469331E+02  0.57354017329E+02  0.17770000000E+01 0. -1.
</event>
<event>
 8    1  0.1792335E-008  0.1883650E+03  0.7546771E-02  0.1063880E+00
        -11   -1    0    0    0    0  0.00000000000E+00  0.00000000000E+00  0.18250000000E+03  0.18250000000E+03  0.00000000000E+00 0. -1.
         11   -1    0    0    0    0 -0.00000000000E+00 -0.00000000000E+00 -0.18250000000E+03  0.18250000000E+03  0.00000000000E+00 0. -1.
         25    2    1    2    0    0 -0.55770197753E+02 -0.11363432195E+03  0.61998821153E+02  0.18836496638E+03  0.12495772346E+03 0.  0.
         23    2    1    2    0    0  0.55770197753E+02  0.11363432195E+03 -0.61998821153E+02  0.17663503362E+03  0.10645659771E+03 0.  0.
        -11    1    4    4    0    0  0.36329083016E+02  0.26507755343E+02  0.25446832339E+02  0.51672087651E+02  0.00000000000E+00 0. -1.
         11    1    4    4    0    0  0.19441114737E+02  0.87126566605E+02 -0.87445653491E+02  0.12496294597E+03  0.00000000000E+00 0. -1.
        -15    1    3    3    0    0 -0.45282945678E+02  0.10712757778E+02 -0.47962595639E+01  0.46813141139E+02  0.17770000000E+01 0. -1.
         15    1    3    3    0    0 -0.10487252076E+02 -0.12434707973E+03  0.66795080717E+02  0.14155182524E+03  0.17770000000E+01 0. -1.
</event>
<event>
 6    1  0.1792335E-008  0.9060825E+02  0.7546771E-02  0.1181136E+00
        -11   -1    0    0    0    0  0.00000000000E+00  0.00000000000E+00  0.18250000000E+03  0.18250000000E+03  0.00000000000E+00 0.  1.
         11   -1    0    0    0    0 -0.00000000000E+00 -0.00000000000E+00 -0.18250000000E+03  0.18250000000E+03  0.00000000000E+00 0. -1.
        -11    1    1    2    0    0  0.35014050262E+02 -0.72914470525E+02  0.25764660926E+02  0.84890055250E+02  0.00000000000E+00 0.  1.
         11    1    1    2    0    0 -0.11757622675E+03  0.45977073825E+02 -0.19002275468E+02  0.12766811226E+03  0.00000000000E+00 0. -1.
        -15    1    1    2    0    0  0.51214631596E+02  0.20340610285E+02  0.58088820902E+02  0.80088374681E+02  0.17770000000E+01 0.  1.
         15    1    1    2    0    0  0.31347544893E+02  0.65967864151E+01 -0.64851206361E+02  0.72353457811E+02  0.17770000000E+01 0.  1.
</event>
<event>
 6    1  0.1792335E-008  0.1648288E+03  0.7546771E-02  0.1083462E+00
        -11   -1    0    0    0    0  0.00000000000E+00  0.00000000000E+00  0.18250000000E+03  0.18250000000E+03  0.00000000000E+00 0. -1.
         11   -1    0    0    0    0 -0.00000000000E+00 -0.00000000000E+00 -0.18250000000E+03  0.18250000000E+03  0.00000000000E+00 0. -1.
        -11    1    1    2    0    0  0.53350976290E+02 -0.20056101213E+01 -0.60149874513E+02  0.80426093695E+02  0.00000000000E+00 0. -1.
         11    1    1    2    0    0  0.64029499703E+02 -0.42356887475E+02  0.74915555516E+02  0.10726706488E+03  0.00000000000E+00 0. -1.
        -15    1    1    2    0    0  0.76292445633E+01  0.19004191798E+02 -0.42093647206E+02  0.46844397132E+02  0.17770000000E+01 0.  1.
         15    1    1    2    0    0 -0.12500972056E+03  0.25358305798E+02  0.27327966203E+02  0.13046244430E+03  0.17770000000E+01 0. -1.
</event>
<event>
 8    1  0.1792335E-008  0.1879128E+03  0.7546771E-02  0.1064226E+00
        -11   -1    0    0    0    0  0.00000000000E+00  0.00000000000E+00  0.18250000000E+03  0.18250000000E+03  0.00000000000E+00 0.  1.
         11   -1    0    0    0    0 -0.00000000000E+00 -0.00000000000E+00 -0.18250000000E+03  0.18250000000E+03  0.00000000000E+00 0. -1.
         25    2    1    2    0    0  0.23851440864E+02  0.12675375578E+03  0.55142812948E+02  0.18791276251E+03  0.12504027615E+03 0.  0.
         23    2    1    2    0    0 -0.23851440864E+02 -0.12675375578E+03 -0.55142812948E+02  0.17708723749E+03  0.10809141512E+03 0.  0.
        -11    1    4    4    0    0 -0.63971248325E+02 -0.79379608864E+02 -0.14716653700E+02  0.10300496499E+03  0.00000000000E+00 0.  1.
         11    1    4    4    0    0  0.40119807461E+02 -0.47374146921E+02 -0.40426159248E+02  0.74082272500E+02  0.00000000000E+00 0. -1.
        -15    1    3    3    0    0  0.42740591453E+02  0.12986811872E+03  0.78497145157E+02  0.15766244304E+03  0.17770000000E+01 0.  1.
         15    1    3    3    0    0 -0.18889150589E+02 -0.31143629368E+01 -0.23354332209E+02  0.30250319476E+02  0.17770000000E+01 0.  1.
</event>
<event>
 6    1  0.1792335E-008  0.1582662E+03  0.7546771E-02  0.1089569E+00
        -11   -1    0    0    0    0  0.00000000000E+00  0.00000000000E+00  0.18250000000E+03  0.18250000000E+03  0.00000000000E+00 0.  1.
         11   -1    0    0    0    0 -0.00000000000E+00 -0.00000000000E+00 -0.18250000000E+03  0.18250000000E+03  0.00000000000E+00 0. -1.
        -11    1    1    2    0    0 -0.51883011107E+02 -0.78089022728E+02 -0.19997730610E+02  0.95862670220E+02  0.00000000000E+00 0. -1.
         11    1    1    2    0    0 -0.48155585359E+02  0.29844678281E+02  0.74124921394E+02  0.93296137083E+02  0.00000000000E+00 0.  1.
        -15    1    1    2    0    0  0.93293270497E+02 -0.89334086578E+01 -0.68948071676E+02  0.11636337236E+03  0.17770000000E+01 0. -1.
         15    1    1    2    0    0  0.67453259696E+01  0.57177753105E+02  0.14820880892E+02  0.59477820337E+02  0.17770000000E+01 0. -1.
</event>
<event>
 7    1  0.2231342E-008  0.1959245E+03  0.7546771E-02  0.1058244E+00
        -11   -1    0    0    0    0  0.00000000000E+00  0.00000000000E+00  0.18250000000E+03  0.18250000000E+03  0.00000000000E+00 0.  1.
         11   -1    0    0    0    0 -0.00000000000E+00 -0.00000000000E+00 -0.18250000000E+03  0.18250000000E+03  0.00000000000E+00 0. -1.
         23    2    1    2    0    0 -0.53771392732E+00 -0.19775566498E+02 -0.14975020075E+03  0.16907554351E+03  0.75960875597E+02 0.  0.
        -11    1    3    3    0    0 -0.12461227671E+02 -0.26542830999E+02 -0.15232859390E+03  0.15512512560E+03  0.00000000000E+00 0. -1.
         11    1    3    3    0    0  0.11923513743E+02  0.67672645015E+01  0.25783931436E+01  0.13950417916E+02  0.00000000000E+00 0.  1.
        -15    1    1    2    0    0 -0.22858646113E+02  0.68420180786E+02  0.90654215895E+02  0.11586709382E+03  0.17770000000E+01 0.  1.
         15    1    1    2    0    0  0.23396360040E+02 -0.48644614288E+02  0.59095984859E+02  0.80057362671E+02  0.17770000000E+01 0. -1.
</event>
<event>
 8    1  0.1792335E-008  0.1965190E+03  0.7546771E-02  0.1057813E+00
        -11   -1    0    0    0    0  0.00000000000E+00  0.00000000000E+00  0.18250000000E+03  0.18250000000E+03  0.00000000000E+00 0. -1.
         11   -1    0    0    0    0 -0.00000000000E+00 -0.00000000000E+00 -0.18250000000E+03  0.18250000000E+03  0.00000000000E+00 0.  1.
         25    2    1    2    0    0 -0.49420527889E+01 -0.13393114834E+03 -0.70834825427E+02  0.19651898635E+03  0.12506063777E+03 0.  0.
         23    2    1    2    0    0  0.49420527889E+01  0.13393114834E+03  0.70834825427E+02  0.16848101365E+03  0.73527566840E+02 0.  0.
        -11    1    4    4    0    0 -0.19578330543E+02  0.61864994491E+01  0.35130099874E+00  0.20535511064E+02  0.00000000000E+00 0.  1.
         11    1    4    4    0    0  0.24520383332E+02  0.12774464889E+03  0.70483524428E+02  0.14794550259E+03  0.00000000000E+00 0. -1.
        -15    1    3    3    0    0  0.84955450549E+01 -0.14223351727E+02  0.33326964570E+02  0.37260197484E+02  0.17770000000E+01 0. -1.
         15    1    3    3    0    0 -0.13437597844E+02 -0.11970779662E+03 -0.10416179000E+03  0.15925878887E+03  0.17770000000E+01 0.  1.
</event>
<event>
 7    1  0.1792335E-008  0.1979249E+03  0.7546771E-02  0.1056799E+00
        -11   -1    0    0    0    0  0.00000000000E+00  0.00000000000E+00  0.18250000000E+03  0.18250000000E+03  0.00000000000E+00 0. -1.
         11   -1    0    0    0    0 -0.00000000000E+00 -0.00000000000E+00 -0.18250000000E+03  0.18250000000E+03  0.00000000000E+00 0. -1.
         23    2    1    2    0    0  0.11089897396E+03  0.81366785191E+02 -0.67677212930E+02  0.16707511603E+03  0.66443608337E+02 0.  0.
        -11    1    3    3    0    0  0.35172568735E+02  0.19914223819E+02  0.10867756852E+02  0.41854438722E+02  0.00000000000E+00 0. -1.
         11    1    3    3    0    0  0.75726405220E+02  0.61452561373E+02 -0.78544969781E+02  0.12522067731E+03  0.00000000000E+00 0. -1.
        -15    1    1    2    0    0 -0.85923524602E+02 -0.19303249779E+02  0.91386161718E+02  0.12692539468E+03  0.17770000000E+01 0. -1.
         15    1    1    2    0    0 -0.24975449353E+02 -0.62063535412E+02 -0.23708948788E+02  0.70999489293E+02  0.17770000000E+01 0.  1.
</event>
<event>
 8    1  0.1792335E-008  0.1885093E+03  0.7546771E-02  0.1063770E+00
        -11   -1    0    0    0    0  0.00000000000E+00  0.00000000000E+00  0.18250000000E+03  0.18250000000E+03  0.00000000000E+00 0.  1.
         11   -1    0    0    0    0 -0.00000000000E+00 -0.00000000000E+00 -0.18250000000E+03  0.18250000000E+03  0.00000000000E+00 0. -1.
         25    2    1    2    0    0 -0.11925155441E+03 -0.65340925276E+02 -0.37876496107E+02  0.18850931067E+03  0.12494303305E+03 0.  0.
         23    2    1    2    0    0  0.11925155441E+03  0.65340925276E+02  0.37876496107E+02  0.17649068933E+03  0.10594321458E+03 0.  0.
        -11    1    4    4    0    0  0.80921031319E+02  0.94049231413E+02  0.21774014500E+02  0.12596657869E+03  0.00000000000E+00 0.  1.
         11    1    4    4    0    0  0.38330523091E+02 -0.28708306138E+02  0.16102481607E+02  0.50524110637E+02  0.00000000000E+00 0. -1.
        -15    1    3    3    0    0 -0.81202494525E+01 -0.63693744830E+02 -0.42892787236E+02  0.77238465207E+02  0.17770000000E+01 0.  1.
         15    1    3    3    0    0 -0.11113130496E+03 -0.16471804455E+01  0.50162911289E+01  0.11127084547E+03  0.17770000000E+01 0.  1.
</event>
<event>
 6    1  0.1792335E-008  0.1181307E+03  0.7546771E-02  0.1135703E+00
        -11   -1    0    0    0    0  0.00000000000E+00  0.00000000000E+00  0.18250000000E+03  0.18250000000E+03  0.00000000000E+00 0.  1.
         11   -1    0    0    0    0 -0.00000000000E+00 -0.00000000000E+00 -0.18250000000E+03  0.18250000000E+03  0.00000000000E+00 0. -1.
        -11    1    1    2    0    0  0.67173254726E+02  0.75221595564E+02 -0.92239453389E+02  0.13666986263E+03  0.00000000000E+00 0. -1.
         11    1    1    2    0    0 -0.18752521519E+02  0.17879656668E+02  0.55990202347E+02  0.61694748113E+02  0.00000000000E+00 0.  1.
        -15    1    1    2    0    0 -0.83555758844E+02 -0.81241857737E+02  0.26824898655E+01  0.11658540974E+03  0.17770000000E+01 0.  1.
         15    1    1    2    0    0  0.35135025636E+02 -0.11859394495E+02  0.33566761177E+02  0.50049979512E+02  0.17770000000E+01 0. -1.
</event>
<event>
 8    1  0.1792335E-008  0.1868455E+03  0.7546771E-02  0.1065047E+00
        -11   -1    0    0    0    0  0.00000000000E+00  0.00000000000E+00  0.18250000000E+03  0.18250000000E+03  0.00000000000E+00 0.  1.
         11   -1    0    0    0    0 -0.00000000000E+00 -0.00000000000E+00 -0.18250000000E+03  0.18250000000E+03  0.00000000000E+00 0. -1.
         25    2    1    2    0    0 -0.55273719391E+02  0.10101223586E+03  0.77526767058E+02  0.18684551318E+03  0.12506874245E+03 0.  0.
         23    2    1    2    0    0  0.55273719391E+02 -0.10101223586E+03 -0.77526767058E+02  0.17815448682E+03  0.11166900069E+03 0.  0.
        -11    1    4    4    0    0 -0.12093472525E+02 -0.76980963011E+00  0.19684911396E+02  0.23115804577E+02  0.00000000000E+00 0.  1.
         11    1    4    4    0    0  0.67367191915E+02 -0.10024242623E+03 -0.97211678454E+02  0.15503868224E+03  0.00000000000E+00 0. -1.
        -15    1    3    3    0    0 -0.19175095369E+02 -0.35396205796E+01 -0.27864502799E+02  0.34055857668E+02  0.17770000000E+01 0.  1.
         15    1    3    3    0    0 -0.36098624022E+02  0.10455185644E+03  0.10539126986E+03  0.15278965551E+03  0.17770000000E+01 0.  1.
</event>
<event>
 7    1  0.1792335E-008  0.1832916E+03  0.7546771E-02  0.1067826E+00
        -11   -1    0    0    0    0  0.00000000000E+00  0.00000000000E+00  0.18250000000E+03  0.18250000000E+03  0.00000000000E+00 0. -1.
         11   -1    0    0    0    0 -0.00000000000E+00 -0.00000000000E+00 -0.18250000000E+03  0.18250000000E+03  0.00000000000E+00 0. -1.
         25    2    1    2    0    0  0.37343779866E+02 -0.74859082342E+02 -0.91884748322E+02  0.17621185384E+03  0.12493746578E+03 0.  0.
        -11    1    1    2    0    0 -0.36260261733E+02 -0.16839106509E+02 -0.19523148279E+02  0.44491745388E+02  0.00000000000E+00 0. -1.
         11    1    1    2    0    0 -0.10835181330E+01  0.91698188852E+02  0.11140789660E+03  0.14429640077E+03  0.00000000000E+00 0. -1.
        -15    1    3    3    0    0 -0.28811085284E+01 -0.46579886912E+02  0.22391669111E+02  0.51793158097E+02  0.17770000000E+01 0.  1.
         15    1    3    3    0    0  0.40224888394E+02 -0.28279195430E+02 -0.11427641743E+03  0.12441869575E+03  0.17770000000E+01 0.  1.
</event>
<event>
 8    1  0.1792335E-008  0.1960244E+03  0.7546771E-02  0.1058172E+00
        -11   -1    0    0    0    0  0.00000000000E+00  0.00000000000E+00  0.18250000000E+03  0.18250000000E+03  0.00000000000E+00 0.  1.
         11   -1    0    0    0    0 -0.00000000000E+00 -0.00000000000E+00 -0.18250000000E+03  0.18250000000E+03  0.00000000000E+00 0. -1.
         25    2    1    2    0    0 -0.13388297159E+03 -0.62851061261E+01  0.69398728511E+02  0.19602436077E+03  0.12508082929E+03 0.  0.
         23    2    1    2    0    0  0.13388297159E+03  0.62851061261E+01 -0.69398728511E+02  0.16897563923E+03  0.75976512767E+02 0.  0.
        -11    1    4    4    0    0  0.32147791742E+02 -0.19292910222E+02 -0.49675556169E+02  0.62236305959E+02  0.00000000000E+00 0. -1.
         11    1    4    4    0    0  0.10173517985E+03  0.25578016348E+02 -0.19723172341E+02  0.10673933327E+03  0.00000000000E+00 0.  1.
        -15    1    3    3    0    0 -0.84039546861E+02 -0.58637461364E+02  0.69295212018E+02  0.12371734498E+03  0.17770000000E+01 0.  1.
         15    1    3    3    0    0 -0.49843424731E+02  0.52352355237E+02  0.10351649259E+00  0.72307015790E+02  0.17770000000E+01 0.  1.
</event>
<event>
 8    1  0.1792335E-008  0.1856312E+03  0.7546771E-02  0.1065989E+00
        -11   -1    0    0    0    0  0.00000000000E+00  0.00000000000E+00  0.18250000000E+03  0.18250000000E+03  0.00000000000E+00 0.  1.
         11   -1    0    0    0    0 -0.00000000000E+00 -0.00000000000E+00 -0.18250000000E+03  0.18250000000E+03  0.00000000000E+00 0. -1.
         25    2    1    2    0    0 -0.23773149768E+02 -0.44017607902E+02  0.12772808372E+03  0.18563123224E+03  0.12506709622E+03 0.  0.
         23    2    1    2    0    0  0.23773149768E+02  0.44017607902E+02 -0.12772808372E+03  0.17936876776E+03  0.11556807095E+03 0.  0.
        -11    1    4    4    0    0 -0.19160881990E+02 -0.29302422437E+02 -0.14712161404E+02  0.37976559250E+02  0.00000000000E+00 0.  1.
         11    1    4    4    0    0  0.42934031758E+02  0.73320030339E+02 -0.11301592231E+03  0.14139220851E+03  0.00000000000E+00 0. -1.
        -15    1    3    3    0    0  0.24468995795E+02  0.22519298200E+02  0.88476389927E+02  0.94536129866E+02  0.17770000000E+01 0.  1.
         15    1    3    3    0    0 -0.48242145562E+02 -0.66536906101E+02  0.39251693788E+02  0.91095102372E+02  0.17770000000E+01 0.  1.
</event>
<event>
 7    1  0.1792335E-008  0.1962151E+03  0.7546771E-02  0.1058033E+00
        -11   -1    0    0    0    0  0.00000000000E+00  0.00000000000E+00  0.18250000000E+03  0.18250000000E+03  0.00000000000E+00 0.  1.
         11   -1    0    0    0    0 -0.00000000000E+00 -0.00000000000E+00 -0.18250000000E+03  0.18250000000E+03  0.00000000000E+00 0.  1.
         23    2    1    2    0    0  0.11595020185E+03 -0.90928103938E+02 -0.33678334392E+02  0.16878492556E+03  0.75111593596E+02 0.  0.
        -11    1    3    3    0    0  0.71082148176E+02 -0.27506935463E+02  0.14197598612E+02  0.77529833575E+02  0.00000000000E+00 0.  1.
         11    1    3    3    0    0  0.44868053675E+02 -0.63421168475E+02 -0.47875933005E+02  0.91255091981E+02  0.00000000000E+00 0.  1.
        -15    1    1    2    0    0 -0.59497425766E+02 -0.14800882800E+02 -0.20498425150E+02  0.64671113854E+02  0.17770000000E+01 0. -1.
         15    1    1    2    0    0 -0.56452776084E+02  0.10572898674E+03  0.54176759543E+02  0.13154396059E+03  0.17770000000E+01 0. -1.
</event>
<event>
 7    1  0.1792335E-008  0.1588942E+03  0.7546771E-02  0.1088971E+00
        -11   -1    0    0    0    0  0.00000000000E+00  0.00000000000E+00  0.18250000000E+03  0.18250000000E+03  0.00000000000E+00 0. -1.
         11   -1    0    0    0    0 -0.00000000000E+00 -0.00000000000E+00 -0.18250000000E+03  0.18250000000E+03  0.00000000000E+00 0.  1.
         25    2    1    2    0    0  0.12413502857E+03  0.83236493768E+01 -0.32092071469E+02  0.17928219627E+03  0.12503366103E+03 0.  0.
        -11    1    1    2    0    0 -0.65743598242E+02 -0.66010133646E+02 -0.95959882054E+01  0.93657041612E+02  0.00000000000E+00 0. -1.
         11    1    1    2    0    0 -0.58391430326E+02  0.57686484269E+02  0.41688059674E+02  0.92060762121E+02  0.00000000000E+00 0.  1.
        -15    1    3    3    0    0  0.32254957411E+02 -0.12970618362E+02  0.45394693615E+02  0.57205376983E+02  0.17770000000E+01 0. -1.
         15    1    3    3    0    0  0.91880071157E+02  0.21294267739E+02 -0.77486765084E+02  0.12207681928E+03  0.17770000000E+01 0. -1.
</event>
<event>
 8    1  0.1792335E-008  0.1843977E+03  0.7546771E-02  0.1066954E+00
        -11   -1    0    0    0    0  0.00000000000E+00  0.00000000000E+00  0.18250000000E+03  0.18250000000E+03  0.00000000000E+00 0.  1.
         11   -1    0    0    0    0 -0.00000000000E+00 -0.00000000000E+00 -0.18250000000E+03  0.18250000000E+03  0.00000000000E+00 0. -1.
         25    2    1    2    0    0  0.14487881147E+02  0.13458194364E+03 -0.80527936332E+01  0.18439767085E+03  0.12496181528E+03 0.  0.
         23    2    1    2    0    0 -0.14487881147E+02 -0.13458194364E+03  0.80527936332E+01  0.18060232915E+03  0.11929021568E+03 0.  0.
        -11    1    4    4    0    0 -0.45437626338E+02 -0.85558676475E+02  0.50024196622E+02  0.10902882763E+03  0.00000000000E+00 0.  1.
         11    1    4    4    0    0  0.30949745191E+02 -0.49023267160E+02 -0.41971402989E+02  0.71573501516E+02  0.00000000000E+00 0. -1.
        -15    1    3    3    0    0 -0.29630886417E+02  0.12016218525E+03  0.26408813223E+02  0.12656035453E+03  0.17770000000E+01 0.  1.
         15    1    3    3    0    0  0.44118767564E+02  0.14419758388E+02 -0.34461606856E+02  0.57837316323E+02  0.17770000000E+01 0.  1.
</event>
<event>
 8    1  0.1792335E-008  0.1954829E+03  0.7546771E-02  0.1058566E+00
        -11   -1    0    0    0    0  0.00000000000E+00  0.00000000000E+00  0.18250000000E+03  0.18250000000E+03  0.00000000000E+00 0. -1.
         11   -1    0    0    0    0 -0.00000000000E+00 -0.00000000000E+00 -0.18250000000E+03  0.18250000000E+03  0.00000000000E+00 0.  1.
         25    2    1    2    0    0  0.12387134634E+03 -0.25246101058E+02 -0.81346790586E+02  0.19548291618E+03  0.12495916980E+03 0.  0.
         23    2    1    2    0    0 -0.12387134634E+03  0.25246101058E+02  0.81346790586E+02  0.16951708382E+03  0.78340700180E+02 0.  0.
        -11    1    4    4    0    0 -0.75021802710E+02 -0.18294571320E+02  0.67648897919E+02  0.10266126636E+03  0.00000000000E+00 0. -1.
         11    1    4    4    0    0 -0.48849543631E+02  0.43540672378E+02  0.13697892667E+02  0.66855817455E+02  0.00000000000E+00 0.  1.
        -15    1    3    3    0    0  0.12023649678E+03 -0.26795350101E+02 -0.11081113490E+03  0.16570175404E+03  0.17770000000E+01 0. -1.
         15    1    3    3    0    0  0.36348495644E+01  0.15492490432E+01  0.29464344313E+02  0.29781162145E+02  0.17770000000E+01 0. -1.
</event>
<event>
 8    1  0.1792335E-008  0.1851895E+03  0.7546771E-02  0.1066334E+00
        -11   -1    0    0    0    0  0.00000000000E+00  0.00000000000E+00  0.18250000000E+03  0.18250000000E+03  0.00000000000E+00 0. -1.
         11   -1    0    0    0    0 -0.00000000000E+00 -0.00000000000E+00 -0.18250000000E+03  0.18250000000E+03  0.00000000000E+00 0.  1.
         25    2    1    2    0    0  0.98907132237E+02 -0.56256696555E+02  0.75745005941E+02  0.18518953900E+03  0.12494167725E+03 0.  0.
         23    2    1    2    0    0 -0.98907132237E+02  0.56256696555E+02 -0.75745005941E+02  0.17981046100E+03  0.11682062851E+03 0.  0.
        -11    1    4    4    0    0 -0.81406970973E+02 -0.14042125270E+02 -0.67918038397E+02  0.10694454706E+03  0.00000000000E+00 0.  1.
         11    1    4    4    0    0 -0.17500161264E+02  0.70298821825E+02 -0.78269675444E+01  0.72865913946E+02  0.00000000000E+00 0. -1.
        -15    1    3    3    0    0 -0.29431193547E+02 -0.15496537715E+02  0.23399112542E+02  0.40706437224E+02  0.17770000000E+01 0. -1.
         15    1    3    3    0    0  0.12833832578E+03 -0.40760158840E+02  0.52345893399E+02  0.14448310177E+03  0.17770000000E+01 0. -1.
</event>
<event>
 7    1  0.1792335E-008  0.1651631E+03  0.7546771E-02  0.1083159E+00
        -11   -1    0    0    0    0  0.00000000000E+00  0.00000000000E+00  0.18250000000E+03  0.18250000000E+03  0.00000000000E+00 0.  1.
         11   -1    0    0    0    0 -0.00000000000E+00 -0.00000000000E+00 -0.18250000000E+03  0.18250000000E+03  0.00000000000E+00 0. -1.
         25    2    1    2    0    0  0.11867700710E+03  0.23536920274E+02 -0.99258376864E+01  0.17422318356E+03  0.12496790309E+03 0.  0.
        -11    1    1    2    0    0 -0.71239330421E+02 -0.46496898341E+02  0.70499201332E+02  0.11048593188E+03  0.00000000000E+00 0.  1.
         11    1    1    2    0    0 -0.47437676679E+02  0.22959978066E+02 -0.60573363645E+02  0.80290884569E+02  0.00000000000E+00 0. -1.
        -15    1    3    3    0    0  0.13325014339E+03 -0.11487529563E+02 -0.19208064565E+02  0.13512835202E+03  0.17770000000E+01 0.  1.
         15    1    3    3    0    0 -0.14573136284E+02  0.35024449837E+02  0.92822268787E+01  0.39094831530E+02  0.17770000000E+01 0.  1.
</event>
<event>
 8    1  0.1792335E-008  0.1954958E+03  0.7546771E-02  0.1058556E+00
        -11   -1    0    0    0    0  0.00000000000E+00  0.00000000000E+00  0.18250000000E+03  0.18250000000E+03  0.00000000000E+00 0.  1.
         11   -1    0    0    0    0 -0.00000000000E+00 -0.00000000000E+00 -0.18250000000E+03  0.18250000000E+03  0.00000000000E+00 0. -1.
         25    2    1    2    0    0  0.14833294816E+03  0.23917967028E+02  0.56061701418E+01  0.19549582248E+03  0.12494980915E+03 0.  0.
         23    2    1    2    0    0 -0.14833294816E+03 -0.23917967028E+02 -0.56061701418E+01  0.16950417752E+03  0.78265601615E+02 0.  0.
        -11    1    4    4    0    0 -0.71588361405E+02 -0.49845951112E+02  0.70431567234E+01  0.87516389251E+02  0.00000000000E+00 0.  1.
         11    1    4    4    0    0 -0.76744586756E+02  0.25927984085E+02 -0.12649326865E+02  0.81987788268E+02  0.00000000000E+00 0. -1.
        -15    1    3    3    0    0  0.13404544352E+03 -0.10368237140E+01  0.49570720141E+02  0.14293239646E+03  0.17770000000E+01 0.  1.
         15    1    3    3    0    0  0.14287504639E+02  0.24954790742E+02 -0.43964549999E+02  0.52563426024E+02  0.17770000000E+01 0.  1.
</event>
<event>
 8    1  0.1828349E-008  0.1881487E+03  0.7546771E-02  0.1064045E+00
        -11   -1    0    0    0    0  0.00000000000E+00  0.00000000000E+00  0.18250000000E+03  0.18250000000E+03  0.00000000000E+00 0.  1.
         11   -1    0    0    0    0 -0.00000000000E+00 -0.00000000000E+00 -0.18250000000E+03  0.18250000000E+03  0.00000000000E+00 0. -1.
         25    2    1    2    0    0  0.10225714367E+02  0.11354862253E+03 -0.82270815383E+02  0.18814868992E+03  0.12503434545E+03 0.  0.
         23    2    1    2    0    0 -0.10225714367E+02 -0.11354862253E+03  0.82270815383E+02  0.17685131008E+03  0.10728487265E+03 0.  0.
        -11    1    4    4    0    0 -0.56199909536E+02 -0.85104241768E+02  0.60422419103E+02  0.11854126087E+03  0.00000000000E+00 0.  1.
         11    1    4    4    0    0  0.45974195169E+02 -0.28444380763E+02  0.21848396280E+02  0.58310049206E+02  0.00000000000E+00 0. -1.
        -15    1    3    3    0    0 -0.51982188747E+02  0.78726988900E+02 -0.65580076661E+02  0.11490861983E+03  0.17770000000E+01 0. -1.
         15    1    3    3    0    0  0.62207903114E+02  0.34821633630E+02 -0.16690738722E+02  0.73240070089E+02  0.17770000000E+01 0. -1.
</event>
<event>
 7    1  0.1792335E-008  0.1675506E+03  0.7546771E-02  0.1081019E+00
        -11   -1    0    0    0    0  0.00000000000E+00  0.00000000000E+00  0.18250000000E+03  0.18250000000E+03  0.00000000000E+00 0.  1.
         11   -1    0    0    0    0 -0.00000000000E+00 -0.00000000000E+00 -0.18250000000E+03  0.18250000000E+03  0.00000000000E+00 0. -1.
         25    2    1    2    0    0  0.10444334936E+03  0.41637336449E+02 -0.46339136703E+02  0.17436724140E+03  0.12495814608E+03 0.  0.
        -11    1    1    2    0    0 -0.49244066950E+02 -0.23099353535E+02 -0.52705694884E+02  0.75739346028E+02  0.00000000000E+00 0. -1.
         11    1    1    2    0    0 -0.55199282408E+02 -0.18537982914E+02  0.99044831587E+02  0.11489341257E+03  0.00000000000E+00 0.  1.
        -15    1    3    3    0    0  0.10807176550E+03  0.74859474512E+02 -0.22774350146E+02  0.13343641248E+03  0.17770000000E+01 0. -1.
         15    1    3    3    0    0 -0.36284161441E+01 -0.33222138062E+02 -0.23564786557E+02  0.40930828915E+02  0.17770000000E+01 0. -1.
</event>
<event>
 7    1  0.1792335E-008  0.1648064E+03  0.7546771E-02  0.1083482E+00
        -11   -1    0    0    0    0  0.00000000000E+00  0.00000000000E+00  0.18250000000E+03  0.18250000000E+03  0.00000000000E+00 0. -1.
         11   -1    0    0    0    0 -0.00000000000E+00 -0.00000000000E+00 -0.18250000000E+03  0.18250000000E+03  0.00000000000E+00 0.  1.
         25    2    1    2    0    0  0.60059567756E+02  0.11261520498E+03  0.18918933641E+02  0.17961090188E+03  0.12495124630E+03 0.  0.
        -11    1    1    2    0    0 -0.69397445534E+02 -0.23366977621E+02  0.34511819725E+02  0.80951138291E+02  0.00000000000E+00 0. -1.
         11    1    1    2    0    0  0.93378777780E+01 -0.89248227358E+02 -0.53430753366E+02  0.10443795983E+03  0.00000000000E+00 0.  1.
        -15    1    3    3    0    0  0.89617487109E+02  0.36301752391E+02  0.81801187148E+01  0.97052477009E+02  0.17770000000E+01 0.  1.
         15    1    3    3    0    0 -0.29557919353E+02  0.76313452588E+02  0.10738814926E+02  0.82558424872E+02  0.17770000000E+01 0.  1.
</event>
<event>
 8    1  0.1792335E-008  0.1885309E+03  0.7546771E-02  0.1063753E+00
        -11   -1    0    0    0    0  0.00000000000E+00  0.00000000000E+00  0.18250000000E+03  0.18250000000E+03  0.00000000000E+00 0.  1.
         11   -1    0    0    0    0 -0.00000000000E+00 -0.00000000000E+00 -0.18250000000E+03  0.18250000000E+03  0.00000000000E+00 0. -1.
         25    2    1    2    0    0 -0.13546263417E+03 -0.22847653437E+01  0.39833567816E+02  0.18853094090E+03  0.12490739426E+03 0.  0.
         23    2    1    2    0    0  0.13546263417E+03  0.22847653437E+01 -0.39833567816E+02  0.17646905910E+03  0.10582660481E+03 0.  0.
        -11    1    4    4    0    0  0.45969897314E+02  0.27717119866E+02 -0.60793796984E+02  0.81100899775E+02  0.00000000000E+00 0. -1.
         11    1    4    4    0    0  0.89492736858E+02 -0.25432354522E+02  0.20960229168E+02  0.95368159328E+02  0.00000000000E+00 0.  1.
        -15    1    3    3    0    0 -0.86240002577E+02 -0.61558726683E+02  0.12256979601E+02  0.10667804907E+03  0.17770000000E+01 0. -1.
         15    1    3    3    0    0 -0.49222631595E+02  0.59273961339E+02  0.27576588215E+02  0.81852891828E+02  0.17770000000E+01 0. -1.
</event>
<event>
 7    1  0.1792335E-008  0.1760062E+03  0.7546771E-02  0.1073745E+00
        -11   -1    0    0    0    0  0.00000000000E+00  0.00000000000E+00  0.18250000000E+03  0.18250000000E+03  0.00000000000E+00 0.  1.
         11   -1    0    0    0    0 -0.00000000000E+00 -0.00000000000E+00 -0.18250000000E+03  0.18250000000E+03  0.00000000000E+00 0.  1.
         25    2    1    2    0    0 -0.12108425813E+02 -0.10162109859E+03  0.77315798287E+02  0.17915669289E+03  0.12508367715E+03 0.  0.
        -11    1    1    2    0    0  0.16329893941E+02  0.44644427502E+02  0.35537307759E+02  0.59352258473E+02  0.00000000000E+00 0.  1.
         11    1    1    2    0    0 -0.42214681277E+01  0.56976671085E+02 -0.11285310605E+03  0.12649104864E+03  0.00000000000E+00 0.  1.
        -15    1    3    3    0    0  0.42947403786E+02 -0.10730484697E+02 -0.51961722547E+01  0.44606958302E+02  0.17770000000E+01 0. -1.
         15    1    3    3    0    0 -0.55055829600E+02 -0.90890613890E+02  0.82511970541E+02  0.13454973459E+03  0.17770000000E+01 0. -1.
</event>
<event>
 6    1  0.1792335E-008  0.1039449E+03  0.7546771E-02  0.1157161E+00
        -11   -1    0    0    0    0  0.00000000000E+00  0.00000000000E+00  0.18250000000E+03  0.18250000000E+03  0.00000000000E+00 0. -1.
         11   -1    0    0    0    0 -0.00000000000E+00 -0.00000000000E+00 -0.18250000000E+03  0.18250000000E+03  0.00000000000E+00 0.  1.
        -11    1    1    2    0    0  0.74018224059E+02 -0.93938345988E+02 -0.50956057617E+02  0.12999857748E+03  0.00000000000E+00 0.  1.
         11    1    1    2    0    0  0.44518875121E+01  0.46498172072E+02  0.64016546209E+02  0.79246561421E+02  0.00000000000E+00 0. -1.
        -15    1    1    2    0    0 -0.59811269433E+00  0.29280337127E+02 -0.57284689318E+02  0.64361395575E+02  0.17770000000E+01 0. -1.
         15    1    1    2    0    0 -0.77871998877E+02  0.18159836788E+02  0.44224200725E+02  0.91393465521E+02  0.17770000000E+01 0. -1.
</event>
<event>
 6    1  0.1792335E-008  0.1258576E+03  0.7546771E-02  0.1125374E+00
        -11   -1    0    0    0    0  0.00000000000E+00  0.00000000000E+00  0.18250000000E+03  0.18250000000E+03  0.00000000000E+00 0.  1.
         11   -1    0    0    0    0 -0.00000000000E+00 -0.00000000000E+00 -0.18250000000E+03  0.18250000000E+03  0.00000000000E+00 0.  1.
        -11    1    1    2    0    0 -0.85271557100E+01  0.41058872100E+02  0.53052821823E+02  0.67625034315E+02  0.00000000000E+00 0.  1.
         11    1    1    2    0    0 -0.85858015440E+02 -0.79078065074E+02 -0.68549854686E+02  0.13536625048E+03  0.00000000000E+00 0.  1.
        -15    1    1    2    0    0  0.84343971302E+02  0.65172501091E+02  0.49312959993E+02  0.11745759297E+03  0.17770000000E+01 0.  1.
         15    1    1    2    0    0  0.10041199848E+02 -0.27153308118E+02 -0.33815927130E+02  0.44551122240E+02  0.17770000000E+01 0.  1.
</event>
<event>
 8    1  0.1792335E-008  0.1881000E+03  0.7546771E-02  0.1064083E+00
        -11   -1    0    0    0    0  0.00000000000E+00  0.00000000000E+00  0.18250000000E+03  0.18250000000E+03  0.00000000000E+00 0. -1.
         11   -1    0    0    0    0 -0.00000000000E+00 -0.00000000000E+00 -0.18250000000E+03  0.18250000000E+03  0.00000000000E+00 0.  1.
         25    2    1    2    0    0  0.34439295405E+02  0.10440068993E+03  0.87632480866E+02  0.18809999811E+03  0.12496634931E+03 0.  0.
         23    2    1    2    0    0 -0.34439295405E+02 -0.10440068993E+03 -0.87632480866E+02  0.17690000189E+03  0.10737127102E+03 0.  0.
        -11    1    4    4    0    0  0.22004875359E+02  0.94461050561E+01 -0.27047983250E+02  0.36125293607E+02  0.00000000000E+00 0.  1.
         11    1    4    4    0    0 -0.56444170765E+02 -0.11384679498E+03 -0.60584497616E+02  0.14077470829E+03  0.00000000000E+00 0. -1.
        -15    1    3    3    0    0  0.77842287414E+02  0.72013459829E+02  0.32806759521E+02  0.11101712168E+03  0.17770000000E+01 0.  1.
         15    1    3    3    0    0 -0.43402992009E+02  0.32387230098E+02  0.54825721345E+02  0.77082876430E+02  0.17770000000E+01 0.  1.
</event>
<event>
 8    1  0.1792335E-008  0.1866523E+03  0.7546771E-02  0.1065197E+00
        -11   -1    0    0    0    0  0.00000000000E+00  0.00000000000E+00  0.18250000000E+03  0.18250000000E+03  0.00000000000E+00 0.  1.
         11   -1    0    0    0    0 -0.00000000000E+00 -0.00000000000E+00 -0.18250000000E+03  0.18250000000E+03  0.00000000000E+00 0. -1.
         25    2    1    2    0    0  0.11220469356E+03  0.80919372341E+02  0.81222826329E+01  0.18665225462E+03  0.12504101168E+03 0.  0.
         23    2    1    2    0    0 -0.11220469356E+03 -0.80919372341E+02 -0.81222826329E+01  0.17834774538E+03  0.11226802185E+03 0.  0.
        -11    1    4    4    0    0 -0.11012481811E+03 -0.42458949365E+02 -0.43755703115E+02  0.12587612760E+03  0.00000000000E+00 0.  1.
         11    1    4    4    0    0 -0.20798754499E+01 -0.38460422976E+02  0.35633420482E+02  0.52471617782E+02  0.00000000000E+00 0. -1.
        -15    1    3    3    0    0 -0.26762119542E+02  0.20599491445E+02  0.95513246703E+01  0.35141650817E+02  0.17770000000E+01 0. -1.
         15    1    3    3    0    0  0.13896681310E+03  0.60319880896E+02 -0.14290420374E+01  0.15151060380E+03  0.17770000000E+01 0. -1.
</event>
<event>
 7    1  0.1792335E-008  0.1869360E+03  0.7546771E-02  0.1064978E+00
        -11   -1    0    0    0    0  0.00000000000E+00  0.00000000000E+00  0.18250000000E+03  0.18250000000E+03  0.00000000000E+00 0.  1.
         11   -1    0    0    0    0 -0.00000000000E+00 -0.00000000000E+00 -0.18250000000E+03  0.18250000000E+03  0.00000000000E+00 0. -1.
         23    2    1    2    0    0  0.15683406018E+02 -0.11832706076E+03  0.71424062808E+02  0.17806395126E+03  0.11116704303E+03 0.  0.
        -11    1    3    3    0    0  0.55301140038E+02 -0.10838334142E+03  0.59908330940E+02  0.13562511900E+03  0.00000000000E+00 0. -1.
         11    1    3    3    0    0 -0.39617734020E+02 -0.99437193382E+01  0.11515731869E+02  0.42438832260E+02  0.00000000000E+00 0.  1.
        -15    1    1    2    0    0  0.16043424854E+02  0.25398447219E+02  0.32263189578E+02  0.44119652458E+02  0.17770000000E+01 0. -1.
         15    1    1    2    0    0 -0.31726830873E+02  0.92928613539E+02 -0.10368725239E+03  0.14281639629E+03  0.17770000000E+01 0. -1.
</event>
<event>
 7    1  0.1792335E-008  0.1660256E+03  0.7546771E-02  0.1082381E+00
        -11   -1    0    0    0    0  0.00000000000E+00  0.00000000000E+00  0.18250000000E+03  0.18250000000E+03  0.00000000000E+00 0. -1.
         11   -1    0    0    0    0 -0.00000000000E+00 -0.00000000000E+00 -0.18250000000E+03  0.18250000000E+03  0.00000000000E+00 0. -1.
         25    2    1    2    0    0 -0.97837637791E+02  0.50009269070E+01  0.54985892901E+02  0.16803383701E+03  0.12495883051E+03 0.  0.
        -11    1    1    2    0    0  0.60294512986E+02  0.57817290680E+02 -0.83791896189E+02  0.11831884577E+03  0.00000000000E+00 0. -1.
         11    1    1    2    0    0  0.37543124805E+02 -0.62818217587E+02  0.28806003288E+02  0.78647317223E+02  0.00000000000E+00 0. -1.
        -15    1    3    3    0    0 -0.97440568166E+02 -0.44226059082E+02  0.23504829112E+02  0.10957300465E+03  0.17770000000E+01 0.  1.
         15    1    3    3    0    0 -0.39706962476E+00  0.49226985989E+02  0.31481063789E+02  0.58460832360E+02  0.17770000000E+01 0.  1.
</event>
<event>
 8    1  0.1792335E-008  0.1867555E+03  0.7546771E-02  0.1065117E+00
        -11   -1    0    0    0    0  0.00000000000E+00  0.00000000000E+00  0.18250000000E+03  0.18250000000E+03  0.00000000000E+00 0.  1.
         11   -1    0    0    0    0 -0.00000000000E+00 -0.00000000000E+00 -0.18250000000E+03  0.18250000000E+03  0.00000000000E+00 0. -1.
         25    2    1    2    0    0  0.82745903076E+02  0.64058475486E+02 -0.91208055521E+02  0.18675549767E+03  0.12493331726E+03 0.  0.
         23    2    1    2    0    0 -0.82745903076E+02 -0.64058475486E+02  0.91208055521E+02  0.17824450233E+03  0.11181153993E+03 0.  0.
        -11    1    4    4    0    0 -0.10600879719E+03 -0.68201003894E+02  0.61412044033E+02  0.14021655097E+03  0.00000000000E+00 0.  1.
         11    1    4    4    0    0  0.23262894113E+02  0.41425284072E+01  0.29796011488E+02  0.38027951361E+02  0.00000000000E+00 0. -1.
        -15    1    3    3    0    0  0.86278769965E+02  0.20806228443E+02 -0.34488688073E+01  0.88836803825E+02  0.17770000000E+01 0.  1.
         15    1    3    3    0    0 -0.35328668887E+01  0.43252247043E+02 -0.87759186714E+02  0.97918693845E+02  0.17770000000E+01 0.  1.
</event>
<event>
 8    1  0.1792335E-008  0.1956379E+03  0.7546771E-02  0.1058453E+00
        -11   -1    0    0    0    0  0.00000000000E+00  0.00000000000E+00  0.18250000000E+03  0.18250000000E+03  0.00000000000E+00 0.  1.
         11   -1    0    0    0    0 -0.00000000000E+00 -0.00000000000E+00 -0.18250000000E+03  0.18250000000E+03  0.00000000000E+00 0. -1.
         25    2    1    2    0    0 -0.12870425826E+03  0.76568932301E+02 -0.14453365624E+02  0.19563793666E+03  0.12505084963E+03 0.  0.
         23    2    1    2    0    0  0.12870425826E+03 -0.76568932301E+02  0.14453365624E+02  0.16936206334E+03  0.77762595334E+02 0.  0.
        -11    1    4    4    0    0  0.13550485052E+03 -0.67122879567E+02  0.25455060398E+02  0.15334603215E+03  0.00000000000E+00 0.  1.
         11    1    4    4    0    0 -0.68005922570E+01 -0.94460527348E+01 -0.11001694774E+02  0.16016031194E+02  0.00000000000E+00 0. -1.
        -15    1    3    3    0    0 -0.15160018975E+03  0.79740768703E+02 -0.76298867140E+01  0.17147180709E+03  0.17770000000E+01 0. -1.
         15    1    3    3    0    0  0.22895931490E+02 -0.31718364012E+01 -0.68234789100E+01  0.24166129570E+02  0.17770000000E+01 0. -1.
</event>
<event>
 8    1  0.1792335E-008  0.1842651E+03  0.7546771E-02  0.1067058E+00
        -11   -1    0    0    0    0  0.00000000000E+00  0.00000000000E+00  0.18250000000E+03  0.18250000000E+03  0.00000000000E+00 0.  1.
         11   -1    0    0    0    0 -0.00000000000E+00 -0.00000000000E+00 -0.18250000000E+03  0.18250000000E+03  0.00000000000E+00 0. -1.
         25    2    1    2    0    0 -0.12024307511E+03  0.47397705907E+02  0.40481627815E+02  0.18426514284E+03  0.12493974963E+03 0.  0.
         23    2    1    2    0    0  0.12024307511E+03 -0.47397705907E+02 -0.40481627815E+02  0.18073485716E+03  0.11967199657E+03 0.  0.
        -11    1    4    4    0    0  0.12422787625E+03 -0.77066023686E+02 -0.34553774181E+02  0.15021884221E+03  0.00000000000E+00 0.  1.
         11    1    4    4    0    0 -0.39848011343E+01  0.29668317779E+02 -0.59278536338E+01  0.30516014953E+02  0.00000000000E+00 0. -1.
        -15    1    3    3    0    0 -0.31709034003E+02  0.27834073818E+02 -0.43527101483E+02  0.60646226554E+02  0.17770000000E+01 0. -1.
         15    1    3    3    0    0 -0.88534041111E+02  0.19563632089E+02  0.84008729298E+02  0.12361891628E+03  0.17770000000E+01 0. -1.
</event>
<event>
 8    1  0.1792335E-008  0.1838678E+03  0.7546771E-02  0.1067371E+00
        -11   -1    0    0    0    0  0.00000000000E+00  0.00000000000E+00  0.18250000000E+03  0.18250000000E+03  0.00000000000E+00 0. -1.
         11   -1    0    0    0    0 -0.00000000000E+00 -0.00000000000E+00 -0.18250000000E+03  0.18250000000E+03  0.00000000000E+00 0.  1.
         25    2    1    2    0    0 -0.11758973037E+03  0.63884169510E+02  0.16082538433E+02  0.18386779584E+03  0.12506073125E+03 0.  0.
         23    2    1    2    0    0  0.11758973037E+03 -0.63884169510E+02 -0.16082538433E+02  0.18113220416E+03  0.12100287410E+03 0.  0.
        -11    1    4    4    0    0  0.50154696485E+02  0.34456447206E+02 -0.29518727194E+00  0.60850862517E+02  0.00000000000E+00 0. -1.
         11    1    4    4    0    0  0.67435033886E+02 -0.98340616716E+02 -0.15787351161E+02  0.12028134165E+03  0.00000000000E+00 0.  1.
        -15    1    3    3    0    0 -0.62509454838E+02  0.26161787224E+02 -0.54292796780E+02  0.86848929563E+02  0.17770000000E+01 0.  1.
         15    1    3    3    0    0 -0.55080275532E+02  0.37722382286E+02  0.70375335213E+02  0.97018866275E+02  0.17770000000E+01 0.  1.
</event>
<event>
 7    1  0.1792335E-008  0.1624026E+03  0.7546771E-02  0.1085683E+00
        -11   -1    0    0    0    0  0.00000000000E+00  0.00000000000E+00  0.18250000000E+03  0.18250000000E+03  0.00000000000E+00 0.  1.
         11   -1    0    0    0    0 -0.00000000000E+00 -0.00000000000E+00 -0.18250000000E+03  0.18250000000E+03  0.00000000000E+00 0. -1.
         25    2    1    2    0    0 -0.94676810198E+02  0.13140410317E+02 -0.80333042668E+02  0.17674444697E+03  0.12509529575E+03 0.  0.
        -11    1    1    2    0    0  0.69102551654E+02  0.60757560731E+02  0.45519879049E+02  0.10265818633E+03  0.00000000000E+00 0.  1.
         11    1    1    2    0    0  0.25574258544E+02 -0.73897971048E+02  0.34813163619E+02  0.85597366702E+02  0.00000000000E+00 0. -1.
        -15    1    3    3    0    0 -0.26113740585E+02 -0.66323312883E+01  0.33103389992E+02  0.42718935189E+02  0.17770000000E+01 0.  1.
         15    1    3    3    0    0 -0.68563069612E+02  0.19772741605E+02 -0.11343643266E+03  0.13402551178E+03  0.17770000000E+01 0.  1.
</event>
<event>
 8    1  0.1792335E-008  0.1997983E+03  0.7546771E-02  0.1055463E+00
        -11   -1    0    0    0    0  0.00000000000E+00  0.00000000000E+00  0.18250000000E+03  0.18250000000E+03  0.00000000000E+00 0. -1.
         11   -1    0    0    0    0 -0.00000000000E+00 -0.00000000000E+00 -0.18250000000E+03  0.18250000000E+03  0.00000000000E+00 0.  1.
         25    2    1    2    0    0 -0.14099886790E+03 -0.56744126614E+02  0.34397636026E+02  0.19979831688E+03  0.12504236646E+03 0.  0.
         23    2    1    2    0    0  0.14099886790E+03  0.56744126614E+02 -0.34397636026E+02  0.16520168312E+03  0.54843614818E+02 0.  0.
        -11    1    4    4    0    0  0.78440823621E+02  0.49891616188E+01 -0.46667290023E+01  0.78737747641E+02  0.00000000000E+00 0.  1.
         11    1    4    4    0    0  0.62558044283E+02  0.51754964995E+02 -0.29730907024E+02  0.86463935479E+02  0.00000000000E+00 0. -1.
        -15    1    3    3    0    0 -0.77688706833E+02  0.31546600733E+02  0.35655678293E+02  0.91132915627E+02  0.17770000000E+01 0. -1.
         15    1    3    3    0    0 -0.63310161070E+02 -0.88290727346E+02 -0.12580422675E+01  0.10866540125E+03  0.17770000000E+01 0. -1.
</event>
<event>
 7    1  0.1792335E-008  0.1957234E+03  0.7546771E-02  0.1058391E+00
        -11   -1    0    0    0    0  0.00000000000E+00  0.00000000000E+00  0.18250000000E+03  0.18250000000E+03  0.00000000000E+00 0. -1.
         11   -1    0    0    0    0 -0.00000000000E+00 -0.00000000000E+00 -0.18250000000E+03  0.18250000000E+03  0.00000000000E+00 0.  1.
         23    2    1    2    0    0  0.14846617661E+03 -0.11113484019E+02  0.23358782776E+02  0.16927660799E+03  0.77092296351E+02 0.  0.
        -11    1    3    3    0    0  0.79284420449E+02 -0.80046338355E+01 -0.26461782672E+02  0.83966180281E+02  0.00000000000E+00 0.  1.
         11    1    3    3    0    0  0.69181756163E+02 -0.31088501834E+01  0.49820565448E+02  0.85310427714E+02  0.00000000000E+00 0. -1.
        -15    1    1    2    0    0 -0.85237926262E+02  0.67119711181E+02 -0.24468447947E+02  0.11123139115E+03  0.17770000000E+01 0. -1.
         15    1    1    2    0    0 -0.63228250350E+02 -0.56006227162E+02  0.11096651713E+01  0.84492000858E+02  0.17770000000E+01 0.  1.
</event>
<event>
 8    1  0.1792335E-008  0.1865469E+03  0.7546771E-02  0.1065278E+00
        -11   -1    0    0    0    0  0.00000000000E+00  0.00000000000E+00  0.18250000000E+03  0.18250000000E+03  0.00000000000E+00 0. -1.
         11   -1    0    0    0    0 -0.00000000000E+00 -0.00000000000E+00 -0.18250000000E+03  0.18250000000E+03  0.00000000000E+00 0.  1.
         25    2    1    2    0    0  0.13768403716E+03  0.95186120474E+01  0.11727055780E+02  0.18654690787E+03  0.12495890098E+03 0.  0.
         23    2    1    2    0    0 -0.13768403716E+03 -0.95186120474E+01 -0.11727055780E+02  0.17845309213E+03  0.11251881704E+03 0.  0.
        -11    1    4    4    0    0 -0.39989531784E+02  0.40389553862E+02 -0.34391087914E+02  0.66432113029E+02  0.00000000000E+00 0.  1.
         11    1    4    4    0    0 -0.97694505380E+02 -0.49908165910E+02  0.22664032134E+02  0.11202097910E+03  0.00000000000E+00 0. -1.
        -15    1    3    3    0    0  0.13158490470E+03  0.36505455451E+02 -0.26710419546E+02  0.13915401418E+03  0.17770000000E+01 0.  1.
         15    1    3    3    0    0  0.60991324659E+01 -0.26986843403E+02  0.38437475326E+02  0.47392893688E+02  0.17770000000E+01 0.  1.
</event>
<event>
 8    1  0.1792335E-008  0.1834530E+03  0.7546771E-02  0.1067699E+00
        -11   -1    0    0    0    0  0.00000000000E+00  0.00000000000E+00  0.18250000000E+03  0.18250000000E+03  0.00000000000E+00 0.  1.
         11   -1    0    0    0    0 -0.00000000000E+00 -0.00000000000E+00 -0.18250000000E+03  0.18250000000E+03  0.00000000000E+00 0. -1.
         25    2    1    2    0    0  0.19171476305E+02 -0.12682286699E+03  0.29855977630E+02  0.18154700003E+03  0.12496539011E+03 0.  0.
         23    2    1    2    0    0 -0.19171476305E+02  0.12682286699E+03 -0.29855977630E+02  0.18345299997E+03  0.12771859185E+03 0.  0.
        -11    1    4    4    0    0  0.41669102844E+02  0.43655832197E+02 -0.50102779360E+02  0.78437454805E+02  0.00000000000E+00 0. -1.
         11    1    4    4    0    0 -0.60840579149E+02  0.83167034789E+02  0.20246801730E+02  0.10501554517E+03  0.00000000000E+00 0.  1.
        -15    1    3    3    0    0 -0.32626234013E+02 -0.34136671705E+02  0.54905338580E+02  0.72439888422E+02  0.17770000000E+01 0. -1.
         15    1    3    3    0    0  0.51797710318E+02 -0.92686195281E+02 -0.25049360950E+02  0.10910711160E+03  0.17770000000E+01 0. -1.
</event>
<event>
 8    1  0.1792335E-008  0.1866262E+03  0.7546771E-02  0.1065217E+00
        -11   -1    0    0    0    0  0.00000000000E+00  0.00000000000E+00  0.18250000000E+03  0.18250000000E+03  0.00000000000E+00 0. -1.
         11   -1    0    0    0    0 -0.00000000000E+00 -0.00000000000E+00 -0.18250000000E+03  0.18250000000E+03  0.00000000000E+00 0.  1.
         25    2    1    2    0    0 -0.86396847007E+02 -0.10599121999E+03 -0.22749915731E+02  0.18662624084E+03  0.12495295602E+03 0.  0.
         23    2    1    2    0    0  0.86396847007E+02  0.10599121999E+03  0.22749915731E+02  0.17837375916E+03  0.11225455627E+03 0.  0.
        -11    1    4    4    0    0  0.17939277753E+02  0.75689845030E+02  0.56613259685E+02  0.96207232052E+02  0.00000000000E+00 0. -1.
         11    1    4    4    0    0  0.68457569254E+02  0.30301374957E+02 -0.33863343954E+02  0.82166527103E+02  0.00000000000E+00 0.  1.
        -15    1    3    3    0    0  0.30023281340E+02 -0.44073309388E+02 -0.70724598516E+01  0.53824078628E+02  0.17770000000E+01 0.  1.
         15    1    3    3    0    0 -0.11642012835E+03 -0.61917910600E+02 -0.15677455879E+02  0.13280216222E+03  0.17770000000E+01 0.  1.
</event>
<event>
 7    1  0.1792335E-008  0.1738676E+03  0.7546771E-02  0.1075542E+00
        -11   -1    0    0    0    0  0.00000000000E+00  0.00000000000E+00  0.18250000000E+03  0.18250000000E+03  0.00000000000E+00 0.  1.
         11   -1    0    0    0    0 -0.00000000000E+00 -0.00000000000E+00 -0.18250000000E+03  0.18250000000E+03  0.00000000000E+00 0. -1.
         25    2    1    2    0    0 -0.70197740231E+02 -0.74915659835E+02 -0.38602971920E+02  0.16623572123E+03  0.12491615889E+03 0.  0.
        -11    1    1    2    0    0  0.10822764819E+03  0.80353792828E+02 -0.11888848641E+02  0.13531925427E+03  0.00000000000E+00 0. -1.
         11    1    1    2    0    0 -0.38029907959E+02 -0.54381329928E+01  0.50491820560E+02  0.63445024496E+02  0.00000000000E+00 0.  1.
        -15    1    3    3    0    0 -0.15783578939E+02  0.20083887646E+02 -0.49974741223E+02  0.56152617004E+02  0.17770000000E+01 0. -1.
         15    1    3    3    0    0 -0.54414161291E+02 -0.94999547481E+02  0.11371769303E+02  0.11008310423E+03  0.17770000000E+01 0. -1.
</event>
<event>
 8    1  0.1792335E-008  0.1852449E+03  0.7546771E-02  0.1066291E+00
        -11   -1    0    0    0    0  0.00000000000E+00  0.00000000000E+00  0.18250000000E+03  0.18250000000E+03  0.00000000000E+00 0. -1.
         11   -1    0    0    0    0 -0.00000000000E+00 -0.00000000000E+00 -0.18250000000E+03  0.18250000000E+03  0.00000000000E+00 0.  1.
         25    2    1    2    0    0  0.13364597497E+03  0.68490791362E+01 -0.28151149545E+02  0.18524488320E+03  0.12496008571E+03 0.  0.
         23    2    1    2    0    0 -0.13364597497E+03 -0.68490791362E+01  0.28151149545E+02  0.17975511680E+03  0.11666729741E+03 0.  0.
        -11    1    4    4    0    0  0.16807448287E+02 -0.11892744547E+02  0.20451286566E+02  0.29020386162E+02  0.00000000000E+00 0. -1.
         11    1    4    4    0    0 -0.15045342326E+03  0.50436654104E+01  0.76998629790E+01  0.15073473064E+03  0.00000000000E+00 0.  1.
        -15    1    3    3    0    0  0.13984914983E+03 -0.82218005754E+01 -0.57647733839E+02  0.15149852032E+03  0.17770000000E+01 0.  1.
         15    1    3    3    0    0 -0.62031748636E+01  0.15070879712E+02  0.29496584294E+02  0.33746362881E+02  0.17770000000E+01 0.  1.
</event>
<event>
 8    1  0.1792335E-008  0.1971978E+03  0.7546771E-02  0.1057322E+00
        -11   -1    0    0    0    0  0.00000000000E+00  0.00000000000E+00  0.18250000000E+03  0.18250000000E+03  0.00000000000E+00 0.  1.
         11   -1    0    0    0    0 -0.00000000000E+00 -0.00000000000E+00 -0.18250000000E+03  0.18250000000E+03  0.00000000000E+00 0. -1.
         25    2    1    2    0    0 -0.22126506707E+02  0.14628039413E+03 -0.36860308010E+02  0.19719783925E+03  0.12506306206E+03 0.  0.
         23    2    1    2    0    0  0.22126506707E+02 -0.14628039413E+03  0.36860308010E+02  0.16780216075E+03  0.70081001982E+02 0.  0.
        -11    1    4    4    0    0  0.35989629242E+02 -0.71104650072E+02  0.43987012941E+02  0.91027369413E+02  0.00000000000E+00 0. -1.
         11    1    4    4    0    0 -0.13863122535E+02 -0.75175744059E+02 -0.71267049315E+01  0.76774791334E+02  0.00000000000E+00 0.  1.
        -15    1    3    3    0    0  0.49962995133E+02  0.50580995322E+02  0.22370759591E+01  0.71154059675E+02  0.17770000000E+01 0. -1.
         15    1    3    3    0    0 -0.72089501840E+02  0.95699398809E+02 -0.39097383969E+02  0.12604377958E+03  0.17770000000E+01 0. -1.
</event>
<event>
 8    1  0.1792335E-008  0.1882781E+03  0.7546771E-02  0.1063946E+00
        -11   -1    0    0    0    0  0.00000000000E+00  0.00000000000E+00  0.18250000000E+03  0.18250000000E+03  0.00000000000E+00 0.  1.
         11   -1    0    0    0    0 -0.00000000000E+00 -0.00000000000E+00 -0.18250000000E+03  0.18250000000E+03  0.00000000000E+00 0. -1.
         25    2    1    2    0    0  0.11927795112E+03 -0.20709377310E+02  0.71977981195E+02  0.18827809386E+03  0.12494680034E+03 0.  0.
         23    2    1    2    0    0 -0.11927795112E+03  0.20709377310E+02 -0.71977981195E+02  0.17672190614E+03  0.10674124976E+03 0.  0.
        -11    1    4    4    0    0 -0.98648259912E+02 -0.10299321394E+02 -0.91261175253E+02  0.13478188793E+03  0.00000000000E+00 0. -1.
         11    1    4    4    0    0 -0.20629691212E+02  0.31008698704E+02  0.19283194058E+02  0.41940018215E+02  0.00000000000E+00 0.  1.
        -15    1    3    3    0    0  0.76310935664E+02  0.11912558350E+02 -0.21626707210E+02  0.80225557911E+02  0.17770000000E+01 0.  1.
         15    1    3    3    0    0  0.42967015459E+02 -0.32621935660E+02  0.93604688405E+02  0.10805253595E+03  0.17770000000E+01 0.  1.
</event>
<event>
 8    1  0.1792335E-008  0.1879761E+03  0.7546771E-02  0.1064177E+00
        -11   -1    0    0    0    0  0.00000000000E+00  0.00000000000E+00  0.18250000000E+03  0.18250000000E+03  0.00000000000E+00 0. -1.
         11   -1    0    0    0    0 -0.00000000000E+00 -0.00000000000E+00 -0.18250000000E+03  0.18250000000E+03  0.00000000000E+00 0.  1.
         25    2    1    2    0    0 -0.13100148316E+02  0.13964107421E+03 -0.74496644258E+01  0.18797614826E+03  0.12493314741E+03 0.  0.
         23    2    1    2    0    0  0.13100148316E+02 -0.13964107421E+03  0.74496644258E+01  0.17702385174E+03  0.10775297253E+03 0.  0.
        -11    1    4    4    0    0  0.24987110842E+02 -0.10684906062E+03 -0.41157792631E+02  0.11719659277E+03  0.00000000000E+00 0.  1.
         11    1    4    4    0    0 -0.11886962526E+02 -0.32792013597E+02  0.48607457056E+02  0.59827258966E+02  0.00000000000E+00 0. -1.
        -15    1    3    3    0    0 -0.23644713422E+02  0.74129207253E+02  0.56210060384E+02  0.96004898095E+02  0.17770000000E+01 0. -1.
         15    1    3    3    0    0  0.10544565106E+02  0.65511866960E+02 -0.63659724810E+02  0.91971250169E+02  0.17770000000E+01 0. -1.
</event>
<event>
 7    1  0.1792335E-008  0.1952945E+03  0.7546771E-02  0.1058703E+00
        -11   -1    0    0    0    0  0.00000000000E+00  0.00000000000E+00  0.18250000000E+03  0.18250000000E+03  0.00000000000E+00 0.  1.
         11   -1    0    0    0    0 -0.00000000000E+00 -0.00000000000E+00 -0.18250000000E+03  0.18250000000E+03  0.00000000000E+00 0. -1.
         23    2    1    2    0    0  0.69422904081E+02 -0.73734265003E+02 -0.11200290148E+03  0.16970550972E+03  0.77453396592E+02 0.  0.
        -11    1    3    3    0    0 -0.55476089721E+01  0.89306639849E+01  0.13936186461E+01  0.10605418306E+02  0.00000000000E+00 0.  1.
         11    1    3    3    0    0  0.74970513053E+02 -0.82664928988E+02 -0.11339652012E+03  0.15910009141E+03  0.00000000000E+00 0. -1.
        -15    1    1    2    0    0 -0.35110502197E+02  0.29213845780E+02  0.12874500989E+03  0.13661856188E+03  0.17770000000E+01 0.  1.
         15    1    1    2    0    0 -0.34312401885E+02  0.44520419224E+02 -0.16742108411E+02  0.58675928403E+02  0.17770000000E+01 0. -1.
</event>
<event>
 8    1  0.1792335E-008  0.1973049E+03  0.7546771E-02  0.1057245E+00
        -11   -1    0    0    0    0  0.00000000000E+00  0.00000000000E+00  0.18250000000E+03  0.18250000000E+03  0.00000000000E+00 0. -1.
         11   -1    0    0    0    0 -0.00000000000E+00 -0.00000000000E+00 -0.18250000000E+03  0.18250000000E+03  0.00000000000E+00 0.  1.
         25    2    1    2    0    0  0.13584863927E+03 -0.83003610103E+01 -0.68969158590E+02  0.19730488762E+03  0.12509486424E+03 0.  0.
         23    2    1    2    0    0 -0.13584863927E+03  0.83003610103E+01  0.68969158590E+02  0.16769511238E+03  0.69578424065E+02 0.  0.
        -11    1    4    4    0    0 -0.15124050537E+02  0.17937283150E+01  0.40810029713E+02  0.43559303152E+02  0.00000000000E+00 0. -1.
         11    1    4    4    0    0 -0.12072458873E+03  0.65066326952E+01  0.28159128877E+02  0.12413580923E+03  0.00000000000E+00 0.  1.
        -15    1    3    3    0    0  0.12209444700E+03 -0.14284480723E+02 -0.10279933152E+03  0.16025592241E+03  0.17770000000E+01 0. -1.
         15    1    3    3    0    0  0.13754192267E+02  0.59841197129E+01  0.33830172930E+02  0.37048965210E+02  0.17770000000E+01 0.  1.
</event>
<event>
 7    1  0.1792335E-008  0.1965265E+03  0.7546771E-02  0.1057807E+00
        -11   -1    0    0    0    0  0.00000000000E+00  0.00000000000E+00  0.18250000000E+03  0.18250000000E+03  0.00000000000E+00 0. -1.
         11   -1    0    0    0    0 -0.00000000000E+00 -0.00000000000E+00 -0.18250000000E+03  0.18250000000E+03  0.00000000000E+00 0.  1.
         23    2    1    2    0    0  0.10989009942E+03  0.10379270937E+03  0.10981484507E+02  0.16847353959E+03  0.73579753135E+02 0.  0.
        -11    1    3    3    0    0  0.65580426811E+02  0.63718268025E+02 -0.29762222057E+02  0.96159242523E+02  0.00000000000E+00 0.  1.
         11    1    3    3    0    0  0.44309672614E+02  0.40074441345E+02  0.40743706564E+02  0.72314297071E+02  0.00000000000E+00 0. -1.
        -15    1    1    2    0    0 -0.18861208126E+02 -0.52943605705E+02 -0.59187623047E+02  0.81640082116E+02  0.17770000000E+01 0. -1.
         15    1    1    2    0    0 -0.91028891299E+02 -0.50849103665E+02  0.48206138540E+02  0.11488637829E+03  0.17770000000E+01 0. -1.
</event>
<event>
 8    1  0.1792335E-008  0.1885528E+03  0.7546771E-02  0.1063736E+00
        -11   -1    0    0    0    0  0.00000000000E+00  0.00000000000E+00  0.18250000000E+03  0.18250000000E+03  0.00000000000E+00 0. -1.
         11   -1    0    0    0    0 -0.00000000000E+00 -0.00000000000E+00 -0.18250000000E+03  0.18250000000E+03  0.00000000000E+00 0.  1.
         25    2    1    2    0    0 -0.64929504748E+02 -0.12416432137E+03  0.16811605798E+02  0.18855284532E+03  0.12504769530E+03 0.  0.
         23    2    1    2    0    0  0.64929504748E+02  0.12416432137E+03 -0.16811605798E+02  0.17644715468E+03  0.10591670793E+03 0.  0.
        -11    1    4    4    0    0  0.91633527277E+02  0.84921424756E+02  0.31029694237E+01  0.12497191734E+03  0.00000000000E+00 0. -1.
         11    1    4    4    0    0 -0.26704022529E+02  0.39242896609E+02 -0.19914575222E+02  0.51475237345E+02  0.00000000000E+00 0.  1.
        -15    1    3    3    0    0  0.19876376216E+02 -0.53067119244E+02 -0.34701928330E+02  0.66472332855E+02  0.17770000000E+01 0.  1.
         15    1    3    3    0    0 -0.84805880964E+02 -0.71097202121E+02  0.51513534128E+02  0.12208051246E+03  0.17770000000E+01 0.  1.
</event>
<event>
 8    1  0.1792335E-008  0.1882114E+03  0.7546771E-02  0.1063997E+00
        -11   -1    0    0    0    0  0.00000000000E+00  0.00000000000E+00  0.18250000000E+03  0.18250000000E+03  0.00000000000E+00 0.  1.
         11   -1    0    0    0    0 -0.00000000000E+00 -0.00000000000E+00 -0.18250000000E+03  0.18250000000E+03  0.00000000000E+00 0. -1.
         25    2    1    2    0    0 -0.13810980659E+03  0.25158529808E-01  0.27253248355E+02  0.18821141284E+03  0.12492588631E+03 0.  0.
         23    2    1    2    0    0  0.13810980659E+03 -0.25158529808E-01 -0.27253248355E+02  0.17678858716E+03  0.10694459170E+03 0.  0.
        -11    1    4    4    0    0  0.12509874196E+03  0.32213209415E+02  0.51248865528E+01  0.12928128466E+03  0.00000000000E+00 0.  1.
         11    1    4    4    0    0  0.13011064626E+02 -0.32238367945E+02 -0.32378134908E+02  0.47507302497E+02  0.00000000000E+00 0. -1.
        -15    1    3    3    0    0 -0.19452856822E+01 -0.20146317213E+02  0.45034614385E+02  0.49405793743E+02  0.17770000000E+01 0. -1.
         15    1    3    3    0    0 -0.13616452090E+03  0.20171475743E+02 -0.17781366030E+02  0.13880561910E+03  0.17770000000E+01 0. -1.
</event>
<event>
 7    1  0.1792335E-008  0.1695238E+03  0.7546771E-02  0.1079280E+00
        -11   -1    0    0    0    0  0.00000000000E+00  0.00000000000E+00  0.18250000000E+03  0.18250000000E+03  0.00000000000E+00 0.  1.
         11   -1    0    0    0    0 -0.00000000000E+00 -0.00000000000E+00 -0.18250000000E+03  0.18250000000E+03  0.00000000000E+00 0.  1.
         25    2    1    2    0    0 -0.60116509068E+02  0.89055170278E+02 -0.29495302235E+02  0.16750681858E+03  0.12507495113E+03 0.  0.
        -11    1    1    2    0    0  0.64615235479E+02  0.28223629449E+02 -0.14801173835E+02  0.72047044785E+02  0.00000000000E+00 0.  1.
         11    1    1    2    0    0 -0.44987264116E+01 -0.11727879973E+03  0.44296476070E+02  0.12544613664E+03  0.00000000000E+00 0.  1.
        -15    1    3    3    0    0  0.24349868078E+02  0.65429600604E-01 -0.37269323132E+02  0.44554242584E+02  0.17770000000E+01 0. -1.
         15    1    3    3    0    0 -0.84466377146E+02  0.88989740677E+02  0.77740208976E+01  0.12295257600E+03  0.17770000000E+01 0. -1.
</event>
<event>
 8    1  0.1792335E-008  0.1983510E+03  0.7546771E-02  0.1056494E+00
        -11   -1    0    0    0    0  0.00000000000E+00  0.00000000000E+00  0.18250000000E+03  0.18250000000E+03  0.00000000000E+00 0. -1.
         11   -1    0    0    0    0 -0.00000000000E+00 -0.00000000000E+00 -0.18250000000E+03  0.18250000000E+03  0.00000000000E+00 0.  1.
         25    2    1    2    0    0 -0.48479971830E+02 -0.13442482894E+03 -0.57333508275E+02  0.19835095046E+03  0.12504249707E+03 0.  0.
         23    2    1    2    0    0  0.48479971830E+02  0.13442482894E+03  0.57333508275E+02  0.16664904954E+03  0.63752899830E+02 0.  0.
        -11    1    4    4    0    0  0.16021774663E+02  0.11576413862E+03  0.31105761259E+02  0.12093635283E+03  0.00000000000E+00 0.  1.
         11    1    4    4    0    0  0.32458197167E+02  0.18660690325E+02  0.26227747016E+02  0.45712696707E+02  0.00000000000E+00 0. -1.
        -15    1    3    3    0    0 -0.13732472935E+02 -0.98599275441E+02 -0.93581840447E+02  0.13664229404E+03  0.17770000000E+01 0. -1.
         15    1    3    3    0    0 -0.34747498895E+02 -0.35825553499E+02  0.36248332172E+02  0.61708656420E+02  0.17770000000E+01 0. -1.
</event>
<event>
 8    1  0.1792335E-008  0.1835688E+03  0.7546771E-02  0.1067607E+00
        -11   -1    0    0    0    0  0.00000000000E+00  0.00000000000E+00  0.18250000000E+03  0.18250000000E+03  0.00000000000E+00 0.  1.
         11   -1    0    0    0    0 -0.00000000000E+00 -0.00000000000E+00 -0.18250000000E+03  0.18250000000E+03  0.00000000000E+00 0.  1.
         25    2    1    2    0    0 -0.90913467917E+02 -0.79072837885E+02 -0.59787572021E+02  0.18356879723E+03  0.12492068367E+03 0.  0.
         23    2    1    2    0    0  0.90913467917E+02  0.79072837885E+02  0.59787572021E+02  0.18143120277E+03  0.12175777277E+03 0.  0.
        -11    1    4    4    0    0  0.11905487432E+03  0.51033039556E+02  0.33494740586E+02  0.13379212186E+03  0.00000000000E+00 0.  1.
         11    1    4    4    0    0 -0.28141406402E+02  0.28039798329E+02  0.26292831435E+02  0.47639080906E+02  0.00000000000E+00 0.  1.
        -15    1    3    3    0    0 -0.82857745017E+02 -0.41744601532E+02  0.20151235444E+02  0.94959189578E+02  0.17770000000E+01 0. -1.
         15    1    3    3    0    0 -0.80557228998E+01 -0.37328236354E+02 -0.79938807466E+02  0.88609607655E+02  0.17770000000E+01 0. -1.
</event>
<event>
 8    1  0.1792335E-008  0.1960390E+03  0.7546771E-02  0.1058161E+00
        -11   -1    0    0    0    0  0.00000000000E+00  0.00000000000E+00  0.18250000000E+03  0.18250000000E+03  0.00000000000E+00 0.  1.
         11   -1    0    0    0    0 -0.00000000000E+00 -0.00000000000E+00 -0.18250000000E+03  0.18250000000E+03  0.00000000000E+00 0. -1.
         25    2    1    2    0    0 -0.26455551658E+02 -0.11609244167E+03  0.92846121832E+02  0.19603900207E+03  0.12503414240E+03 0.  0.
         23    2    1    2    0    0  0.26455551658E+02  0.11609244167E+03 -0.92846121832E+02  0.16896099793E+03  0.75829184733E+02 0.  0.
        -11    1    4    4    0    0 -0.13251634654E+02  0.95115809613E+02 -0.67630083505E+02  0.11745829581E+03  0.00000000000E+00 0. -1.
         11    1    4    4    0    0  0.39707186312E+02  0.20976632056E+02 -0.25216038327E+02  0.51502702125E+02  0.00000000000E+00 0.  1.
        -15    1    3    3    0    0  0.11226202588E+01  0.21964582111E+01  0.72869850622E+02  0.72933240457E+02  0.17770000000E+01 0.  1.
         15    1    3    3    0    0 -0.27578171917E+02 -0.11828889988E+03  0.19976271210E+02  0.12310576161E+03  0.17770000000E+01 0. -1.
</event>
<event>
 8    1  0.1792335E-008  0.1956807E+03  0.7546771E-02  0.1058422E+00
        -11   -1    0    0    0    0  0.00000000000E+00  0.00000000000E+00  0.18250000000E+03  0.18250000000E+03  0.00000000000E+00 0.  1.
         11   -1    0    0    0    0 -0.00000000000E+00 -0.00000000000E+00 -0.18250000000E+03  0.18250000000E+03  0.00000000000E+00 0. -1.
         25    2    1    2    0    0 -0.11733095914E+03 -0.53052519792E+02 -0.77940180509E+02  0.19568065140E+03  0.12504048051E+03 0.  0.
         23    2    1    2    0    0  0.11733095914E+03  0.53052519792E+02  0.77940180509E+02  0.16931934860E+03  0.77545123924E+02 0.  0.
        -11    1    4    4    0    0  0.22345043028E+02 -0.17481136884E+02  0.13921116118E+01  0.28404736743E+02  0.00000000000E+00 0. -1.
         11    1    4    4    0    0  0.94985916110E+02  0.70533656676E+02  0.76548068898E+02  0.14091461186E+03  0.00000000000E+00 0.  1.
        -15    1    3    3    0    0 -0.90112193401E+02 -0.93263203976E+02 -0.46376792873E+02  0.13773959947E+03  0.17770000000E+01 0.  1.
         15    1    3    3    0    0 -0.27218765737E+02  0.40210684184E+02 -0.31563387636E+02  0.57941051931E+02  0.17770000000E+01 0.  1.
</event>
<event>
 8    1  0.1792335E-008  0.1956402E+03  0.7546771E-02  0.1058451E+00
        -11   -1    0    0    0    0  0.00000000000E+00  0.00000000000E+00  0.18250000000E+03  0.18250000000E+03  0.00000000000E+00 0. -1.
         11   -1    0    0    0    0 -0.00000000000E+00 -0.00000000000E+00 -0.18250000000E+03  0.18250000000E+03  0.00000000000E+00 0.  1.
         25    2    1    2    0    0  0.13329278660E+03 -0.63517494698E+02 -0.29280915809E+02  0.19564020834E+03  0.12496511511E+03 0.  0.
         23    2    1    2    0    0 -0.13329278660E+03  0.63517494698E+02  0.29280915809E+02  0.16935979166E+03  0.77613967226E+02 0.  0.
        -11    1    4    4    0    0 -0.35363530559E+02  0.58137585946E+02  0.44788336106E+01  0.68195440784E+02  0.00000000000E+00 0.  1.
         11    1    4    4    0    0 -0.97929256044E+02  0.53799087522E+01  0.24802082198E+02  0.10116435088E+03  0.00000000000E+00 0. -1.
        -15    1    3    3    0    0  0.65879134277E+02  0.26673257307E+02 -0.41568828141E+02  0.82356834510E+02  0.17770000000E+01 0. -1.
         15    1    3    3    0    0  0.67413652326E+02 -0.90190752005E+02  0.12287912332E+02  0.11328337383E+03  0.17770000000E+01 0. -1.
</event>
<event>
 7    1  0.1792335E-008  0.1618716E+03  0.7546771E-02  0.1086174E+00
        -11   -1    0    0    0    0  0.00000000000E+00  0.00000000000E+00  0.18250000000E+03  0.18250000000E+03  0.00000000000E+00 0. -1.
         11   -1    0    0    0    0 -0.00000000000E+00 -0.00000000000E+00 -0.18250000000E+03  0.18250000000E+03  0.00000000000E+00 0. -1.
         25    2    1    2    0    0  0.11989252451E+03 -0.19292107758E+02  0.21818596803E+02  0.17565856444E+03  0.12503390435E+03 0.  0.
        -11    1    1    2    0    0 -0.58007677424E+02  0.79119670546E+02 -0.30727644673E+02  0.10280564700E+03  0.00000000000E+00 0. -1.
         11    1    1    2    0    0 -0.61884847090E+02 -0.59827562787E+02  0.89090478703E+01  0.86535788564E+02  0.00000000000E+00 0. -1.
        -15    1    3    3    0    0  0.12658388419E+03  0.13228486168E+02 -0.12471657317E+02  0.12789516234E+03  0.17770000000E+01 0.  1.
         15    1    3    3    0    0 -0.66913596808E+01 -0.32520593926E+02  0.34290254120E+02  0.47763402101E+02  0.17770000000E+01 0.  1.
</event>
<event>
 7    1  0.1792335E-008  0.1882224E+03  0.7546771E-02  0.1063989E+00
        -11   -1    0    0    0    0  0.00000000000E+00  0.00000000000E+00  0.18250000000E+03  0.18250000000E+03  0.00000000000E+00 0.  1.
         11   -1    0    0    0    0 -0.00000000000E+00 -0.00000000000E+00 -0.18250000000E+03  0.18250000000E+03  0.00000000000E+00 0. -1.
         23    2    1    2    0    0 -0.40266935471E+02 -0.79527807268E+02  0.10912447676E+03  0.17677760700E+03  0.10675238961E+03 0.  0.
        -11    1    3    3    0    0 -0.19203322966E+02 -0.98595491387E+02  0.10918991284E+03  0.14836534501E+03  0.00000000000E+00 0.  1.
         11    1    3    3    0    0 -0.21063612506E+02  0.19067684120E+02 -0.65436078793E-01  0.28412261989E+02  0.00000000000E+00 0. -1.
        -15    1    1    2    0    0 -0.10228560535E+02  0.30478929919E+02 -0.11319605962E+03  0.11768642344E+03  0.17770000000E+01 0.  1.
         15    1    1    2    0    0  0.50495496007E+02  0.49048877349E+02  0.40715828569E+01  0.70535969563E+02  0.17770000000E+01 0. -1.
</event>
<event>
 8    1  0.1792335E-008  0.1891690E+03  0.7546771E-02  0.1063267E+00
        -11   -1    0    0    0    0  0.00000000000E+00  0.00000000000E+00  0.18250000000E+03  0.18250000000E+03  0.00000000000E+00 0.  1.
         11   -1    0    0    0    0 -0.00000000000E+00 -0.00000000000E+00 -0.18250000000E+03  0.18250000000E+03  0.00000000000E+00 0.  1.
         25    2    1    2    0    0 -0.78717047494E+02  0.22680687424E+02  0.11604055198E+03  0.18916901913E+03  0.12493486682E+03 0.  0.
         23    2    1    2    0    0  0.78717047494E+02 -0.22680687424E+02 -0.11604055198E+03  0.17583098087E+03  0.10363559708E+03 0.  0.
        -11    1    4    4    0    0  0.18492530030E+02  0.69232687365E+01  0.17495075429E+02  0.26381489366E+02  0.00000000000E+00 0.  1.
         11    1    4    4    0    0  0.60224517464E+02 -0.29603956161E+02 -0.13353562741E+03  0.14944949151E+03  0.00000000000E+00 0.  1.
        -15    1    3    3    0    0 -0.37344152374E+02  0.74177484888E+02  0.59183089691E+02  0.10199353320E+03  0.17770000000E+01 0.  1.
         15    1    3    3    0    0 -0.41372895120E+02 -0.51496797464E+02  0.56857462287E+02  0.87175485925E+02  0.17770000000E+01 0.  1.
</event>
<event>
 8    1  0.1792335E-008  0.1885198E+03  0.7546771E-02  0.1063762E+00
        -11   -1    0    0    0    0  0.00000000000E+00  0.00000000000E+00  0.18250000000E+03  0.18250000000E+03  0.00000000000E+00 0. -1.
         11   -1    0    0    0    0 -0.00000000000E+00 -0.00000000000E+00 -0.18250000000E+03  0.18250000000E+03  0.00000000000E+00 0.  1.
         25    2    1    2    0    0 -0.98466213553E+02  0.87296959373E+02 -0.51053799259E+02  0.18851980281E+03  0.12496748099E+03 0.  0.
         23    2    1    2    0    0  0.98466213553E+02 -0.87296959373E+02  0.51053799259E+02  0.17648019719E+03  0.10593590163E+03 0.  0.
        -11    1    4    4    0    0  0.26351410586E+02 -0.76990666006E+01 -0.30932117288E+02  0.41357808771E+02  0.00000000000E+00 0.  1.
         11    1    4    4    0    0  0.72114802967E+02 -0.79597892773E+02  0.81985916547E+02  0.13512238842E+03  0.00000000000E+00 0. -1.
        -15    1    3    3    0    0 -0.63243574228E+02  0.23088231839E+02 -0.84443588503E+02  0.10801246918E+03  0.17770000000E+01 0. -1.
         15    1    3    3    0    0 -0.35222639325E+02  0.64208727535E+02  0.33389789244E+02  0.80507333625E+02  0.17770000000E+01 0. -1.
</event>
<event>
 8    1  0.1792335E-008  0.1969996E+03  0.7546771E-02  0.1057465E+00
        -11   -1    0    0    0    0  0.00000000000E+00  0.00000000000E+00  0.18250000000E+03  0.18250000000E+03  0.00000000000E+00 0.  1.
         11   -1    0    0    0    0 -0.00000000000E+00 -0.00000000000E+00 -0.18250000000E+03  0.18250000000E+03  0.00000000000E+00 0. -1.
         25    2    1    2    0    0  0.14629613123E+03  0.42265350881E+02 -0.23113714042E+01  0.19699964131E+03  0.12495838644E+03 0.  0.
         23    2    1    2    0    0 -0.14629613123E+03 -0.42265350881E+02  0.23113714042E+01  0.16800035869E+03  0.70921507197E+02 0.  0.
        -11    1    4    4    0    0 -0.76870435279E+02 -0.73962206863E+01 -0.31330559299E+02  0.83338897559E+02  0.00000000000E+00 0. -1.
         11    1    4    4    0    0 -0.69425695953E+02 -0.34869130195E+02  0.33641930703E+02  0.84661461129E+02  0.00000000000E+00 0.  1.
        -15    1    3    3    0    0  0.11127755590E+03  0.77171877068E+02  0.28929210184E+02  0.13848555877E+03  0.17770000000E+01 0. -1.
         15    1    3    3    0    0  0.35018575336E+02 -0.34906526187E+02 -0.31240581589E+02  0.58514082544E+02  0.17770000000E+01 0. -1.
</event>
<event>
 8    1  0.1792335E-008  0.1848472E+03  0.7546771E-02  0.1066602E+00
        -11   -1    0    0    0    0  0.00000000000E+00  0.00000000000E+00  0.18250000000E+03  0.18250000000E+03  0.00000000000E+00 0.  1.
         11   -1    0    0    0    0 -0.00000000000E+00 -0.00000000000E+00 -0.18250000000E+03  0.18250000000E+03  0.00000000000E+00 0.  1.
         25    2    1    2    0    0 -0.10529042826E+01  0.13338472136E+03  0.27590164374E+02  0.18484723022E+03  0.12495874860E+03 0.  0.
         23    2    1    2    0    0  0.10529042826E+01 -0.13338472136E+03 -0.27590164374E+02  0.18015276978E+03  0.11790339600E+03 0.  0.
        -11    1    4    4    0    0  0.42350299823E+02 -0.12901121358E+03 -0.14229344283E+02  0.13652807537E+03  0.00000000000E+00 0.  1.
         11    1    4    4    0    0 -0.41297395541E+02 -0.43735077759E+01 -0.13360820090E+02  0.43624694408E+02  0.00000000000E+00 0.  1.
        -15    1    3    3    0    0 -0.30837625338E+02  0.10650526981E+03 -0.29775066592E+02  0.11482179216E+03  0.17770000000E+01 0. -1.
         15    1    3    3    0    0  0.29784721055E+02  0.26879451543E+02  0.57365230966E+02  0.70025438066E+02  0.17770000000E+01 0. -1.
</event>
<event>
 6    1  0.1792335E-008  0.2006648E+03  0.7546771E-02  0.1054850E+00
        -11   -1    0    0    0    0  0.00000000000E+00  0.00000000000E+00  0.18250000000E+03  0.18250000000E+03  0.00000000000E+00 0. -1.
         11   -1    0    0    0    0 -0.00000000000E+00 -0.00000000000E+00 -0.18250000000E+03  0.18250000000E+03  0.00000000000E+00 0.  1.
        -11    1    1    2    0    0 -0.14027516525E+02  0.73442267746E+02  0.60435592317E+02  0.96140515550E+02  0.00000000000E+00 0.  1.
         11    1    1    2    0    0  0.29174328739E+02  0.53840221481E+02  0.30010174385E+02  0.68194732004E+02  0.00000000000E+00 0. -1.
        -15    1    1    2    0    0  0.25593865048E+02 -0.98069999064E+02 -0.10742828642E+03  0.14770499347E+03  0.17770000000E+01 0.  1.
         15    1    1    2    0    0 -0.40740677262E+02 -0.29212490162E+02  0.16982519720E+02  0.52959758971E+02  0.17770000000E+01 0.  1.
</event>
<event>
 7    1  0.1792335E-008  0.1956741E+03  0.7546771E-02  0.1058426E+00
        -11   -1    0    0    0    0  0.00000000000E+00  0.00000000000E+00  0.18250000000E+03  0.18250000000E+03  0.00000000000E+00 0. -1.
         11   -1    0    0    0    0 -0.00000000000E+00 -0.00000000000E+00 -0.18250000000E+03  0.18250000000E+03  0.00000000000E+00 0.  1.
         23    2    1    2    0    0 -0.40622197917E+02 -0.13065900601E+03  0.63182915077E+02  0.16932588252E+03  0.77183125857E+02 0.  0.
        -11    1    3    3    0    0  0.12355520237E+01 -0.37870290098E+02 -0.15226281546E+02  0.40835341441E+02  0.00000000000E+00 0.  1.
         11    1    3    3    0    0 -0.41857749941E+02 -0.92788715915E+02  0.78409196623E+02  0.12849054108E+03  0.00000000000E+00 0. -1.
        -15    1    1    2    0    0 -0.65499247343E+01  0.13688942723E+03 -0.53221946243E+02  0.14702839893E+03  0.17770000000E+01 0. -1.
         15    1    1    2    0    0  0.47172122651E+02 -0.62304212201E+01 -0.99609688333E+01  0.48645718548E+02  0.17770000000E+01 0.  1.
</event>
<event>
 8    1  0.1792335E-008  0.1881107E+03  0.7546771E-02  0.1064074E+00
        -11   -1    0    0    0    0  0.00000000000E+00  0.00000000000E+00  0.18250000000E+03  0.18250000000E+03  0.00000000000E+00 0.  1.
         11   -1    0    0    0    0 -0.00000000000E+00 -0.00000000000E+00 -0.18250000000E+03  0.18250000000E+03  0.00000000000E+00 0. -1.
         25    2    1    2    0    0 -0.29681626412E+02  0.11677640082E+03 -0.72338081406E+02  0.18811068151E+03  0.12504040844E+03 0.  0.
         23    2    1    2    0    0  0.29681626412E+02 -0.11677640082E+03  0.72338081406E+02  0.17688931849E+03  0.10742116290E+03 0.  0.
        -11    1    4    4    0    0  0.15289667433E+02 -0.93970918569E+02 -0.46447317850E+01  0.95319887748E+02  0.00000000000E+00 0. -1.
         11    1    4    4    0    0  0.14391958979E+02 -0.22805482250E+02  0.76982813191E+02  0.81569430737E+02  0.00000000000E+00 0.  1.
        -15    1    3    3    0    0 -0.26911394271E+02  0.54863929513E+02 -0.10235834033E+03  0.11922525516E+03  0.17770000000E+01 0. -1.
         15    1    3    3    0    0 -0.27702321411E+01  0.61912471306E+02  0.30020258925E+02  0.68885426356E+02  0.17770000000E+01 0. -1.
</event>
<event>
 7    1  0.1792335E-008  0.1882513E+03  0.7546771E-02  0.1063967E+00
        -11   -1    0    0    0    0  0.00000000000E+00  0.00000000000E+00  0.18250000000E+03  0.18250000000E+03  0.00000000000E+00 0. -1.
         11   -1    0    0    0    0 -0.00000000000E+00 -0.00000000000E+00 -0.18250000000E+03  0.18250000000E+03  0.00000000000E+00 0. -1.
         23    2    1    2    0    0  0.51542921063E+02 -0.39881545135E+02  0.12492733076E+03  0.17674873726E+03  0.10670551906E+03 0.  0.
        -11    1    3    3    0    0  0.19196209051E+02 -0.55171310867E+02  0.12813954620E+03  0.14082652905E+03  0.00000000000E+00 0. -1.
         11    1    3    3    0    0  0.32346712012E+02  0.15289765732E+02 -0.32122154412E+01  0.35922208203E+02  0.00000000000E+00 0. -1.
        -15    1    1    2    0    0 -0.24239259297E+02 -0.14135309901E+02  0.17754596903E+02  0.33252550540E+02  0.17770000000E+01 0.  1.
         15    1    1    2    0    0 -0.27303661766E+02  0.54016855036E+02 -0.14268192766E+03  0.15499871220E+03  0.17770000000E+01 0. -1.
</event>
<event>
 7    1  0.1792335E-008  0.1765730E+03  0.7546771E-02  0.1073273E+00
        -11   -1    0    0    0    0  0.00000000000E+00  0.00000000000E+00  0.18250000000E+03  0.18250000000E+03  0.00000000000E+00 0. -1.
         11   -1    0    0    0    0 -0.00000000000E+00 -0.00000000000E+00 -0.18250000000E+03  0.18250000000E+03  0.00000000000E+00 0. -1.
         25    2    1    2    0    0 -0.87543809231E+02 -0.23320729311E+02 -0.42463960180E+02  0.16007192841E+03  0.12494822688E+03 0.  0.
        -11    1    1    2    0    0  0.11616548711E+03  0.72910922797E+02  0.52390338677E+02  0.14681679279E+03  0.00000000000E+00 0. -1.
         11    1    1    2    0    0 -0.28621677875E+02 -0.49590193485E+02 -0.99263784970E+01  0.58111278805E+02  0.00000000000E+00 0. -1.
        -15    1    3    3    0    0  0.19986305879E+02  0.32452733079E+01 -0.44879957710E+02  0.49268169791E+02  0.17770000000E+01 0.  1.
         15    1    3    3    0    0 -0.10753011511E+03 -0.26566002619E+02  0.24159975293E+01  0.11080375862E+03  0.17770000000E+01 0.  1.
</event>
<event>
 7    1  0.1792335E-008  0.1888711E+03  0.7546771E-02  0.1063494E+00
        -11   -1    0    0    0    0  0.00000000000E+00  0.00000000000E+00  0.18250000000E+03  0.18250000000E+03  0.00000000000E+00 0.  1.
         11   -1    0    0    0    0 -0.00000000000E+00 -0.00000000000E+00 -0.18250000000E+03  0.18250000000E+03  0.00000000000E+00 0. -1.
         23    2    1    2    0    0  0.71647596852E+02 -0.12108827229E+03 -0.16777631000E+02  0.17612890583E+03  0.10461431425E+03 0.  0.
        -11    1    3    3    0    0  0.50271021625E+02 -0.45194607213E+02 -0.56260746260E+02  0.87948847099E+02  0.00000000000E+00 0.  1.
         11    1    3    3    0    0  0.21376575228E+02 -0.75893665079E+02  0.39483115260E+02  0.88180058733E+02  0.00000000000E+00 0. -1.
        -15    1    1    2    0    0  0.19295160844E+01  0.60179277049E+02 -0.44924575620E+02  0.75144152414E+02  0.17770000000E+01 0. -1.
         15    1    1    2    0    0 -0.73577112937E+02  0.60908995243E+02  0.61702206620E+02  0.11372694175E+03  0.17770000000E+01 0. -1.
</event>
<event>
 8    1  0.1792335E-008  0.1892289E+03  0.7546771E-02  0.1063221E+00
        -11   -1    0    0    0    0  0.00000000000E+00  0.00000000000E+00  0.18250000000E+03  0.18250000000E+03  0.00000000000E+00 0.  1.
         11   -1    0    0    0    0 -0.00000000000E+00 -0.00000000000E+00 -0.18250000000E+03  0.18250000000E+03  0.00000000000E+00 0. -1.
         25    2    1    2    0    0 -0.11682972691E+03 -0.43876245591E+02  0.67794347860E+02  0.18922892109E+03  0.12504879431E+03 0.  0.
         23    2    1    2    0    0  0.11682972691E+03  0.43876245591E+02 -0.67794347860E+02  0.17577107891E+03  0.10356200346E+03 0.  0.
        -11    1    4    4    0    0  0.99128184877E+02  0.32104534641E+01 -0.55412507988E+01  0.99334835324E+02  0.00000000000E+00 0.  1.
         11    1    4    4    0    0  0.17701542038E+02  0.40665792126E+02 -0.62253097061E+02  0.76436243586E+02  0.00000000000E+00 0. -1.
        -15    1    3    3    0    0  0.25068847234E+02 -0.10428926682E+02 -0.25862080405E+01  0.27332321789E+02  0.17770000000E+01 0. -1.
         15    1    3    3    0    0 -0.14189857415E+03 -0.33447318909E+02  0.70380555900E+02  0.16189659930E+03  0.17770000000E+01 0. -1.
</event>
<event>
 7    1  0.1792335E-008  0.1570051E+03  0.7546771E-02  0.1090780E+00
        -11   -1    0    0    0    0  0.00000000000E+00  0.00000000000E+00  0.18250000000E+03  0.18250000000E+03  0.00000000000E+00 0. -1.
         11   -1    0    0    0    0 -0.00000000000E+00 -0.00000000000E+00 -0.18250000000E+03  0.18250000000E+03  0.00000000000E+00 0.  1.
         25    2    1    2    0    0  0.60583435503E+02 -0.30753414046E+01 -0.85988502910E+01  0.13915174310E+03  0.12493781252E+03 0.  0.
        -11    1    1    2    0    0 -0.92620357114E+02  0.91451068883E+02 -0.79328698840E+01  0.13040229667E+03  0.00000000000E+00 0. -1.
         11    1    1    2    0    0  0.32036921611E+02 -0.88375727478E+02  0.16531720175E+02  0.95445960237E+02  0.00000000000E+00 0.  1.
        -15    1    3    3    0    0  0.94947289767E+02 -0.17863404329E+02 -0.22478873776E+02  0.99209609129E+02  0.17770000000E+01 0.  1.
         15    1    3    3    0    0 -0.34363854263E+02  0.14788062924E+02  0.13880023485E+02  0.39942133967E+02  0.17770000000E+01 0.  1.
</event>
<event>
 7    1  0.1792335E-008  0.1860015E+03  0.7546771E-02  0.1065701E+00
        -11   -1    0    0    0    0  0.00000000000E+00  0.00000000000E+00  0.18250000000E+03  0.18250000000E+03  0.00000000000E+00 0. -1.
         11   -1    0    0    0    0 -0.00000000000E+00 -0.00000000000E+00 -0.18250000000E+03  0.18250000000E+03  0.00000000000E+00 0.  1.
         23    2    1    2    0    0 -0.10558069737E+03  0.14991344155E+02  0.87582687572E+02  0.17899846294E+03  0.11400744938E+03 0.  0.
        -11    1    3    3    0    0 -0.60207817520E+02  0.62666244825E+02  0.67960563381E+02  0.11032079453E+03  0.00000000000E+00 0. -1.
         11    1    3    3    0    0 -0.45372879853E+02 -0.47674900670E+02  0.19622124191E+02  0.68677668407E+02  0.00000000000E+00 0.  1.
        -15    1    1    2    0    0  0.43775487784E+02 -0.42286921575E+01  0.29619544573E+02  0.53053278107E+02  0.17770000000E+01 0. -1.
         15    1    1    2    0    0  0.61805209589E+02 -0.10762651997E+02 -0.11720223214E+03  0.13294825895E+03  0.17770000000E+01 0.  1.
</event>
<event>
 8    1  0.1792335E-008  0.1973915E+03  0.7546771E-02  0.1057183E+00
        -11   -1    0    0    0    0  0.00000000000E+00  0.00000000000E+00  0.18250000000E+03  0.18250000000E+03  0.00000000000E+00 0.  1.
         11   -1    0    0    0    0 -0.00000000000E+00 -0.00000000000E+00 -0.18250000000E+03  0.18250000000E+03  0.00000000000E+00 0. -1.
         25    2    1    2    0    0  0.11816870706E+03 -0.96275361130E+02  0.11226286470E+02  0.19739151349E+03  0.12491833973E+03 0.  0.
         23    2    1    2    0    0 -0.11816870706E+03  0.96275361130E+02 -0.11226286470E+02  0.16760848651E+03  0.68802519970E+02 0.  0.
        -11    1    4    4    0    0 -0.99958196183E+02  0.39281499715E+02 -0.71631706419E+01  0.10763822842E+03  0.00000000000E+00 0.  1.
         11    1    4    4    0    0 -0.18210510877E+02  0.56993861414E+02 -0.40631158284E+01  0.59970258091E+02  0.00000000000E+00 0. -1.
        -15    1    3    3    0    0  0.10631835135E+03 -0.10046624145E+02  0.23812445596E+02  0.10942904909E+03  0.17770000000E+01 0.  1.
         15    1    3    3    0    0  0.11850355711E+02 -0.86228736985E+02 -0.12586159125E+02  0.87962464398E+02  0.17770000000E+01 0.  1.
</event>
<event>
 8    1  0.1792335E-008  0.1890939E+03  0.7546771E-02  0.1063324E+00
        -11   -1    0    0    0    0  0.00000000000E+00  0.00000000000E+00  0.18250000000E+03  0.18250000000E+03  0.00000000000E+00 0.  1.
         11   -1    0    0    0    0 -0.00000000000E+00 -0.00000000000E+00 -0.18250000000E+03  0.18250000000E+03  0.00000000000E+00 0. -1.
         25    2    1    2    0    0 -0.75372586963E+02  0.50760931892E+02  0.10889067177E+03  0.18909391126E+03  0.12506650153E+03 0.  0.
         23    2    1    2    0    0  0.75372586963E+02 -0.50760931892E+02 -0.10889067177E+03  0.17590608874E+03  0.10405803470E+03 0.  0.
        -11    1    4    4    0    0  0.18471696867E+02 -0.59738258425E+02 -0.12729976550E+02  0.63811561709E+02  0.00000000000E+00 0.  1.
         11    1    4    4    0    0  0.56900890096E+02  0.89773265336E+01 -0.96160695219E+02  0.11209452703E+03  0.00000000000E+00 0. -1.
        -15    1    3    3    0    0 -0.74746875851E+02 -0.20970308048E+02  0.80715924560E+02  0.11200476541E+03  0.17770000000E+01 0. -1.
         15    1    3    3    0    0 -0.62571111237E+00  0.71731239939E+02  0.28174747210E+02  0.77089145844E+02  0.17770000000E+01 0. -1.
</event>
<event>
 8    1  0.1792335E-008  0.1960695E+03  0.7546771E-02  0.1058139E+00
        -11   -1    0    0    0    0  0.00000000000E+00  0.00000000000E+00  0.18250000000E+03  0.18250000000E+03  0.00000000000E+00 0.  1.
         11   -1    0    0    0    0 -0.00000000000E+00 -0.00000000000E+00 -0.18250000000E+03  0.18250000000E+03  0.00000000000E+00 0. -1.
         25    2    1    2    0    0  0.83565246121E+02 -0.79929625360E+02  0.97246568169E+02  0.19606950332E+03  0.12495783185E+03 0.  0.
         23    2    1    2    0    0 -0.83565246121E+02  0.79929625360E+02 -0.97246568169E+02  0.16893049668E+03  0.75556087240E+02 0.  0.
        -11    1    4    4    0    0 -0.50261034110E+02  0.69557818524E+02 -0.10247144201E+03  0.13365948562E+03  0.00000000000E+00 0. -1.
         11    1    4    4    0    0 -0.33304212011E+02  0.10371806836E+02  0.52248738444E+01  0.35271011063E+02  0.00000000000E+00 0.  1.
        -15    1    3    3    0    0  0.36641241175E+02 -0.53664133339E+02 -0.19210892464E+02  0.67783743480E+02  0.17770000000E+01 0.  1.
         15    1    3    3    0    0  0.46924004946E+02 -0.26265492021E+02  0.11645746063E+03  0.12828575984E+03  0.17770000000E+01 0.  1.
</event>
<event>
 7    1  0.1792335E-008  0.2019363E+03  0.7546771E-02  0.1053957E+00
        -11   -1    0    0    0    0  0.00000000000E+00  0.00000000000E+00  0.18250000000E+03  0.18250000000E+03  0.00000000000E+00 0.  1.
         11   -1    0    0    0    0 -0.00000000000E+00 -0.00000000000E+00 -0.18250000000E+03  0.18250000000E+03  0.00000000000E+00 0. -1.
         25    2    1    2    0    0 -0.77077449816E+02  0.13385314500E+02 -0.13799350768E+03  0.20193628478E+03  0.12496381491E+03 0.  0.
        -11    1    1    2    0    0  0.68051594424E+02 -0.57096824038E+01  0.13427899166E+03  0.15064683063E+03  0.00000000000E+00 0.  1.
         11    1    1    2    0    0  0.90258553921E+01 -0.76756320967E+01  0.37145160177E+01  0.12416884589E+02  0.00000000000E+00 0. -1.
        -15    1    3    3    0    0 -0.40706262344E+02 -0.30910420930E+02  0.14492239094E+01  0.51163579771E+02  0.17770000000E+01 0.  1.
         15    1    3    3    0    0 -0.36371187472E+02  0.44295735430E+02 -0.13944273159E+03  0.15077270501E+03  0.17770000000E+01 0.  1.
</event>
<event>
 8    1  0.1792335E-008  0.1877152E+03  0.7546771E-02  0.1064378E+00
        -11   -1    0    0    0    0  0.00000000000E+00  0.00000000000E+00  0.18250000000E+03  0.18250000000E+03  0.00000000000E+00 0.  1.
         11   -1    0    0    0    0 -0.00000000000E+00 -0.00000000000E+00 -0.18250000000E+03  0.18250000000E+03  0.00000000000E+00 0. -1.
         25    2    1    2    0    0  0.10807868173E+02  0.13926172214E+03  0.94681620428E+01  0.18771521286E+03  0.12504686233E+03 0.  0.
         23    2    1    2    0    0 -0.10807868173E+02 -0.13926172214E+03 -0.94681620428E+01  0.17728478714E+03  0.10876402159E+03 0.  0.
        -11    1    4    4    0    0  0.11351024225E+02 -0.14282234215E+03 -0.30549270508E+02  0.14649343022E+03  0.00000000000E+00 0. -1.
         11    1    4    4    0    0 -0.22158892398E+02  0.35606200099E+01  0.21081108466E+02  0.30791356925E+02  0.00000000000E+00 0.  1.
        -15    1    3    3    0    0 -0.45739741427E+02  0.10907505096E+03  0.26801515874E+02  0.12128878625E+03  0.17770000000E+01 0.  1.
         15    1    3    3    0    0  0.56547609599E+02  0.30186671183E+02 -0.17333353832E+02  0.66426426613E+02  0.17770000000E+01 0.  1.
</event>
<event>
 8    1  0.1792335E-008  0.1838329E+03  0.7546771E-02  0.1067399E+00
        -11   -1    0    0    0    0  0.00000000000E+00  0.00000000000E+00  0.18250000000E+03  0.18250000000E+03  0.00000000000E+00 0. -1.
         11   -1    0    0    0    0 -0.00000000000E+00 -0.00000000000E+00 -0.18250000000E+03  0.18250000000E+03  0.00000000000E+00 0.  1.
         25    2    1    2    0    0  0.11293710467E+03 -0.63772989892E+02  0.36452753278E+02  0.18383293864E+03  0.12507582603E+03 0.  0.
         23    2    1    2    0    0 -0.11293710467E+03  0.63772989892E+02 -0.36452753278E+02  0.18116706136E+03  0.12112356108E+03 0.  0.
        -11    1    4    4    0    0 -0.76575405701E+02  0.13823495851E+02  0.36178898722E+02  0.85812554493E+02  0.00000000000E+00 0. -1.
         11    1    4    4    0    0 -0.36361698971E+02  0.49949494041E+02 -0.72631652001E+02  0.95354506864E+02  0.00000000000E+00 0.  1.
        -15    1    3    3    0    0  0.73599704255E+02 -0.82121230468E+02  0.68515538952E+02  0.12983970797E+03  0.17770000000E+01 0. -1.
         15    1    3    3    0    0  0.39337400417E+02  0.18348240576E+02 -0.32062785674E+02  0.53993230668E+02  0.17770000000E+01 0. -1.
</event>
<event>
 8    1  0.1792335E-008  0.1972956E+03  0.7546771E-02  0.1057252E+00
        -11   -1    0    0    0    0  0.00000000000E+00  0.00000000000E+00  0.18250000000E+03  0.18250000000E+03  0.00000000000E+00 0.  1.
         11   -1    0    0    0    0 -0.00000000000E+00 -0.00000000000E+00 -0.18250000000E+03  0.18250000000E+03  0.00000000000E+00 0.  1.
         25    2    1    2    0    0 -0.78763769709E+02  0.12848635267E+03 -0.24563472358E+02  0.19729559129E+03  0.12493883274E+03 0.  0.
         23    2    1    2    0    0  0.78763769709E+02 -0.12848635267E+03  0.24563472358E+02  0.16770440871E+03  0.69346451142E+02 0.  0.
        -11    1    4    4    0    0  0.24484256664E+02  0.20013645423E+01  0.32863779989E+01  0.24784764772E+02  0.00000000000E+00 0.  1.
         11    1    4    4    0    0  0.54279513045E+02 -0.13048771721E+03  0.21277094359E+02  0.14291964394E+03  0.00000000000E+00 0.  1.
        -15    1    3    3    0    0 -0.63313826305E+01 -0.14150646205E+02  0.25296413421E+02  0.29721935587E+02  0.17770000000E+01 0.  1.
         15    1    3    3    0    0 -0.72432387078E+02  0.14263699888E+03 -0.49859885780E+02  0.16757365570E+03  0.17770000000E+01 0.  1.
</event>
<event>
 7    1  0.1792335E-008  0.1563066E+03  0.7546771E-02  0.1091456E+00
        -11   -1    0    0    0    0  0.00000000000E+00  0.00000000000E+00  0.18250000000E+03  0.18250000000E+03  0.00000000000E+00 0.  1.
         11   -1    0    0    0    0 -0.00000000000E+00 -0.00000000000E+00 -0.18250000000E+03  0.18250000000E+03  0.00000000000E+00 0. -1.
         25    2    1    2    0    0 -0.88145216986E+02 -0.62400680171E+02  0.25205883783E+02  0.16713842722E+03  0.12504596400E+03 0.  0.
        -11    1    1    2    0    0  0.59374689921E+02 -0.21640569423E+02 -0.73354411409E+02  0.96822196429E+02  0.00000000000E+00 0. -1.
         11    1    1    2    0    0  0.28770527066E+02  0.84041249594E+02  0.48148527626E+02  0.10103937635E+03  0.00000000000E+00 0.  1.
        -15    1    3    3    0    0 -0.37877430254E+02 -0.96916013107E+02  0.12399573550E+02  0.10480610895E+03  0.17770000000E+01 0.  1.
         15    1    3    3    0    0 -0.50267786733E+02  0.34515332935E+02  0.12806310233E+02  0.62332318274E+02  0.17770000000E+01 0.  1.
</event>
<event>
 8    1  0.1792335E-008  0.1881779E+03  0.7546771E-02  0.1064023E+00
        -11   -1    0    0    0    0  0.00000000000E+00  0.00000000000E+00  0.18250000000E+03  0.18250000000E+03  0.00000000000E+00 0.  1.
         11   -1    0    0    0    0 -0.00000000000E+00 -0.00000000000E+00 -0.18250000000E+03  0.18250000000E+03  0.00000000000E+00 0. -1.
         25    2    1    2    0    0 -0.10205067210E+03  0.90126062325E+02 -0.35213503223E+02  0.18817794975E+03  0.12503560764E+03 0.  0.
         23    2    1    2    0    0  0.10205067210E+03 -0.90126062325E+02  0.35213503223E+02  0.17682205025E+03  0.10718675225E+03 0.  0.
        -11    1    4    4    0    0  0.87849816399E+01  0.24172386816E+02  0.38926449017E+01  0.26012167751E+02  0.00000000000E+00 0.  1.
         11    1    4    4    0    0  0.93265690456E+02 -0.11429844914E+03  0.31320858321E+02  0.15080988249E+03  0.00000000000E+00 0. -1.
        -15    1    3    3    0    0 -0.70336647327E+02  0.11466527457E+03  0.37937452605E+00  0.13453130046E+03  0.17770000000E+01 0. -1.
         15    1    3    3    0    0 -0.31714024768E+02 -0.24539212248E+02 -0.35592877749E+02  0.53646649291E+02  0.17770000000E+01 0. -1.
</event>
<event>
 7    1  0.1792335E-008  0.1860950E+03  0.7546771E-02  0.1065629E+00
        -11   -1    0    0    0    0  0.00000000000E+00  0.00000000000E+00  0.18250000000E+03  0.18250000000E+03  0.00000000000E+00 0. -1.
         11   -1    0    0    0    0 -0.00000000000E+00 -0.00000000000E+00 -0.18250000000E+03  0.18250000000E+03  0.00000000000E+00 0. -1.
         23    2    1    2    0    0 -0.91917286283E+01  0.11238808857E+03  0.79471087441E+02  0.17890496526E+03  0.11391120458E+03 0.  0.
        -11    1    3    3    0    0 -0.13735445180E+02  0.88292955142E+02  0.10872653058E+03  0.14073296285E+03  0.00000000000E+00 0. -1.
         11    1    3    3    0    0  0.45437165512E+01  0.24095133428E+02 -0.29255443136E+02  0.38172002411E+02  0.00000000000E+00 0. -1.
        -15    1    1    2    0    0  0.66802902065E+02 -0.68226942807E+02 -0.49142025868E+02  0.10740409622E+03  0.17770000000E+01 0.  1.
         15    1    1    2    0    0 -0.57611173437E+02 -0.44161145763E+02 -0.30329061573E+02  0.78690938518E+02  0.17770000000E+01 0.  1.
</event>
<event>
 8    1  0.1792335E-008  0.1868386E+03  0.7546771E-02  0.1065053E+00
        -11   -1    0    0    0    0  0.00000000000E+00  0.00000000000E+00  0.18250000000E+03  0.18250000000E+03  0.00000000000E+00 0.  1.
         11   -1    0    0    0    0 -0.00000000000E+00 -0.00000000000E+00 -0.18250000000E+03  0.18250000000E+03  0.00000000000E+00 0. -1.
         25    2    1    2    0    0  0.13612643291E+03 -0.20693889335E+02  0.17695055446E+02  0.18683864185E+03  0.12504767215E+03 0.  0.
         23    2    1    2    0    0 -0.13612643291E+03  0.20693889335E+02 -0.17695055446E+02  0.17816135815E+03  0.11166786358E+03 0.  0.
        -11    1    4    4    0    0 -0.10269300742E+03  0.43634018377E+02 -0.53797874599E+02  0.12387087085E+03  0.00000000000E+00 0.  1.
         11    1    4    4    0    0 -0.33433425492E+02 -0.22940129042E+02  0.36102819153E+02  0.54290487301E+02  0.00000000000E+00 0. -1.
        -15    1    3    3    0    0  0.10773335750E+03 -0.59870029057E+02 -0.20771451148E+02  0.12500203042E+03  0.17770000000E+01 0. -1.
         15    1    3    3    0    0  0.28393075408E+02  0.39176139722E+02  0.38466506594E+02  0.61836611430E+02  0.17770000000E+01 0. -1.
</event>
<event>
 8    1  0.1792335E-008  0.1843922E+03  0.7546771E-02  0.1066959E+00
        -11   -1    0    0    0    0  0.00000000000E+00  0.00000000000E+00  0.18250000000E+03  0.18250000000E+03  0.00000000000E+00 0.  1.
         11   -1    0    0    0    0 -0.00000000000E+00 -0.00000000000E+00 -0.18250000000E+03  0.18250000000E+03  0.00000000000E+00 0. -1.
         25    2    1    2    0    0 -0.11859688430E+03  0.56801926706E+02 -0.32789296048E+02  0.18439217879E+03  0.12503462649E+03 0.  0.
         23    2    1    2    0    0  0.11859688430E+03 -0.56801926706E+02  0.32789296048E+02  0.18060782121E+03  0.11938327899E+03 0.  0.
        -11    1    4    4    0    0  0.87436654287E+02  0.12300007988E+02  0.51916317281E+02  0.10242930591E+03  0.00000000000E+00 0.  1.
         11    1    4    4    0    0  0.31160230011E+02 -0.69101934694E+02 -0.19127021233E+02  0.78178515297E+02  0.00000000000E+00 0. -1.
        -15    1    3    3    0    0 -0.92042296190E+01  0.47387264047E+02 -0.54104837861E+02  0.72531109503E+02  0.17770000000E+01 0.  1.
         15    1    3    3    0    0 -0.10939265468E+03  0.94146626587E+01  0.21315541814E+02  0.11186106929E+03  0.17770000000E+01 0.  1.
</event>
<event>
 8    1  0.1792335E-008  0.1883533E+03  0.7546771E-02  0.1063889E+00
        -11   -1    0    0    0    0  0.00000000000E+00  0.00000000000E+00  0.18250000000E+03  0.18250000000E+03  0.00000000000E+00 0.  1.
         11   -1    0    0    0    0 -0.00000000000E+00 -0.00000000000E+00 -0.18250000000E+03  0.18250000000E+03  0.00000000000E+00 0. -1.
         25    2    1    2    0    0 -0.92631747294E+02  0.58665195818E+02  0.88541208348E+02  0.18835334529E+03  0.12496075904E+03 0.  0.
         23    2    1    2    0    0  0.92631747294E+02 -0.58665195818E+02 -0.88541208348E+02  0.17664665471E+03  0.10649999641E+03 0.  0.
        -11    1    4    4    0    0  0.21414731555E+02 -0.22028392100E+02 -0.91483678439E+02  0.96504425841E+02  0.00000000000E+00 0. -1.
         11    1    4    4    0    0  0.71217015739E+02 -0.36636803718E+02  0.29424700910E+01  0.80142228866E+02  0.00000000000E+00 0.  1.
        -15    1    3    3    0    0 -0.40795383270E+02 -0.13340803796E+02  0.89862060099E+02  0.99602148152E+02  0.17770000000E+01 0. -1.
         15    1    3    3    0    0 -0.51836364024E+02  0.72005999614E+02 -0.13208517513E+01  0.88751197141E+02  0.17770000000E+01 0. -1.
</event>
<event>
 7    1  0.1792335E-008  0.1480753E+03  0.7546771E-02  0.1099728E+00
        -11   -1    0    0    0    0  0.00000000000E+00  0.00000000000E+00  0.18250000000E+03  0.18250000000E+03  0.00000000000E+00 0.  1.
         11   -1    0    0    0    0 -0.00000000000E+00 -0.00000000000E+00 -0.18250000000E+03  0.18250000000E+03  0.00000000000E+00 0.  1.
         25    2    1    2    0    0  0.38004014924E+01  0.85045996550E+01  0.26816936262E+02  0.12822611406E+03  0.12504406019E+03 0.  0.
        -11    1    1    2    0    0  0.85342191807E+02  0.13021292189E+02 -0.90541285268E+02  0.12510223056E+03  0.00000000000E+00 0.  1.
         11    1    1    2    0    0 -0.89142593300E+02 -0.21525891844E+02  0.63724349005E+02  0.11167165538E+03  0.00000000000E+00 0.  1.
        -15    1    3    3    0    0 -0.19977817349E+02  0.28212651594E+02  0.68245401017E+02  0.76522280318E+02  0.17770000000E+01 0.  1.
         15    1    3    3    0    0  0.23778218841E+02 -0.19708051939E+02 -0.41428464755E+02  0.51703833741E+02  0.17770000000E+01 0.  1.
</event>
<event>
 8    1  0.1792335E-008  0.1850805E+03  0.7546771E-02  0.1066419E+00
        -11   -1    0    0    0    0  0.00000000000E+00  0.00000000000E+00  0.18250000000E+03  0.18250000000E+03  0.00000000000E+00 0. -1.
         11   -1    0    0    0    0 -0.00000000000E+00 -0.00000000000E+00 -0.18250000000E+03  0.18250000000E+03  0.00000000000E+00 0.  1.
         25    2    1    2    0    0 -0.94134041515E+02 -0.51595691247E+02 -0.84368425994E+02  0.18508048932E+03  0.12495368380E+03 0.  0.
         23    2    1    2    0    0  0.94134041515E+02  0.51595691247E+02  0.84368425994E+02  0.17991951068E+03  0.11717365698E+03 0.  0.
        -11    1    4    4    0    0  0.37062385117E+02  0.57895048768E+02 -0.99901620288E+01  0.69464094321E+02  0.00000000000E+00 0.  1.
         11    1    4    4    0    0  0.57071656398E+02 -0.62993575207E+01  0.94358588023E+02  0.11045541636E+03  0.00000000000E+00 0. -1.
        -15    1    3    3    0    0 -0.65916221661E+02 -0.92429466971E+02 -0.69971245524E+02  0.13336899029E+03  0.17770000000E+01 0.  1.
         15    1    3    3    0    0 -0.28217819855E+02  0.40833775724E+02 -0.14397180471E+02  0.51711499028E+02  0.17770000000E+01 0.  1.
</event>
<event>
 8    1  0.1792335E-008  0.1868877E+03  0.7546771E-02  0.1065015E+00
        -11   -1    0    0    0    0  0.00000000000E+00  0.00000000000E+00  0.18250000000E+03  0.18250000000E+03  0.00000000000E+00 0. -1.
         11   -1    0    0    0    0 -0.00000000000E+00 -0.00000000000E+00 -0.18250000000E+03  0.18250000000E+03  0.00000000000E+00 0. -1.
         25    2    1    2    0    0 -0.26841373554E+02  0.13225915919E+03 -0.32836954850E+02  0.18688766324E+03  0.12504314672E+03 0.  0.
         23    2    1    2    0    0  0.26841373554E+02 -0.13225915919E+03  0.32836954850E+02  0.17811233676E+03  0.11150244113E+03 0.  0.
        -11    1    4    4    0    0 -0.23571231540E+02 -0.30807584295E+02  0.50265685660E+02  0.63492907960E+02  0.00000000000E+00 0. -1.
         11    1    4    4    0    0  0.50412605093E+02 -0.10145157490E+03 -0.17428730809E+02  0.11461942880E+03  0.00000000000E+00 0. -1.
        -15    1    3    3    0    0 -0.53858438698E+01  0.13652017521E+03  0.11800731278E+02  0.13714656591E+03  0.17770000000E+01 0.  1.
         15    1    3    3    0    0 -0.21455529684E+02 -0.42610160167E+01 -0.44637686128E+02  0.49741097328E+02  0.17770000000E+01 0.  1.
</event>
<event>
 7    1  0.1792335E-008  0.1871986E+03  0.7546771E-02  0.1064775E+00
        -11   -1    0    0    0    0  0.00000000000E+00  0.00000000000E+00  0.18250000000E+03  0.18250000000E+03  0.00000000000E+00 0.  1.
         11   -1    0    0    0    0 -0.00000000000E+00 -0.00000000000E+00 -0.18250000000E+03  0.18250000000E+03  0.00000000000E+00 0. -1.
         23    2    1    2    0    0 -0.79476063723E+02  0.32609589362E+02 -0.10992749588E+03  0.17780140680E+03  0.11022457025E+03 0.  0.
        -11    1    3    3    0    0 -0.96939631749E+02  0.38328212949E+02 -0.11824280412E+03  0.15763154773E+03  0.00000000000E+00 0. -1.
         11    1    3    3    0    0  0.17463568027E+02 -0.57186235867E+01  0.83153082434E+01  0.20169859076E+02  0.00000000000E+00 0.  1.
        -15    1    1    2    0    0  0.58287375709E+02 -0.55812120516E+01 -0.12613505077E+02  0.59923504022E+02  0.17770000000E+01 0. -1.
         15    1    1    2    0    0  0.21188688014E+02 -0.27028377310E+02  0.12254100096E+03  0.12727508918E+03  0.17770000000E+01 0. -1.
</event>
<event>
 8    1  0.1792335E-008  0.1826537E+03  0.7546771E-02  0.1068333E+00
        -11   -1    0    0    0    0  0.00000000000E+00  0.00000000000E+00  0.18250000000E+03  0.18250000000E+03  0.00000000000E+00 0.  1.
         11   -1    0    0    0    0 -0.00000000000E+00 -0.00000000000E+00 -0.18250000000E+03  0.18250000000E+03  0.00000000000E+00 0. -1.
         25    2    1    2    0    0 -0.19487652490E+02 -0.12855052130E+03 -0.26614888164E+02  0.18234628450E+03  0.12504723137E+03 0.  0.
         23    2    1    2    0    0  0.19487652490E+02  0.12855052130E+03  0.26614888164E+02  0.18265371550E+03  0.12549510902E+03 0.  0.
        -11    1    4    4    0    0 -0.42893913219E+02  0.91928489530E+02  0.40080366795E+02  0.10907415267E+03  0.00000000000E+00 0.  1.
         11    1    4    4    0    0  0.62381565709E+02  0.36622031769E+02 -0.13465478631E+02  0.73579562828E+02  0.00000000000E+00 0. -1.
        -15    1    3    3    0    0 -0.20326333424E+02 -0.43707720584E+02  0.48944074360E+02  0.68718300424E+02  0.17770000000E+01 0.  1.
         15    1    3    3    0    0  0.83868093434E+00 -0.84842800715E+02 -0.75558962524E+02  0.11362798408E+03  0.17770000000E+01 0.  1.
</event>
<event>
 8    1  0.1792335E-008  0.1981238E+03  0.7546771E-02  0.1056657E+00
        -11   -1    0    0    0    0  0.00000000000E+00  0.00000000000E+00  0.18250000000E+03  0.18250000000E+03  0.00000000000E+00 0.  1.
         11   -1    0    0    0    0 -0.00000000000E+00 -0.00000000000E+00 -0.18250000000E+03  0.18250000000E+03  0.00000000000E+00 0. -1.
         25    2    1    2    0    0  0.12278128408E+03 -0.47601034481E+02  0.79382367854E+02  0.19812384055E+03  0.12494156100E+03 0.  0.
         23    2    1    2    0    0 -0.12278128408E+03  0.47601034481E+02 -0.79382367854E+02  0.16687615945E+03  0.64845894726E+02 0.  0.
        -11    1    4    4    0    0 -0.58684570210E+02  0.25265364774E+02 -0.75474479830E+02  0.98886877509E+02  0.00000000000E+00 0. -1.
         11    1    4    4    0    0 -0.64096713868E+02  0.22335669707E+02 -0.39078880244E+01  0.67989281940E+02  0.00000000000E+00 0.  1.
        -15    1    3    3    0    0  0.12450361035E+03  0.89468958613E+01  0.57431066362E+02  0.13741426799E+03  0.17770000000E+01 0. -1.
         15    1    3    3    0    0 -0.17223262738E+01 -0.56547930343E+02  0.21951301493E+02  0.60709572557E+02  0.17770000000E+01 0. -1.
</event>
<event>
 7    1  0.1792335E-008  0.1972630E+03  0.7546771E-02  0.1057275E+00
        -11   -1    0    0    0    0  0.00000000000E+00  0.00000000000E+00  0.18250000000E+03  0.18250000000E+03  0.00000000000E+00 0.  1.
         11   -1    0    0    0    0 -0.00000000000E+00 -0.00000000000E+00 -0.18250000000E+03  0.18250000000E+03  0.00000000000E+00 0.  1.
         23    2    1    2    0    0 -0.11104089537E+03 -0.37932431430E+02 -0.97829887326E+02  0.16773698504E+03  0.69253588341E+02 0.  0.
        -11    1    3    3    0    0 -0.50276461806E+02 -0.26428194173E+02 -0.61266042870E+01  0.57128866076E+02  0.00000000000E+00 0.  1.
         11    1    3    3    0    0 -0.60764433563E+02 -0.11504237257E+02 -0.91703283039E+02  0.11060811897E+03  0.00000000000E+00 0.  1.
        -15    1    1    2    0    0  0.12676894318E+02 -0.20786161101E+02  0.77047646574E+02  0.80822433238E+02  0.17770000000E+01 0. -1.
         15    1    1    2    0    0  0.98364001051E+02  0.58718592532E+02  0.20782240752E+02  0.11644058172E+03  0.17770000000E+01 0.  1.
</event>
<event>
 8    1  0.1792335E-008  0.1880343E+03  0.7546771E-02  0.1064133E+00
        -11   -1    0    0    0    0  0.00000000000E+00  0.00000000000E+00  0.18250000000E+03  0.18250000000E+03  0.00000000000E+00 0.  1.
         11   -1    0    0    0    0 -0.00000000000E+00 -0.00000000000E+00 -0.18250000000E+03  0.18250000000E+03  0.00000000000E+00 0. -1.
         25    2    1    2    0    0  0.37500464783E+02 -0.13217969425E+03 -0.29370248946E+02  0.18803434715E+03  0.12496618644E+03 0.  0.
         23    2    1    2    0    0 -0.37500464783E+02  0.13217969425E+03  0.29370248946E+02  0.17696565285E+03  0.10759402555E+03 0.  0.
        -11    1    4    4    0    0 -0.62981822570E+02  0.95037073224E+02  0.53417491652E+02  0.12590545530E+03  0.00000000000E+00 0.  1.
         11    1    4    4    0    0  0.25481357787E+02  0.37142621028E+02 -0.24047242706E+02  0.51060197544E+02  0.00000000000E+00 0. -1.
        -15    1    3    3    0    0 -0.43698256541E+02 -0.72017042293E+02 -0.19469733625E+02  0.86476703578E+02  0.17770000000E+01 0.  1.
         15    1    3    3    0    0  0.81198721325E+02 -0.60162651959E+02 -0.99005153212E+01  0.10155764357E+03  0.17770000000E+01 0.  1.
</event>
<event>
 8    1  0.1792335E-008  0.1884350E+03  0.7546771E-02  0.1063826E+00
        -11   -1    0    0    0    0  0.00000000000E+00  0.00000000000E+00  0.18250000000E+03  0.18250000000E+03  0.00000000000E+00 0.  1.
         11   -1    0    0    0    0 -0.00000000000E+00 -0.00000000000E+00 -0.18250000000E+03  0.18250000000E+03  0.00000000000E+00 0. -1.
         25    2    1    2    0    0  0.13637408965E+03 -0.33660441292E+02 -0.11689001830E+02  0.18843499128E+03  0.12506076739E+03 0.  0.
         23    2    1    2    0    0 -0.13637408965E+03  0.33660441292E+02  0.11689001830E+02  0.17656500872E+03  0.10633744356E+03 0.  0.
        -11    1    4    4    0    0 -0.38319316425E+02 -0.10757895193E+02  0.48553170931E+02  0.62781468028E+02  0.00000000000E+00 0.  1.
         11    1    4    4    0    0 -0.98054773224E+02  0.44418336485E+02 -0.36864169101E+02  0.11378354069E+03  0.00000000000E+00 0. -1.
        -15    1    3    3    0    0  0.12437180129E+02 -0.48144018591E+02 -0.35847899601E+02  0.61325032495E+02  0.17770000000E+01 0.  1.
         15    1    3    3    0    0  0.12393690952E+03  0.14483577299E+02  0.24158897771E+02  0.12710995879E+03  0.17770000000E+01 0.  1.
</event>
<event>
 8    1  0.1792335E-008  0.1973929E+03  0.7546771E-02  0.1057182E+00
        -11   -1    0    0    0    0  0.00000000000E+00  0.00000000000E+00  0.18250000000E+03  0.18250000000E+03  0.00000000000E+00 0.  1.
         11   -1    0    0    0    0 -0.00000000000E+00 -0.00000000000E+00 -0.18250000000E+03  0.18250000000E+03  0.00000000000E+00 0. -1.
         25    2    1    2    0    0 -0.90488430130E+02  0.10639063993E+03 -0.61771564388E+02  0.19739291395E+03  0.12506443162E+03 0.  0.
         23    2    1    2    0    0  0.90488430130E+02 -0.10639063993E+03  0.61771564388E+02  0.16760708605E+03  0.69060009241E+02 0.  0.
        -11    1    4    4    0    0  0.47296468832E+02 -0.12095850875E+02  0.42387454637E+01  0.49002372753E+02  0.00000000000E+00 0. -1.
         11    1    4    4    0    0  0.43191961299E+02 -0.94294789055E+02  0.57532818925E+02  0.11860471330E+03  0.00000000000E+00 0.  1.
        -15    1    3    3    0    0 -0.12050150403E+03  0.90137559133E+02 -0.63104833145E+02  0.16318936771E+03  0.17770000000E+01 0.  1.
         15    1    3    3    0    0  0.30013073899E+02  0.16253080797E+02  0.13332687564E+01  0.34203546232E+02  0.17770000000E+01 0.  1.
</event>
<event>
 8    1  0.1792335E-008  0.1836725E+03  0.7546771E-02  0.1067525E+00
        -11   -1    0    0    0    0  0.00000000000E+00  0.00000000000E+00  0.18250000000E+03  0.18250000000E+03  0.00000000000E+00 0. -1.
         11   -1    0    0    0    0 -0.00000000000E+00 -0.00000000000E+00 -0.18250000000E+03  0.18250000000E+03  0.00000000000E+00 0.  1.
         25    2    1    2    0    0  0.12134655056E+03  0.45893323006E+02  0.35521702583E+02  0.18367252778E+03  0.12507047484E+03 0.  0.
         23    2    1    2    0    0 -0.12134655056E+03 -0.45893323006E+02 -0.35521702583E+02  0.18132747222E+03  0.12160048683E+03 0.  0.
        -11    1    4    4    0    0 -0.26391720251E+02 -0.32182678246E+02  0.41139778523E+02  0.58521184658E+02  0.00000000000E+00 0. -1.
         11    1    4    4    0    0 -0.94954830312E+02 -0.13710644760E+02 -0.76661481106E+02  0.12280628756E+03  0.00000000000E+00 0.  1.
        -15    1    3    3    0    0  0.13540856288E+03  0.50517544812E+02  0.58792042678E+02  0.15603577553E+03  0.17770000000E+01 0. -1.
         15    1    3    3    0    0 -0.14062012316E+02 -0.46242218052E+01 -0.23270340095E+02  0.27636752248E+02  0.17770000000E+01 0. -1.
</event>
<event>
 7    1  0.2626162E-008  0.1684549E+03  0.7546771E-02  0.1080219E+00
        -11   -1    0    0    0    0  0.00000000000E+00  0.00000000000E+00  0.18250000000E+03  0.18250000000E+03  0.00000000000E+00 0.  1.
         11   -1    0    0    0    0 -0.00000000000E+00 -0.00000000000E+00 -0.18250000000E+03  0.18250000000E+03  0.00000000000E+00 0. -1.
         25    2    1    2    0    0  0.20800785781E+02 -0.11739268867E+03 -0.21946978971E+02  0.17415059757E+03  0.12503217469E+03 0.  0.
        -11    1    1    2    0    0 -0.61245776132E+02  0.23455528727E+02 -0.34423931334E+02  0.74068981162E+02  0.00000000000E+00 0.  1.
         11    1    1    2    0    0  0.40444990351E+02  0.93937159942E+02  0.56370910305E+02  0.11678042127E+03  0.00000000000E+00 0. -1.
        -15    1    3    3    0    0  0.66692166172E+02 -0.28796828419E+02 -0.14360812606E+02  0.74070864875E+02  0.17770000000E+01 0.  1.
         15    1    3    3    0    0 -0.45891380391E+02 -0.88595860250E+02 -0.75861663650E+01  0.10007973270E+03  0.17770000000E+01 0.  1.
</event>
<event>
 7    1  0.1792335E-008  0.1885709E+03  0.7546771E-02  0.1063723E+00
        -11   -1    0    0    0    0  0.00000000000E+00  0.00000000000E+00  0.18250000000E+03  0.18250000000E+03  0.00000000000E+00 0. -1.
         11   -1    0    0    0    0 -0.00000000000E+00 -0.00000000000E+00 -0.18250000000E+03  0.18250000000E+03  0.00000000000E+00 0.  1.
         23    2    1    2    0    0 -0.48052720182E+02 -0.12936442385E+03 -0.29161075065E+02  0.17642912948E+03  0.10598420333E+03 0.  0.
        -11    1    3    3    0    0 -0.23478108233E+02 -0.10923264489E+02 -0.47483803080E+02  0.54085587990E+02  0.00000000000E+00 0.  1.
         11    1    3    3    0    0 -0.24574611949E+02 -0.11844115936E+03  0.18322728015E+02  0.12234354149E+03  0.00000000000E+00 0. -1.
        -15    1    1    2    0    0 -0.25216839637E+02  0.97695510722E+02 -0.65126251868E+01  0.10112306281E+03  0.17770000000E+01 0. -1.
         15    1    1    2    0    0  0.73269559819E+02  0.31668913123E+02  0.35673700252E+02  0.87447807709E+02  0.17770000000E+01 0. -1.
</event>
<event>
 8    1  0.1792335E-008  0.1884704E+03  0.7546771E-02  0.1063799E+00
        -11   -1    0    0    0    0  0.00000000000E+00  0.00000000000E+00  0.18250000000E+03  0.18250000000E+03  0.00000000000E+00 0.  1.
         11   -1    0    0    0    0 -0.00000000000E+00 -0.00000000000E+00 -0.18250000000E+03  0.18250000000E+03  0.00000000000E+00 0. -1.
         25    2    1    2    0    0 -0.12610766564E+03  0.31596267864E+02 -0.54618985808E+02  0.18847036905E+03  0.12504550741E+03 0.  0.
         23    2    1    2    0    0  0.12610766564E+03 -0.31596267864E+02  0.54618985808E+02  0.17652963095E+03  0.10619797322E+03 0.  0.
        -11    1    4    4    0    0 -0.95494682199E+01 -0.29811950696E+02  0.17548769499E+02  0.35887380212E+02  0.00000000000E+00 0.  1.
         11    1    4    4    0    0  0.13565713386E+03 -0.17843171682E+01  0.37070216310E+02  0.14064225074E+03  0.00000000000E+00 0. -1.
        -15    1    3    3    0    0 -0.74033663099E+02 -0.30777534741E+02 -0.69169589436E+02  0.10590481457E+03  0.17770000000E+01 0. -1.
         15    1    3    3    0    0 -0.52074002543E+02  0.62373802605E+02  0.14550603627E+02  0.82565554484E+02  0.17770000000E+01 0. -1.
</event>
<event>
 7    1  0.1792335E-008  0.1883750E+03  0.7546771E-02  0.1063872E+00
        -11   -1    0    0    0    0  0.00000000000E+00  0.00000000000E+00  0.18250000000E+03  0.18250000000E+03  0.00000000000E+00 0.  1.
         11   -1    0    0    0    0 -0.00000000000E+00 -0.00000000000E+00 -0.18250000000E+03  0.18250000000E+03  0.00000000000E+00 0.  1.
         23    2    1    2    0    0  0.13956228109E+03  0.43034141611E+01 -0.19808269105E+02  0.17662499800E+03  0.10633848183E+03 0.  0.
        -11    1    3    3    0    0  0.85267949991E+02 -0.64815709926E+01  0.40623526804E+02  0.94672620056E+02  0.00000000000E+00 0.  1.
         11    1    3    3    0    0  0.54294331102E+02  0.10784985154E+02 -0.60431795909E+02  0.81952377948E+02  0.00000000000E+00 0.  1.
        -15    1    1    2    0    0 -0.93746118531E+01 -0.45975309986E+02  0.21535705196E+02  0.51658075874E+02  0.17770000000E+01 0. -1.
         15    1    1    2    0    0 -0.13018766924E+03  0.41671895825E+02 -0.17274360906E+01  0.13671692612E+03  0.17770000000E+01 0.  1.
</event>
<event>
 8    1  0.1792335E-008  0.1877417E+03  0.7546771E-02  0.1064357E+00
        -11   -1    0    0    0    0  0.00000000000E+00  0.00000000000E+00  0.18250000000E+03  0.18250000000E+03  0.00000000000E+00 0. -1.
         11   -1    0    0    0    0 -0.00000000000E+00 -0.00000000000E+00 -0.18250000000E+03  0.18250000000E+03  0.00000000000E+00 0.  1.
         25    2    1    2    0    0  0.13218646372E+03 -0.10796240882E+02 -0.44960383615E+02  0.18774168835E+03  0.12504273446E+03 0.  0.
         23    2    1    2    0    0 -0.13218646372E+03  0.10796240882E+02  0.44960383615E+02  0.17725831165E+03  0.10867038671E+03 0.  0.
        -11    1    4    4    0    0 -0.87034164166E+02  0.40501538706E+01 -0.27717652781E+02  0.91430945276E+02  0.00000000000E+00 0.  1.
         11    1    4    4    0    0 -0.45152299552E+02  0.67460870113E+01  0.72678036396E+02  0.85827366377E+02  0.00000000000E+00 0. -1.
        -15    1    3    3    0    0  0.15284679897E+02  0.26282951811E+02  0.31010717627E+02  0.43465357841E+02  0.17770000000E+01 0.  1.
         15    1    3    3    0    0  0.11690178382E+03 -0.37079192693E+02 -0.75971101242E+02  0.14427633051E+03  0.17770000000E+01 0.  1.
</event>
<event>
 7    1  0.1792335E-008  0.1755089E+03  0.7546771E-02  0.1074160E+00
        -11   -1    0    0    0    0  0.00000000000E+00  0.00000000000E+00  0.18250000000E+03  0.18250000000E+03  0.00000000000E+00 0.  1.
         11   -1    0    0    0    0 -0.00000000000E+00 -0.00000000000E+00 -0.18250000000E+03  0.18250000000E+03  0.00000000000E+00 0. -1.
         25    2    1    2    0    0  0.36613487806E+01  0.60501548297E+02 -0.10488150117E+03  0.17411867522E+03  0.12507334229E+03 0.  0.
        -11    1    1    2    0    0  0.56398398549E+02 -0.54820122249E+02  0.10419773395E+03  0.13054958032E+03  0.00000000000E+00 0.  1.
         11    1    1    2    0    0 -0.60059747330E+02 -0.56814260488E+01  0.68376721804E+00  0.60331744454E+02  0.00000000000E+00 0. -1.
        -15    1    3    3    0    0 -0.21526303580E+02  0.49999875634E+02  0.10561856477E+02  0.55480445659E+02  0.17770000000E+01 0.  1.
         15    1    3    3    0    0  0.25187652361E+02  0.10501672663E+02 -0.11544335765E+03  0.11863822956E+03  0.17770000000E+01 0.  1.
</event>
<event>
 8    1  0.1792335E-008  0.1865990E+03  0.7546771E-02  0.1065238E+00
        -11   -1    0    0    0    0  0.00000000000E+00  0.00000000000E+00  0.18250000000E+03  0.18250000000E+03  0.00000000000E+00 0.  1.
         11   -1    0    0    0    0 -0.00000000000E+00 -0.00000000000E+00 -0.18250000000E+03  0.18250000000E+03  0.00000000000E+00 0.  1.
         25    2    1    2    0    0 -0.27007518125E+01  0.11195324925E+03 -0.81654679653E+02  0.18659898518E+03  0.12494346915E+03 0.  0.
         23    2    1    2    0    0  0.27007518125E+01 -0.11195324925E+03  0.81654679653E+02  0.17840101482E+03  0.11233259233E+03 0.  0.
        -11    1    4    4    0    0  0.53317421583E+02 -0.31375716935E+02  0.20001927086E+02  0.65017383403E+02  0.00000000000E+00 0.  1.
         11    1    4    4    0    0 -0.50616669771E+02 -0.80577532319E+02  0.61652752566E+02  0.11338363141E+03  0.00000000000E+00 0.  1.
        -15    1    3    3    0    0 -0.37228374936E+02  0.10894972692E+03 -0.95139509916E+02  0.14936759680E+03  0.17770000000E+01 0.  1.
         15    1    3    3    0    0  0.34527623123E+02  0.30035223296E+01  0.13484830263E+02  0.37231388386E+02  0.17770000000E+01 0.  1.
</event>
<event>
 8    1  0.1792335E-008  0.1883979E+03  0.7546771E-02  0.1063855E+00
        -11   -1    0    0    0    0  0.00000000000E+00  0.00000000000E+00  0.18250000000E+03  0.18250000000E+03  0.00000000000E+00 0. -1.
         11   -1    0    0    0    0 -0.00000000000E+00 -0.00000000000E+00 -0.18250000000E+03  0.18250000000E+03  0.00000000000E+00 0.  1.
         25    2    1    2    0    0 -0.13734249283E+02 -0.67239452878E+02 -0.12307144769E+03  0.18839790103E+03  0.12504964713E+03 0.  0.
         23    2    1    2    0    0  0.13734249283E+02  0.67239452878E+02  0.12307144769E+03  0.17660209897E+03  0.10645161576E+03 0.  0.
        -11    1    4    4    0    0 -0.39098202593E+02  0.62117255745E+02  0.76012736068E+02  0.10566531575E+03  0.00000000000E+00 0. -1.
         11    1    4    4    0    0  0.52832451876E+02  0.51221971330E+01  0.47058711622E+02  0.70936783225E+02  0.00000000000E+00 0.  1.
        -15    1    3    3    0    0  0.88159805419E+01 -0.93325881677E+02 -0.47046963796E+02  0.10490002972E+03  0.17770000000E+01 0.  1.
         15    1    3    3    0    0 -0.22550229825E+02  0.26086428799E+02 -0.76024483895E+02  0.83497871309E+02  0.17770000000E+01 0.  1.
</event>
<event>
 7    1  0.1792335E-008  0.1834808E+03  0.7546771E-02  0.1067677E+00
        -11   -1    0    0    0    0  0.00000000000E+00  0.00000000000E+00  0.18250000000E+03  0.18250000000E+03  0.00000000000E+00 0. -1.
         11   -1    0    0    0    0 -0.00000000000E+00 -0.00000000000E+00 -0.18250000000E+03  0.18250000000E+03  0.00000000000E+00 0. -1.
         23    2    1    2    0    0  0.11537523932E+03 -0.17121718372E+02  0.61424233115E+02  0.18348083324E+03  0.12762319799E+03 0.  0.
        -11    1    3    3    0    0  0.11054875491E+03 -0.52734763469E+02  0.76607078288E+02  0.14446669836E+03  0.00000000000E+00 0. -1.
         11    1    3    3    0    0  0.48264844019E+01  0.35613045097E+02 -0.15182845173E+02  0.39014134878E+02  0.00000000000E+00 0. -1.
        -15    1    1    2    0    0 -0.12089581906E+03  0.59801962671E+01 -0.23032081071E+01  0.12107858733E+03  0.17770000000E+01 0.  1.
         15    1    1    2    0    0  0.55205797398E+01  0.11141522105E+02 -0.59121025008E+02  0.60440579435E+02  0.17770000000E+01 0. -1.
</event>
<event>
 8    1  0.1792335E-008  0.1882071E+03  0.7546771E-02  0.1064001E+00
        -11   -1    0    0    0    0  0.00000000000E+00  0.00000000000E+00  0.18250000000E+03  0.18250000000E+03  0.00000000000E+00 0. -1.
         11   -1    0    0    0    0 -0.00000000000E+00 -0.00000000000E+00 -0.18250000000E+03  0.18250000000E+03  0.00000000000E+00 0. -1.
         25    2    1    2    0    0  0.92326109106E+02  0.10289822302E+03  0.26376341996E+02  0.18820706692E+03  0.12495612789E+03 0.  0.
         23    2    1    2    0    0 -0.92326109106E+02 -0.10289822302E+03 -0.26376341996E+02  0.17679293308E+03  0.10699474309E+03 0.  0.
        -11    1    4    4    0    0 -0.58920659366E+02 -0.11450432259E+02  0.26940332253E+02  0.65791625614E+02  0.00000000000E+00 0. -1.
         11    1    4    4    0    0 -0.33405449740E+02 -0.91447790757E+02 -0.53316674249E+02  0.11100130747E+03  0.00000000000E+00 0. -1.
        -15    1    3    3    0    0  0.69329163350E+02 -0.70129555054E+01 -0.94099387191E+01  0.70337892430E+02  0.17770000000E+01 0.  1.
         15    1    3    3    0    0  0.22996945756E+02  0.10991117852E+03  0.35786280715E+02  0.11786917449E+03  0.17770000000E+01 0.  1.
</event>
<event>
 7    1  0.1792335E-008  0.1873106E+03  0.7546771E-02  0.1064689E+00
        -11   -1    0    0    0    0  0.00000000000E+00  0.00000000000E+00  0.18250000000E+03  0.18250000000E+03  0.00000000000E+00 0. -1.
         11   -1    0    0    0    0 -0.00000000000E+00 -0.00000000000E+00 -0.18250000000E+03  0.18250000000E+03  0.00000000000E+00 0. -1.
         23    2    1    2    0    0  0.36883720795E+02  0.46262052095E+02 -0.12622224293E+03  0.17768937309E+03  0.11018562690E+03 0.  0.
        -11    1    3    3    0    0  0.21432983800E+02  0.44402606406E+02  0.12009057848E+01  0.49319432529E+02  0.00000000000E+00 0. -1.
         11    1    3    3    0    0  0.15450736995E+02  0.18594456886E+01 -0.12742314871E+03  0.12836994056E+03  0.00000000000E+00 0. -1.
        -15    1    1    2    0    0 -0.54289832200E+01  0.10521708274E+02 -0.22245380939E+02  0.25262519786E+02  0.17770000000E+01 0.  1.
         15    1    1    2    0    0 -0.31454737575E+02 -0.56783760369E+02  0.14846762387E+03  0.16204810713E+03  0.17770000000E+01 0. -1.
</event>
<event>
 7    1  0.1792335E-008  0.1598389E+03  0.7546771E-02  0.1088076E+00
        -11   -1    0    0    0    0  0.00000000000E+00  0.00000000000E+00  0.18250000000E+03  0.18250000000E+03  0.00000000000E+00 0.  1.
         11   -1    0    0    0    0 -0.00000000000E+00 -0.00000000000E+00 -0.18250000000E+03  0.18250000000E+03  0.00000000000E+00 0.  1.
         25    2    1    2    0    0 -0.13490752054E+02  0.90324801013E+02 -0.36567331636E+02  0.15911493528E+03  0.12505927721E+03 0.  0.
        -11    1    1    2    0    0  0.96940227596E+02 -0.58721124013E+02  0.22486713427E+02  0.11554752448E+03  0.00000000000E+00 0.  1.
         11    1    1    2    0    0 -0.83449475542E+02 -0.31603677000E+02  0.14080618209E+02  0.90337540244E+02  0.00000000000E+00 0.  1.
        -15    1    3    3    0    0  0.54816083301E+02  0.24911555147E+02 -0.12822470206E+02  0.61587028176E+02  0.17770000000E+01 0. -1.
         15    1    3    3    0    0 -0.68306835355E+02  0.65413245866E+02 -0.23744861430E+02  0.97527907105E+02  0.17770000000E+01 0.  1.
</event>
<event>
 8    1  0.1792335E-008  0.1864909E+03  0.7546771E-02  0.1065322E+00
        -11   -1    0    0    0    0  0.00000000000E+00  0.00000000000E+00  0.18250000000E+03  0.18250000000E+03  0.00000000000E+00 0.  1.
         11   -1    0    0    0    0 -0.00000000000E+00 -0.00000000000E+00 -0.18250000000E+03  0.18250000000E+03  0.00000000000E+00 0. -1.
         25    2    1    2    0    0  0.84648201767E+02  0.28658220885E+02  0.10573711158E+03  0.18649090767E+03  0.12494762980E+03 0.  0.
         23    2    1    2    0    0 -0.84648201767E+02 -0.28658220885E+02 -0.10573711158E+03  0.17850909233E+03  0.11268783249E+03 0.  0.
        -11    1    4    4    0    0 -0.48381241609E+02  0.16928667873E+02  0.68805325999E+01  0.51717173786E+02  0.00000000000E+00 0.  1.
         11    1    4    4    0    0 -0.36266960158E+02 -0.45586888759E+02 -0.11261764418E+03  0.12679191854E+03  0.00000000000E+00 0. -1.
        -15    1    3    3    0    0  0.11593193780E+03  0.11956621400E+02  0.69256995600E+02  0.13558342142E+03  0.17770000000E+01 0.  1.
         15    1    3    3    0    0 -0.31283736029E+02  0.16701599485E+02  0.36480115982E+02  0.50907486251E+02  0.17770000000E+01 0.  1.
</event>
<event>
 7    1  0.1792335E-008  0.1610870E+03  0.7546771E-02  0.1086905E+00
        -11   -1    0    0    0    0  0.00000000000E+00  0.00000000000E+00  0.18250000000E+03  0.18250000000E+03  0.00000000000E+00 0.  1.
         11   -1    0    0    0    0 -0.00000000000E+00 -0.00000000000E+00 -0.18250000000E+03  0.18250000000E+03  0.00000000000E+00 0.  1.
         25    2    1    2    0    0 -0.18964106077E+02 -0.11753250832E+02 -0.71253490580E+02  0.14563817713E+03  0.12504256273E+03 0.  0.
        -11    1    1    2    0    0  0.10366108605E+03 -0.10497476351E+02  0.79991172484E+02  0.13135602554E+03  0.00000000000E+00 0.  1.
         11    1    1    2    0    0 -0.84696979976E+02  0.22250727183E+02 -0.87376819032E+01  0.88005797322E+02  0.00000000000E+00 0.  1.
        -15    1    3    3    0    0  0.19547785069E+02  0.35724206397E+02  0.11856209337E+02  0.42450703795E+02  0.17770000000E+01 0. -1.
         15    1    3    3    0    0 -0.38511891147E+02 -0.47477457229E+02 -0.83109699918E+02  0.10318747334E+03  0.17770000000E+01 0.  1.
</event>
<event>
 8    1  0.1792335E-008  0.1834228E+03  0.7546771E-02  0.1067723E+00
        -11   -1    0    0    0    0  0.00000000000E+00  0.00000000000E+00  0.18250000000E+03  0.18250000000E+03  0.00000000000E+00 0. -1.
         11   -1    0    0    0    0 -0.00000000000E+00 -0.00000000000E+00 -0.18250000000E+03  0.18250000000E+03  0.00000000000E+00 0.  1.
         25    2    1    2    0    0 -0.35554729303E+02 -0.11907907018E+03 -0.50561193352E+02  0.18342282366E+03  0.12507411498E+03 0.  0.
         23    2    1    2    0    0  0.35554729303E+02  0.11907907018E+03  0.50561193352E+02  0.18157717634E+03  0.12235143221E+03 0.  0.
        -11    1    4    4    0    0  0.59739218131E+02  0.74481000933E+02  0.78547879267E+02  0.12363641462E+03  0.00000000000E+00 0. -1.
         11    1    4    4    0    0 -0.24184488828E+02  0.44598069242E+02 -0.27986685916E+02  0.57940761719E+02  0.00000000000E+00 0.  1.
        -15    1    3    3    0    0  0.13728615707E+02 -0.75740212792E+02  0.27195452418E+02  0.81656629151E+02  0.17770000000E+01 0. -1.
         15    1    3    3    0    0 -0.49283345010E+02 -0.43338857383E+02 -0.77756645770E+02  0.10176619451E+03  0.17770000000E+01 0. -1.
</event>
<event>
 8    1  0.1792335E-008  0.1891560E+03  0.7546771E-02  0.1063277E+00
        -11   -1    0    0    0    0  0.00000000000E+00  0.00000000000E+00  0.18250000000E+03  0.18250000000E+03  0.00000000000E+00 0. -1.
         11   -1    0    0    0    0 -0.00000000000E+00 -0.00000000000E+00 -0.18250000000E+03  0.18250000000E+03  0.00000000000E+00 0.  1.
         25    2    1    2    0    0  0.36233845320E+02  0.10566386582E+03  0.87572577130E+02  0.18915600189E+03  0.12503316640E+03 0.  0.
         23    2    1    2    0    0 -0.36233845320E+02 -0.10566386582E+03 -0.87572577130E+02  0.17584399811E+03  0.10379986184E+03 0.  0.
        -11    1    4    4    0    0  0.44781828068E+00 -0.90690645041E+02 -0.99341596834E+02  0.13451299752E+03  0.00000000000E+00 0.  1.
         11    1    4    4    0    0 -0.36681663601E+02 -0.14973220784E+02  0.11769019704E+02  0.41331000592E+02  0.00000000000E+00 0. -1.
        -15    1    3    3    0    0  0.32332192819E+02  0.98447938206E+02  0.24961744603E+01  0.10366656088E+03  0.17770000000E+01 0. -1.
         15    1    3    3    0    0  0.39016525012E+01  0.72159276185E+01  0.85076402670E+02  0.85489441008E+02  0.17770000000E+01 0. -1.
</event>
<event>
 7    1  0.1792335E-008  0.1845838E+03  0.7546771E-02  0.1066808E+00
        -11   -1    0    0    0    0  0.00000000000E+00  0.00000000000E+00  0.18250000000E+03  0.18250000000E+03  0.00000000000E+00 0.  1.
         11   -1    0    0    0    0 -0.00000000000E+00 -0.00000000000E+00 -0.18250000000E+03  0.18250000000E+03  0.00000000000E+00 0.  1.
         25    2    1    2    0    0  0.39991321127E+01  0.11154231566E+03  0.41931186862E+02  0.17278330834E+03  0.12505265278E+03 0.  0.
        -11    1    1    2    0    0  0.29924438610E+02  0.29292750348E+02 -0.18733464024E+01  0.41917140597E+02  0.00000000000E+00 0.  1.
         11    1    1    2    0    0 -0.33923570723E+02 -0.14083506601E+03 -0.40057840460E+02  0.15029955106E+03  0.00000000000E+00 0.  1.
        -15    1    3    3    0    0 -0.57175401865E+02  0.57800393041E+02  0.31864346580E+00  0.81321407248E+02  0.17770000000E+01 0.  1.
         15    1    3    3    0    0  0.61174533978E+02  0.53741922618E+02  0.41612543396E+02  0.91461901090E+02  0.17770000000E+01 0.  1.
</event>
