<event>
 6    1  0.1943044E-004  0.2023527E+03  0.7546771E-02  0.1053666E+00
        -11   -1    0    0    0    0  0.00000000000E+00  0.00000000000E+00  0.18250000000E+03  0.18250000000E+03  0.00000000000E+00 0.  1.
         11   -1    0    0    0    0 -0.00000000000E+00 -0.00000000000E+00 -0.18250000000E+03  0.18250000000E+03  0.00000000000E+00 0. -1.
        -11    1    1    2    0    0  0.82837933224E+00  0.42679076769E+01  0.60529118772E+02  0.60685051434E+02  0.00000000000E+00 0. -1.
         11    1    1    2    0    0 -0.27993100696E+01  0.51001790176E+01  0.10179609343E+03  0.10196221163E+03  0.00000000000E+00 0.  1.
        -15    1    1    2    0    0 -0.47606984405E+02  0.30784322384E+02 -0.83214217321E+02  0.10070681785E+03  0.17770000000E+01 0.  1.
         15    1    1    2    0    0  0.49577915143E+02 -0.40152409078E+02 -0.79110994884E+02  0.10164591908E+03  0.17770000000E+01 0. -1.
</event>
<event>
 6    1  0.1943044E-004  0.1839409E+03  0.7546771E-02  0.1067314E+00
        -11   -1    0    0    0    0  0.00000000000E+00  0.00000000000E+00  0.18250000000E+03  0.18250000000E+03  0.00000000000E+00 0. -1.
         11   -1    0    0    0    0 -0.00000000000E+00 -0.00000000000E+00 -0.18250000000E+03  0.18250000000E+03  0.00000000000E+00 0.  1.
        -11    1    1    2    0    0  0.17809214448E+02 -0.87076998553E+01  0.17997056675E+03  0.18105909823E+03  0.00000000000E+00 0. -1.
         11    1    1    2    0    0  0.77092110075E+01  0.61587023080E+01 -0.39425420854E+02  0.40641424163E+02  0.00000000000E+00 0.  1.
        -15    1    1    2    0    0 -0.87964334015E+01  0.26153808136E+01 -0.28354459203E+02  0.29855494353E+02  0.17770000000E+01 0. -1.
         15    1    1    2    0    0 -0.16721992054E+02 -0.66383266276E-01 -0.11219068670E+03  0.11344398325E+03  0.17770000000E+01 0.  1.
</event>
<event>
 6    1  0.1943044E-004  0.1844764E+03  0.7546771E-02  0.1066892E+00
        -11   -1    0    0    0    0  0.00000000000E+00  0.00000000000E+00  0.18250000000E+03  0.18250000000E+03  0.00000000000E+00 0.  1.
         11   -1    0    0    0    0 -0.00000000000E+00 -0.00000000000E+00 -0.18250000000E+03  0.18250000000E+03  0.00000000000E+00 0.  1.
        -11    1    1    2    0    0  0.10448848993E+02  0.12945717141E+02  0.14981306473E+03  0.15073395239E+03  0.00000000000E+00 0.  1.
         11    1    1    2    0    0 -0.12300154793E+02 -0.82644974078E+01  0.30314275560E+02  0.33742421787E+02  0.00000000000E+00 0.  1.
        -15    1    1    2    0    0  0.53347024822E+00  0.13601606106E+01 -0.94833762390E+01  0.97584210446E+01  0.17770000000E+01 0. -1.
         15    1    1    2    0    0  0.13178355518E+01 -0.60413803439E+01 -0.17064396405E+03  0.17076520478E+03  0.17770000000E+01 0.  1.
</event>
<event>
 6    1  0.1943044E-004  0.1940520E+03  0.7546771E-02  0.1059614E+00
        -11   -1    0    0    0    0  0.00000000000E+00  0.00000000000E+00  0.18250000000E+03  0.18250000000E+03  0.00000000000E+00 0.  1.
         11   -1    0    0    0    0 -0.00000000000E+00 -0.00000000000E+00 -0.18250000000E+03  0.18250000000E+03  0.00000000000E+00 0. -1.
        -11    1    1    2    0    0 -0.23418976299E+02 -0.42651874737E+01  0.16025586515E+03  0.16201414318E+03  0.00000000000E+00 0.  1.
         11    1    1    2    0    0  0.36189007712E+01 -0.14488470716E+01  0.80385053771E+01  0.89338216529E+01  0.00000000000E+00 0. -1.
        -15    1    1    2    0    0 -0.28749724447E+02 -0.14294993358E+02 -0.22961046188E+02  0.39512793649E+02  0.17770000000E+01 0.  1.
         15    1    1    2    0    0  0.48549799975E+02  0.20009027904E+02 -0.14533332434E+03  0.15453924152E+03  0.17770000000E+01 0. -1.
</event>
<event>
 6    1  0.1943044E-004  0.1424826E+03  0.7546771E-02  0.1105693E+00
        -11   -1    0    0    0    0  0.00000000000E+00  0.00000000000E+00  0.18250000000E+03  0.18250000000E+03  0.00000000000E+00 0.  1.
         11   -1    0    0    0    0 -0.00000000000E+00 -0.00000000000E+00 -0.18250000000E+03  0.18250000000E+03  0.00000000000E+00 0.  1.
        -11    1    1    2    0    0 -0.52983216259E+02  0.67411562807E+01 -0.47628239531E+02  0.71561956332E+02  0.00000000000E+00 0.  1.
         11    1    1    2    0    0  0.57861946901E+02 -0.19988842658E+01 -0.11583451851E+03  0.12949762977E+03  0.00000000000E+00 0.  1.
        -15    1    1    2    0    0 -0.54068731316E+01  0.54784984022E-01  0.12573448839E+03  0.12586324554E+03  0.17770000000E+01 0.  1.
         15    1    1    2    0    0  0.52814249005E+00 -0.47970569989E+01  0.37728269652E+02  0.38077168360E+02  0.17770000000E+01 0. -1.
</event>
<event>
 6    1  0.1943044E-004  0.3405620E+03  0.7546771E-02  0.9850418E-01
        -11   -1    0    0    0    0  0.00000000000E+00  0.00000000000E+00  0.18250000000E+03  0.18250000000E+03  0.00000000000E+00 0.  1.
         11   -1    0    0    0    0 -0.00000000000E+00 -0.00000000000E+00 -0.18250000000E+03  0.18250000000E+03  0.00000000000E+00 0. -1.
        -11    1    1    2    0    0 -0.33760098261E+01  0.20797687422E+01 -0.32514965582E+01  0.51278758014E+01  0.00000000000E+00 0. -1.
         11    1    1    2    0    0 -0.84546786660E+01  0.15485925531E+02  0.74975607485E+01  0.19170521591E+02  0.00000000000E+00 0.  1.
        -15    1    1    2    0    0 -0.64011183284E+02  0.81701412453E+02 -0.12803171482E+03  0.16482666687E+03  0.17770000000E+01 0. -1.
         15    1    1    2    0    0  0.75841871776E+02 -0.99267106726E+02  0.12378565063E+03  0.17587493574E+03  0.17770000000E+01 0.  1.
</event>
<event>
 6    1  0.1943044E-004  0.1828518E+03  0.7546771E-02  0.1068175E+00
        -11   -1    0    0    0    0  0.00000000000E+00  0.00000000000E+00  0.18250000000E+03  0.18250000000E+03  0.00000000000E+00 0.  1.
         11   -1    0    0    0    0 -0.00000000000E+00 -0.00000000000E+00 -0.18250000000E+03  0.18250000000E+03  0.00000000000E+00 0.  1.
        -11    1    1    2    0    0  0.10458173665E+01 -0.54766555676E+01  0.18012053102E+02  0.18855279025E+02  0.00000000000E+00 0.  1.
         11    1    1    2    0    0 -0.26723662514E+01  0.23913834992E+01  0.16395735406E+03  0.16399656766E+03  0.00000000000E+00 0.  1.
        -15    1    1    2    0    0  0.58928515297E+00  0.49054724209E+01 -0.10761165353E+03  0.10773967060E+03  0.17770000000E+01 0.  1.
         15    1    1    2    0    0  0.10372637320E+01 -0.18202003525E+01 -0.74357753634E+02  0.74408482714E+02  0.17770000000E+01 0. -1.
</event>
<event>
 6    1  0.1943044E-004  0.1648721E+03  0.7546771E-02  0.1083422E+00
        -11   -1    0    0    0    0  0.00000000000E+00  0.00000000000E+00  0.18250000000E+03  0.18250000000E+03  0.00000000000E+00 0.  1.
         11   -1    0    0    0    0 -0.00000000000E+00 -0.00000000000E+00 -0.18250000000E+03  0.18250000000E+03  0.00000000000E+00 0.  1.
        -11    1    1    2    0    0 -0.30269939684E+02 -0.46382834729E+02  0.39658229332E+01  0.55528050186E+02  0.00000000000E+00 0.  1.
         11    1    1    2    0    0  0.66324819790E+02 -0.12704660824E+02  0.12300040289E+03  0.14031924044E+03  0.00000000000E+00 0.  1.
        -15    1    1    2    0    0 -0.58347845660E+02  0.48175290867E+02 -0.12231431557E+03  0.14383768375E+03  0.17770000000E+01 0.  1.
         15    1    1    2    0    0  0.22292965555E+02  0.10912204685E+02 -0.46519102589E+01  0.25315025625E+02  0.17770000000E+01 0. -1.
</event>
<event>
 6    1  0.1943044E-004  0.1858660E+03  0.7546771E-02  0.1065807E+00
        -11   -1    0    0    0    0  0.00000000000E+00  0.00000000000E+00  0.18250000000E+03  0.18250000000E+03  0.00000000000E+00 0.  1.
         11   -1    0    0    0    0 -0.00000000000E+00 -0.00000000000E+00 -0.18250000000E+03  0.18250000000E+03  0.00000000000E+00 0. -1.
        -11    1    1    2    0    0  0.71629649543E+01 -0.35160897562E+01 -0.14637148592E+03  0.14658882238E+03  0.00000000000E+00 0. -1.
         11    1    1    2    0    0  0.14956163035E+01 -0.16288862831E+01 -0.32469967544E+02  0.32545182915E+02  0.00000000000E+00 0.  1.
        -15    1    1    2    0    0 -0.26950689789E+02 -0.26335197518E+01  0.13493724899E+03  0.13763899884E+03  0.17770000000E+01 0.  1.
         15    1    1    2    0    0  0.18292108531E+02  0.77784957911E+01  0.43904204472E+02  0.48226995870E+02  0.17770000000E+01 0. -1.
</event>
<event>
 6    1  0.1943044E-004  0.1864876E+03  0.7546771E-02  0.1065324E+00
        -11   -1    0    0    0    0  0.00000000000E+00  0.00000000000E+00  0.18250000000E+03  0.18250000000E+03  0.00000000000E+00 0.  1.
         11   -1    0    0    0    0 -0.00000000000E+00 -0.00000000000E+00 -0.18250000000E+03  0.18250000000E+03  0.00000000000E+00 0.  1.
        -11    1    1    2    0    0 -0.24909977105E+02  0.14601877726E+02 -0.10435865148E+02  0.30702264963E+02  0.00000000000E+00 0.  1.
         11    1    1    2    0    0 -0.19867580490E+02  0.77802793405E+02 -0.13349554377E+03  0.15578528692E+03  0.00000000000E+00 0.  1.
        -15    1    1    2    0    0  0.38075370231E+01 -0.16420522636E+02  0.39674003615E+02  0.43142962273E+02  0.17770000000E+01 0. -1.
         15    1    1    2    0    0  0.40970020572E+02 -0.75984148495E+02  0.10425740530E+03  0.13536948584E+03  0.17770000000E+01 0.  1.
</event>
<event>
 6    1  0.1943044E-004  0.1863209E+03  0.7546771E-02  0.1065453E+00
        -11   -1    0    0    0    0  0.00000000000E+00  0.00000000000E+00  0.18250000000E+03  0.18250000000E+03  0.00000000000E+00 0. -1.
         11   -1    0    0    0    0 -0.00000000000E+00 -0.00000000000E+00 -0.18250000000E+03  0.18250000000E+03  0.00000000000E+00 0.  1.
        -11    1    1    2    0    0 -0.27406646005E+02 -0.38530390146E+02  0.17230932253E+03  0.17867909178E+03  0.00000000000E+00 0. -1.
         11    1    1    2    0    0  0.15043776181E+02  0.24173020935E+02 -0.26498653801E+02  0.38895099899E+02  0.00000000000E+00 0.  1.
        -15    1    1    2    0    0  0.13174255523E+02  0.11352453952E+02 -0.10372439909E+03  0.10518720414E+03  0.17770000000E+01 0.  1.
         15    1    1    2    0    0 -0.81138569900E+00  0.30049152591E+01 -0.42086269632E+02  0.42238604179E+02  0.17770000000E+01 0. -1.
</event>
<event>
 6    1  0.1943044E-004  0.1845004E+03  0.7546771E-02  0.1066874E+00
        -11   -1    0    0    0    0  0.00000000000E+00  0.00000000000E+00  0.18250000000E+03  0.18250000000E+03  0.00000000000E+00 0. -1.
         11   -1    0    0    0    0 -0.00000000000E+00 -0.00000000000E+00 -0.18250000000E+03  0.18250000000E+03  0.00000000000E+00 0. -1.
        -11    1    1    2    0    0 -0.59238812566E+01 -0.13903078040E+02 -0.10829641092E+03  0.10934578441E+03  0.00000000000E+00 0. -1.
         11    1    1    2    0    0  0.13588422675E+02  0.27024543407E+02 -0.68798554216E+02  0.75154588944E+02  0.00000000000E+00 0. -1.
        -15    1    1    2    0    0  0.75460633607E+01 -0.31745749152E+00  0.12595985247E+02  0.14793932028E+02  0.17770000000E+01 0.  1.
         15    1    1    2    0    0 -0.15210604779E+02 -0.12804007876E+02  0.16449897989E+03  0.16570569462E+03  0.17770000000E+01 0. -1.
</event>
<event>
 6    1  0.1943044E-004  0.1848354E+03  0.7546771E-02  0.1066611E+00
        -11   -1    0    0    0    0  0.00000000000E+00  0.00000000000E+00  0.18250000000E+03  0.18250000000E+03  0.00000000000E+00 0. -1.
         11   -1    0    0    0    0 -0.00000000000E+00 -0.00000000000E+00 -0.18250000000E+03  0.18250000000E+03  0.00000000000E+00 0. -1.
        -11    1    1    2    0    0 -0.13574503819E+02 -0.29982131682E+02 -0.55610011740E+02  0.64619414883E+02  0.00000000000E+00 0. -1.
         11    1    1    2    0    0  0.38510528245E+02 -0.33714920809E+02 -0.10877555741E+03  0.12021596633E+03  0.00000000000E+00 0. -1.
        -15    1    1    2    0    0 -0.40437502088E+01  0.33139922424E+02  0.51943620868E+02  0.61773002613E+02  0.17770000000E+01 0. -1.
         15    1    1    2    0    0 -0.20892274218E+02  0.30557130067E+02  0.11244194828E+03  0.11839161618E+03  0.17770000000E+01 0.  1.
</event>
<event>
 6    1  0.1943044E-004  0.1854787E+03  0.7546771E-02  0.1066108E+00
        -11   -1    0    0    0    0  0.00000000000E+00  0.00000000000E+00  0.18250000000E+03  0.18250000000E+03  0.00000000000E+00 0. -1.
         11   -1    0    0    0    0 -0.00000000000E+00 -0.00000000000E+00 -0.18250000000E+03  0.18250000000E+03  0.00000000000E+00 0. -1.
        -11    1    1    2    0    0  0.31095748970E+02 -0.52503534344E+01  0.16356771780E+03  0.16658004118E+03  0.00000000000E+00 0. -1.
         11    1    1    2    0    0  0.16257602399E+02 -0.40905760111E+01  0.87245962674E+01  0.18898704397E+02  0.00000000000E+00 0. -1.
        -15    1    1    2    0    0 -0.19414803155E+02 -0.68477854124E+00 -0.50131797041E+02  0.53793664187E+02  0.17770000000E+01 0.  1.
         15    1    1    2    0    0 -0.27938548214E+02  0.10025707987E+02 -0.12216051702E+03  0.12572759023E+03  0.17770000000E+01 0. -1.
</event>
<event>
 6    1  0.1943044E-004  0.1850959E+03  0.7546771E-02  0.1066407E+00
        -11   -1    0    0    0    0  0.00000000000E+00  0.00000000000E+00  0.18250000000E+03  0.18250000000E+03  0.00000000000E+00 0.  1.
         11   -1    0    0    0    0 -0.00000000000E+00 -0.00000000000E+00 -0.18250000000E+03  0.18250000000E+03  0.00000000000E+00 0.  1.
        -11    1    1    2    0    0 -0.12274470757E+01  0.26044512350E+01  0.10367371072E+03  0.10371368322E+03  0.00000000000E+00 0.  1.
         11    1    1    2    0    0  0.11388608580E+01 -0.23019381590E+01  0.76147100529E+02  0.76190398623E+02  0.00000000000E+00 0.  1.
        -15    1    1    2    0    0 -0.18832918668E+02  0.41803669424E+01 -0.46825728649E+02  0.50675051908E+02  0.17770000000E+01 0. -1.
         15    1    1    2    0    0  0.18921504886E+02 -0.44828800185E+01 -0.13299508260E+03  0.13442086625E+03  0.17770000000E+01 0.  1.
</event>
<event>
 6    1  0.1943044E-004  0.1826551E+03  0.7546771E-02  0.1068331E+00
        -11   -1    0    0    0    0  0.00000000000E+00  0.00000000000E+00  0.18250000000E+03  0.18250000000E+03  0.00000000000E+00 0. -1.
         11   -1    0    0    0    0 -0.00000000000E+00 -0.00000000000E+00 -0.18250000000E+03  0.18250000000E+03  0.00000000000E+00 0. -1.
        -11    1    1    2    0    0  0.19311761292E+01 -0.42917293966E+01  0.14701538470E+03  0.14709069216E+03  0.00000000000E+00 0. -1.
         11    1    1    2    0    0 -0.17235513071E+01  0.48487444185E+01  0.35190119633E+02  0.35564384872E+02  0.00000000000E+00 0. -1.
        -15    1    1    2    0    0 -0.34456887298E+00 -0.29245287722E+01 -0.56559492681E+02  0.56663970366E+02  0.17770000000E+01 0. -1.
         15    1    1    2    0    0  0.13694405088E+00  0.23675137503E+01 -0.12564601165E+03  0.12568095260E+03  0.17770000000E+01 0. -1.
</event>
<event>
 6    1  0.1943044E-004  0.1341569E+03  0.7546771E-02  0.1115155E+00
        -11   -1    0    0    0    0  0.00000000000E+00  0.00000000000E+00  0.18250000000E+03  0.18250000000E+03  0.00000000000E+00 0. -1.
         11   -1    0    0    0    0 -0.00000000000E+00 -0.00000000000E+00 -0.18250000000E+03  0.18250000000E+03  0.00000000000E+00 0. -1.
        -11    1    1    2    0    0 -0.13594107416E+01 -0.47282499001E+02  0.54761218671E+01  0.47617965308E+02  0.00000000000E+00 0. -1.
         11    1    1    2    0    0  0.35326431938E+02  0.98729812631E+02  0.87483093114E+02  0.13656069814E+03  0.00000000000E+00 0. -1.
        -15    1    1    2    0    0  0.32748519969E+02  0.31317703291E+02 -0.11230235120E+02  0.46717662714E+02  0.17770000000E+01 0.  1.
         15    1    1    2    0    0 -0.66715541166E+02 -0.82765016921E+02 -0.81728979860E+02  0.13410367384E+03  0.17770000000E+01 0. -1.
</event>
<event>
 6    1  0.1943044E-004  0.1832044E+03  0.7546771E-02  0.1067895E+00
        -11   -1    0    0    0    0  0.00000000000E+00  0.00000000000E+00  0.18250000000E+03  0.18250000000E+03  0.00000000000E+00 0.  1.
         11   -1    0    0    0    0 -0.00000000000E+00 -0.00000000000E+00 -0.18250000000E+03  0.18250000000E+03  0.00000000000E+00 0. -1.
        -11    1    1    2    0    0 -0.12041891629E+02 -0.19521801734E+02  0.89613149826E+02  0.92502024403E+02  0.00000000000E+00 0.  1.
         11    1    1    2    0    0  0.18595004495E+02  0.17860909904E+02 -0.17995787573E+03  0.18179555367E+03  0.00000000000E+00 0. -1.
        -15    1    1    2    0    0 -0.51604305051E+01  0.14184176523E+01  0.71339216456E+02  0.71561745963E+02  0.17770000000E+01 0.  1.
         15    1    1    2    0    0 -0.13926823608E+01  0.24247417762E+00  0.19005509453E+02  0.19140675966E+02  0.17770000000E+01 0.  1.
</event>
<event>
 6    1  0.1943044E-004  0.1862791E+03  0.7546771E-02  0.1065486E+00
        -11   -1    0    0    0    0  0.00000000000E+00  0.00000000000E+00  0.18250000000E+03  0.18250000000E+03  0.00000000000E+00 0. -1.
         11   -1    0    0    0    0 -0.00000000000E+00 -0.00000000000E+00 -0.18250000000E+03  0.18250000000E+03  0.00000000000E+00 0. -1.
        -11    1    1    2    0    0  0.10981281009E+02 -0.39129879680E+02  0.93273069780E+02  0.10174282069E+03  0.00000000000E+00 0. -1.
         11    1    1    2    0    0  0.44075799451E+02  0.12037851778E+01  0.72126658411E+02  0.84536264701E+02  0.00000000000E+00 0. -1.
        -15    1    1    2    0    0 -0.72737619120E+01  0.47406404852E+01 -0.31394404971E+02  0.32621276447E+02  0.17770000000E+01 0.  1.
         15    1    1    2    0    0 -0.47783318547E+02  0.33185454017E+02 -0.13400532322E+03  0.14609963816E+03  0.17770000000E+01 0. -1.
</event>
<event>
 6    1  0.1943044E-004  0.1830691E+03  0.7546771E-02  0.1068003E+00
        -11   -1    0    0    0    0  0.00000000000E+00  0.00000000000E+00  0.18250000000E+03  0.18250000000E+03  0.00000000000E+00 0.  1.
         11   -1    0    0    0    0 -0.00000000000E+00 -0.00000000000E+00 -0.18250000000E+03  0.18250000000E+03  0.00000000000E+00 0. -1.
        -11    1    1    2    0    0  0.33243538458E+01  0.42305705033E+00  0.12257173743E+03  0.12261754002E+03  0.00000000000E+00 0.  1.
         11    1    1    2    0    0  0.35858703051E+01  0.10527603193E+01  0.59195480017E+02  0.59313334290E+02  0.00000000000E+00 0. -1.
        -15    1    1    2    0    0  0.30981502736E+01  0.70101794121E+01 -0.91244206414E+02  0.91582771762E+02  0.17770000000E+01 0. -1.
         15    1    1    2    0    0 -0.10008374424E+02 -0.84859967817E+01 -0.90523011028E+02  0.91486353926E+02  0.17770000000E+01 0.  1.
</event>
