<event>
 6    1  0.6610953E-005  0.6112009E+03  0.7546771E-02  0.9180474E-01
        -11   -1    0    0    0    0  0.00000000000E+00  0.00000000000E+00  0.50000000000E+03  0.50000000000E+03  0.00000000000E+00 0.  1.
         11   -1    0    0    0    0 -0.00000000000E+00 -0.00000000000E+00 -0.50000000000E+03  0.50000000000E+03  0.00000000000E+00 0. -1.
        -11    1    1    2    0    0  0.37815204432E+00 -0.13006400345E+01  0.26486575045E+02  0.26521186269E+02  0.00000000000E+00 0. -1.
         11    1    1    2    0    0  0.97360203963E+01 -0.62352722586E+01  0.36209334199E+03  0.36227787267E+03  0.00000000000E+00 0.  1.
        -15    1    1    2    0    0  0.18998393349E+03 -0.12488747434E+03 -0.23104938439E+03  0.32415698664E+03  0.17770000000E+01 0.  1.
         15    1    1    2    0    0 -0.20009810593E+03  0.13242338663E+03 -0.15753053265E+03  0.28704395442E+03  0.17770000000E+01 0. -1.
</event>
<event>
 6    1  0.6610953E-005  0.5010275E+03  0.7546771E-02  0.9397513E-01
        -11   -1    0    0    0    0  0.00000000000E+00  0.00000000000E+00  0.50000000000E+03  0.50000000000E+03  0.00000000000E+00 0.  1.
         11   -1    0    0    0    0 -0.00000000000E+00 -0.00000000000E+00 -0.50000000000E+03  0.50000000000E+03  0.00000000000E+00 0.  1.
        -11    1    1    2    0    0 -0.59581328796E+01  0.15714431176E+02  0.48745197703E+03  0.48774160435E+03  0.00000000000E+00 0.  1.
         11    1    1    2    0    0 -0.31905154533E+00 -0.10426226232E+01  0.11177800116E+02  0.11230853541E+02  0.00000000000E+00 0.  1.
        -15    1    1    2    0    0 -0.50818047004E+01 -0.56731720200E+01 -0.12950524765E+02  0.15128894225E+02  0.17770000000E+01 0. -1.
         15    1    1    2    0    0  0.11358989125E+02 -0.89986365329E+01 -0.48567925239E+03  0.48589864789E+03  0.17770000000E+01 0.  1.
</event>
<event>
 6    1  0.6610953E-005  0.4080907E+03  0.7546771E-02  0.9632793E-01
        -11   -1    0    0    0    0  0.00000000000E+00  0.00000000000E+00  0.50000000000E+03  0.50000000000E+03  0.00000000000E+00 0. -1.
         11   -1    0    0    0    0 -0.00000000000E+00 -0.00000000000E+00 -0.50000000000E+03  0.50000000000E+03  0.00000000000E+00 0.  1.
        -11    1    1    2    0    0  0.11232640409E+03 -0.52275685166E+02 -0.11205494873E+03  0.16705172807E+03  0.00000000000E+00 0. -1.
         11    1    1    2    0    0 -0.14603048801E+03  0.62268675425E+02 -0.34218113093E+03  0.37721375602E+03  0.00000000000E+00 0.  1.
        -15    1    1    2    0    0  0.18449719810E+02 -0.65909572072E+00  0.26438209226E+03  0.26503183772E+03  0.17770000000E+01 0.  1.
         15    1    1    2    0    0  0.15254364112E+02 -0.93338945381E+01  0.18985398740E+03  0.19070267820E+03  0.17770000000E+01 0. -1.
</event>
<event>
 6    1  0.6610953E-005  0.3773603E+03  0.7546771E-02  0.9725765E-01
        -11   -1    0    0    0    0  0.00000000000E+00  0.00000000000E+00  0.50000000000E+03  0.50000000000E+03  0.00000000000E+00 0.  1.
         11   -1    0    0    0    0 -0.00000000000E+00 -0.00000000000E+00 -0.50000000000E+03  0.50000000000E+03  0.00000000000E+00 0. -1.
        -11    1    1    2    0    0 -0.53352614605E+02  0.21374993174E+03 -0.29995364412E+02  0.22234040724E+03  0.00000000000E+00 0. -1.
         11    1    1    2    0    0 -0.76066856224E+02 -0.21783694039E+03  0.35178982933E+03  0.42070795480E+03  0.00000000000E+00 0.  1.
        -15    1    1    2    0    0  0.11496483105E+03  0.13575789959E+02 -0.31898242245E+03  0.33934371663E+03  0.17770000000E+01 0. -1.
         15    1    1    2    0    0  0.14454639778E+02 -0.94887813172E+01 -0.28120424615E+01  0.17607921337E+02  0.17770000000E+01 0.  1.
</event>
<event>
 6    1  0.6610953E-005  0.5181554E+03  0.7546771E-02  0.9360078E-01
        -11   -1    0    0    0    0  0.00000000000E+00  0.00000000000E+00  0.50000000000E+03  0.50000000000E+03  0.00000000000E+00 0.  1.
         11   -1    0    0    0    0 -0.00000000000E+00 -0.00000000000E+00 -0.50000000000E+03  0.50000000000E+03  0.00000000000E+00 0. -1.
        -11    1    1    2    0    0 -0.34626083522E+02  0.92970692824E+01  0.20428354346E+02  0.41264013603E+02  0.00000000000E+00 0. -1.
         11    1    1    2    0    0 -0.32610204687E+03  0.28643827766E+03  0.75642761621E+02  0.44058059339E+03  0.00000000000E+00 0.  1.
        -15    1    1    2    0    0  0.39483186565E+02 -0.13651670491E+03 -0.70647876524E+02  0.15871361923E+03  0.17770000000E+01 0.  1.
         15    1    1    2    0    0  0.32124494383E+03 -0.15921864203E+03 -0.25423239443E+02  0.35944177378E+03  0.17770000000E+01 0. -1.
</event>
<event>
 6    1  0.6610953E-005  0.1000000E+04  0.7546771E-02  0.8684367E-01
        -11   -1    0    0    0    0  0.00000000000E+00  0.00000000000E+00  0.50000000000E+03  0.50000000000E+03  0.00000000000E+00 0. -1.
         11   -1    0    0    0    0 -0.00000000000E+00 -0.00000000000E+00 -0.50000000000E+03  0.50000000000E+03  0.00000000000E+00 0.  1.
        -11    1    1    2    0    0 -0.13151041660E+01  0.64740850562E+01  0.20793046236E+03  0.20803538270E+03  0.00000000000E+00 0. -1.
         11    1    1    2    0    0 -0.55038319025E+01  0.92897163334E+01  0.21721646782E+03  0.21748467736E+03  0.00000000000E+00 0.  1.
        -15    1    1    2    0    0 -0.12476425991E+03 -0.28240867653E+02  0.13793327210E+01  0.12794032767E+03  0.17770000000E+01 0. -1.
         15    1    1    2    0    0  0.13158319598E+03  0.12477066263E+02 -0.42652626290E+03  0.44653961227E+03  0.17770000000E+01 0.  1.
</event>
<event>
 6    1  0.6610953E-005  0.5001358E+03  0.7546771E-02  0.9399506E-01
        -11   -1    0    0    0    0  0.00000000000E+00  0.00000000000E+00  0.50000000000E+03  0.50000000000E+03  0.00000000000E+00 0.  1.
         11   -1    0    0    0    0 -0.00000000000E+00 -0.00000000000E+00 -0.50000000000E+03  0.50000000000E+03  0.00000000000E+00 0.  1.
        -11    1    1    2    0    0 -0.91762056017E+01  0.71610843918E+01  0.47643662085E+03  0.47657878422E+03  0.00000000000E+00 0.  1.
         11    1    1    2    0    0 -0.94006137998E+00  0.15830312058E+01  0.23212471338E+02  0.23285371563E+02  0.00000000000E+00 0.  1.
        -15    1    1    2    0    0 -0.44624108502E+01 -0.47605769843E+01 -0.13475388309E+03  0.13492347068E+03  0.17770000000E+01 0.  1.
         15    1    1    2    0    0  0.14578677832E+02 -0.39835386133E+01 -0.36489520911E+03  0.36521237354E+03  0.17770000000E+01 0. -1.
</event>
<event>
 6    1  0.6610955E-005  0.9959267E+03  0.7546771E-02  0.8688256E-01
        -11   -1    0    0    0    0  0.00000000000E+00  0.00000000000E+00  0.50000000000E+03  0.50000000000E+03  0.00000000000E+00 0.  1.
         11   -1    0    0    0    0 -0.00000000000E+00 -0.00000000000E+00 -0.50000000000E+03  0.50000000000E+03  0.00000000000E+00 0. -1.
        -11    1    1    2    0    0  0.10380551558E+01 -0.15836820630E+01 -0.32805488517E+00  0.19217771440E+01  0.00000000000E+00 0.  1.
         11    1    1    2    0    0  0.20945231447E+00 -0.21398883372E+01 -0.76929294575E-01  0.21514902937E+01  0.00000000000E+00 0. -1.
        -15    1    1    2    0    0  0.41684144108E+02 -0.11421679808E+03 -0.48218400346E+03  0.49728021854E+03  0.17770000000E+01 0. -1.
         15    1    1    2    0    0 -0.42931651579E+02  0.11794036848E+03  0.48258898764E+03  0.49864651402E+03  0.17770000000E+01 0.  1.
</event>
<event>
 6    1  0.6610953E-005  0.5022379E+03  0.7546771E-02  0.9394816E-01
        -11   -1    0    0    0    0  0.00000000000E+00  0.00000000000E+00  0.50000000000E+03  0.50000000000E+03  0.00000000000E+00 0. -1.
         11   -1    0    0    0    0 -0.00000000000E+00 -0.00000000000E+00 -0.50000000000E+03  0.50000000000E+03  0.00000000000E+00 0.  1.
        -11    1    1    2    0    0 -0.27171812457E+02  0.59696183736E+02  0.36933821561E+03  0.37511686080E+03  0.00000000000E+00 0. -1.
         11    1    1    2    0    0  0.19032540812E+01  0.27638958285E+02  0.11947517681E+03  0.12264522928E+03  0.00000000000E+00 0.  1.
        -15    1    1    2    0    0  0.20099933331E+02 -0.62763817124E+02 -0.45670394750E+03  0.46143792372E+03  0.17770000000E+01 0.  1.
         15    1    1    2    0    0  0.51686250456E+01 -0.24571324897E+02 -0.32109444923E+02  0.40799986204E+02  0.17770000000E+01 0. -1.
</event>
<event>
 6    1  0.6610953E-005  0.5001390E+03  0.7546771E-02  0.9399499E-01
        -11   -1    0    0    0    0  0.00000000000E+00  0.00000000000E+00  0.50000000000E+03  0.50000000000E+03  0.00000000000E+00 0. -1.
         11   -1    0    0    0    0 -0.00000000000E+00 -0.00000000000E+00 -0.50000000000E+03  0.50000000000E+03  0.00000000000E+00 0.  1.
        -11    1    1    2    0    0  0.62597475849E+01 -0.52033867916E+01  0.44937955717E+03  0.44945327463E+03  0.00000000000E+00 0. -1.
         11    1    1    2    0    0 -0.47190143714E+01 -0.29415348985E+01  0.50379794431E+02  0.50685751559E+02  0.00000000000E+00 0.  1.
        -15    1    1    2    0    0 -0.24243131756E+01  0.32613786210E+01 -0.16285306562E+03  0.16291345125E+03  0.17770000000E+01 0.  1.
         15    1    1    2    0    0  0.88357996202E+00  0.48835430691E+01 -0.33690628597E+03  0.33694752257E+03  0.17770000000E+01 0.  1.
</event>
<event>
 6    1  0.6610953E-005  0.5000037E+03  0.7546771E-02  0.9399801E-01
        -11   -1    0    0    0    0  0.00000000000E+00  0.00000000000E+00  0.50000000000E+03  0.50000000000E+03  0.00000000000E+00 0. -1.
         11   -1    0    0    0    0 -0.00000000000E+00 -0.00000000000E+00 -0.50000000000E+03  0.50000000000E+03  0.00000000000E+00 0.  1.
        -11    1    1    2    0    0 -0.16109896706E+02  0.39617908868E+01 -0.27788804433E+03  0.27838281150E+03  0.00000000000E+00 0.  1.
         11    1    1    2    0    0 -0.84136404908E+01 -0.92410029723E+01 -0.22126825921E+03  0.22162091060E+03  0.00000000000E+00 0. -1.
        -15    1    1    2    0    0  0.64284284639E+01  0.81000984248E+01  0.16402866333E+03  0.16436391456E+03  0.17770000000E+01 0. -1.
         15    1    1    2    0    0  0.18095108732E+02 -0.28208863393E+01  0.33512764021E+03  0.33563236334E+03  0.17770000000E+01 0. -1.
</event>
