<event>
 6    1  0.1291066E-008  0.2786344E+03  0.7546771E-02  0.1010391E+00
        -11   -1    0    0    0    0  0.00000000000E+00  0.00000000000E+00  0.50000000000E+03  0.50000000000E+03  0.00000000000E+00 0.  1.
         11   -1    0    0    0    0 -0.00000000000E+00 -0.00000000000E+00 -0.50000000000E+03  0.50000000000E+03  0.00000000000E+00 0. -1.
        -11    1    1    2    0    0  0.22431165702E+03  0.20699297357E+03  0.26327725603E+03  0.40308401622E+03  0.00000000000E+00 0.  1.
         11    1    1    2    0    0 -0.14835313584E+03 -0.60572709668E+02  0.29965068725E+02  0.16302027915E+03  0.00000000000E+00 0. -1.
        -15    1    1    2    0    0 -0.12771327026E+03  0.31090329408E+02 -0.15365903558E+03  0.20221657925E+03  0.17770000000E+01 0.  1.
         15    1    1    2    0    0  0.51754749071E+02 -0.17751059331E+03 -0.13958328918E+03  0.23167912538E+03  0.17770000000E+01 0. -1.
</event>
<event>
 7    1  0.1291066E-008  0.3838354E+03  0.7546771E-02  0.9705406E-01
        -11   -1    0    0    0    0  0.00000000000E+00  0.00000000000E+00  0.50000000000E+03  0.50000000000E+03  0.00000000000E+00 0.  1.
         11   -1    0    0    0    0 -0.00000000000E+00 -0.00000000000E+00 -0.50000000000E+03  0.50000000000E+03  0.00000000000E+00 0.  1.
         23    2    1    2    0    0 -0.20848465892E+03 -0.11068782882E+03  0.33881239205E+03  0.42632067800E+03  0.10600865544E+03 0.  0.
        -11    1    1    2    0    0  0.21667026072E+03 -0.28929023822E+01 -0.47273043717E+00  0.21669008800E+03  0.00000000000E+00 0.  1.
         11    1    1    2    0    0 -0.81856017948E+01  0.11358073120E+03 -0.33833966161E+03  0.35698923401E+03  0.00000000000E+00 0.  1.
        -15    1    3    3    0    0 -0.20863736784E+03 -0.11484715593E+03  0.28109014009E+03  0.36842128748E+03  0.17770000000E+01 0.  1.
         15    1    3    3    0    0  0.15270891783E+00  0.41593271124E+01  0.57722251961E+02  0.57899390519E+02  0.17770000000E+01 0. -1.
</event>
<event>
 7    1  0.1291066E-008  0.5114303E+03  0.7546771E-02  0.9374591E-01
        -11   -1    0    0    0    0  0.00000000000E+00  0.00000000000E+00  0.50000000000E+03  0.50000000000E+03  0.00000000000E+00 0.  1.
         11   -1    0    0    0    0 -0.00000000000E+00 -0.00000000000E+00 -0.50000000000E+03  0.50000000000E+03  0.00000000000E+00 0. -1.
         23    2    1    2    0    0 -0.12959823500E+03 -0.18695775964E+03 -0.23466015870E+03  0.33509356877E+03  0.73982452950E+02 0.  0.
        -11    1    1    2    0    0  0.13336932182E+03  0.33629164538E+03  0.32836088145E+03  0.48856966261E+03  0.00000000000E+00 0.  1.
         11    1    1    2    0    0 -0.37710868157E+01 -0.14933388574E+03 -0.93700722744E+02  0.17633676862E+03  0.00000000000E+00 0. -1.
        -15    1    3    3    0    0 -0.13412411063E+03 -0.17294962284E+03 -0.19643447212E+03  0.29409268719E+03  0.17770000000E+01 0. -1.
         15    1    3    3    0    0  0.45258756233E+01 -0.14008136796E+02 -0.38225686585E+02  0.41000881582E+02  0.17770000000E+01 0.  1.
</event>
<event>
 6    1  0.1291066E-008  0.5196240E+03  0.7546771E-02  0.9356939E-01
        -11   -1    0    0    0    0  0.00000000000E+00  0.00000000000E+00  0.50000000000E+03  0.50000000000E+03  0.00000000000E+00 0.  1.
         11   -1    0    0    0    0 -0.00000000000E+00 -0.00000000000E+00 -0.50000000000E+03  0.50000000000E+03  0.00000000000E+00 0. -1.
        -11    1    1    2    0    0 -0.28277001030E+02 -0.32107267676E+03  0.99079707609E+02  0.33720029805E+03  0.00000000000E+00 0.  1.
         11    1    1    2    0    0  0.93262048496E+02  0.40135488188E+03 -0.24693642530E+03  0.48037604961E+03  0.00000000000E+00 0. -1.
        -15    1    1    2    0    0 -0.48796602194E+02 -0.74347466776E+02  0.13018331550E+03  0.15766898099E+03  0.17770000000E+01 0. -1.
         15    1    1    2    0    0 -0.16188445272E+02 -0.59347383424E+01  0.17673402193E+02  0.24754671348E+02  0.17770000000E+01 0.  1.
</event>
<event>
 7    1  0.1291066E-008  0.3326041E+03  0.7546771E-02  0.9879606E-01
        -11   -1    0    0    0    0  0.00000000000E+00  0.00000000000E+00  0.50000000000E+03  0.50000000000E+03  0.00000000000E+00 0. -1.
         11   -1    0    0    0    0 -0.00000000000E+00 -0.00000000000E+00 -0.50000000000E+03  0.50000000000E+03  0.00000000000E+00 0. -1.
         23    2    1    2    0    0 -0.14715161459E+03 -0.91447396674E+02 -0.28160515286E+03  0.33910042574E+03  0.75308781590E+02 0.  0.
        -11    1    1    2    0    0  0.35959405586E+03  0.99000824611E+01  0.11091707100E+03  0.37644188567E+03  0.00000000000E+00 0. -1.
         11    1    1    2    0    0 -0.21244244128E+03  0.81547314213E+02  0.17068808186E+03  0.28445768859E+03  0.00000000000E+00 0. -1.
        -15    1    3    3    0    0  0.75827374588E+01  0.83047799200E+00 -0.61644996789E+01  0.99672657412E+01  0.17770000000E+01 0. -1.
         15    1    3    3    0    0 -0.15473435205E+03 -0.92277874666E+02 -0.27544065318E+03  0.32913316000E+03  0.17770000000E+01 0.  1.
</event>
<event>
 7    1  0.1291066E-008  0.5372402E+03  0.7546771E-02  0.9320133E-01
        -11   -1    0    0    0    0  0.00000000000E+00  0.00000000000E+00  0.50000000000E+03  0.50000000000E+03  0.00000000000E+00 0.  1.
         11   -1    0    0    0    0 -0.00000000000E+00 -0.00000000000E+00 -0.50000000000E+03  0.50000000000E+03  0.00000000000E+00 0. -1.
         23    2    1    2    0    0 -0.10335726781E+03  0.15284152882E+02 -0.13045274318E+03  0.18421108560E+03  0.77456282609E+02 0.  0.
        -11    1    1    2    0    0  0.12190024430E+03  0.63458362731E+02 -0.32518134741E+03  0.35302909521E+03  0.00000000000E+00 0. -1.
         11    1    1    2    0    0 -0.18542976491E+02 -0.78742515613E+02  0.45563409060E+03  0.46275981919E+03  0.00000000000E+00 0.  1.
        -15    1    3    3    0    0  0.60698302720E+01  0.15982061854E+02 -0.34989006135E+02  0.38982783635E+02  0.17770000000E+01 0. -1.
         15    1    3    3    0    0 -0.10942709808E+03 -0.69790897209E+00 -0.95463737047E+02  0.14522830196E+03  0.17770000000E+01 0.  1.
</event>
<event>
 7    1  0.1291066E-008  0.5288227E+03  0.7546771E-02  0.9337530E-01
        -11   -1    0    0    0    0  0.00000000000E+00  0.00000000000E+00  0.50000000000E+03  0.50000000000E+03  0.00000000000E+00 0. -1.
         11   -1    0    0    0    0 -0.00000000000E+00 -0.00000000000E+00 -0.50000000000E+03  0.50000000000E+03  0.00000000000E+00 0. -1.
         23    2    1    2    0    0  0.52385443658E+02  0.52358462455E+02 -0.17427086345E+03  0.21593046580E+03  0.10377855710E+03 0.  0.
        -11    1    1    2    0    0 -0.62467396809E+02  0.22982594323E+03 -0.20292714652E+03  0.31289226043E+03  0.00000000000E+00 0. -1.
         11    1    1    2    0    0  0.10081953150E+02 -0.28218440568E+03  0.37719800997E+03  0.47117727377E+03  0.00000000000E+00 0. -1.
        -15    1    3    3    0    0  0.77749004637E+02  0.62196521960E+02 -0.12731655870E+03  0.16163532693E+03  0.17770000000E+01 0.  1.
         15    1    3    3    0    0 -0.25363560978E+02 -0.98380595047E+01 -0.46954304753E+02  0.54295138863E+02  0.17770000000E+01 0. -1.
</event>
<event>
 7    1  0.1291066E-008  0.5313401E+03  0.7546771E-02  0.9332291E-01
        -11   -1    0    0    0    0  0.00000000000E+00  0.00000000000E+00  0.50000000000E+03  0.50000000000E+03  0.00000000000E+00 0.  1.
         11   -1    0    0    0    0 -0.00000000000E+00 -0.00000000000E+00 -0.50000000000E+03  0.50000000000E+03  0.00000000000E+00 0.  1.
         23    2    1    2    0    0  0.22996692572E+03 -0.23324518429E+03  0.12086618170E+02  0.34581054835E+03  0.11023042272E+03 0.  0.
        -11    1    1    2    0    0 -0.39624292229E+03  0.23179071439E+03 -0.94375179418E+02  0.46865985878E+03  0.00000000000E+00 0.  1.
         11    1    1    2    0    0  0.16627599657E+03  0.14544698970E+01  0.82288561248E+02  0.18552959287E+03  0.00000000000E+00 0.  1.
        -15    1    3    3    0    0  0.20489060006E+03 -0.21515118483E+03  0.45134121001E+02  0.30051694949E+03  0.17770000000E+01 0.  1.
         15    1    3    3    0    0  0.25076325660E+02 -0.18093999465E+02 -0.33047502832E+02  0.45293598860E+02  0.17770000000E+01 0. -1.
</event>
<event>
 7    1  0.1291066E-008  0.4195684E+03  0.7546771E-02  0.9600286E-01
        -11   -1    0    0    0    0  0.00000000000E+00  0.00000000000E+00  0.50000000000E+03  0.50000000000E+03  0.00000000000E+00 0. -1.
         11   -1    0    0    0    0 -0.00000000000E+00 -0.00000000000E+00 -0.50000000000E+03  0.50000000000E+03  0.00000000000E+00 0.  1.
         23    2    1    2    0    0 -0.29008499716E+02  0.49415693997E+02  0.96774842969E+02  0.15336006544E+03  0.10426186058E+03 0.  0.
        -11    1    1    2    0    0 -0.31786607316E+03 -0.25420544759E+03  0.65718716346E+02  0.41228412500E+03  0.00000000000E+00 0. -1.
         11    1    1    2    0    0  0.34687457287E+03  0.20478975359E+03 -0.16249355932E+03  0.43435580956E+03  0.00000000000E+00 0.  1.
        -15    1    3    3    0    0 -0.81818732351E+01  0.11331880352E+02  0.10765693775E+03  0.10857499038E+03  0.17770000000E+01 0. -1.
         15    1    3    3    0    0 -0.20826626480E+02  0.38083813645E+02 -0.10882094778E+02  0.44785075059E+02  0.17770000000E+01 0.  1.
</event>
<event>
 6    1  0.1291066E-008  0.5584849E+03  0.7546771E-02  0.9277687E-01
        -11   -1    0    0    0    0  0.00000000000E+00  0.00000000000E+00  0.50000000000E+03  0.50000000000E+03  0.00000000000E+00 0.  1.
         11   -1    0    0    0    0 -0.00000000000E+00 -0.00000000000E+00 -0.50000000000E+03  0.50000000000E+03  0.00000000000E+00 0. -1.
        -11    1    1    2    0    0 -0.24421799582E+03 -0.59701450087E+02 -0.36294476596E+03  0.44151511386E+03  0.00000000000E+00 0. -1.
         11    1    1    2    0    0  0.22003370667E+03  0.69348770423E+02  0.35020106917E+03  0.41936246003E+03  0.00000000000E+00 0.  1.
        -15    1    1    2    0    0 -0.35559604762E+02 -0.53592532571E+02  0.67313200823E+01  0.64692452707E+02  0.17770000000E+01 0.  1.
         15    1    1    2    0    0  0.59743893917E+02  0.43945212236E+02  0.60123767092E+01  0.74429973408E+02  0.17770000000E+01 0. -1.
</event>
<event>
 7    1  0.1291066E-008  0.4233739E+03  0.7546771E-02  0.9589753E-01
        -11   -1    0    0    0    0  0.00000000000E+00  0.00000000000E+00  0.50000000000E+03  0.50000000000E+03  0.00000000000E+00 0. -1.
         11   -1    0    0    0    0 -0.00000000000E+00 -0.00000000000E+00 -0.50000000000E+03  0.50000000000E+03  0.00000000000E+00 0. -1.
         23    2    1    2    0    0  0.31322077396E+03  0.15819997658E+03  0.12796807809E+03  0.39169224292E+03  0.11795125403E+03 0.  0.
        -11    1    1    2    0    0 -0.34744986435E+03 -0.28646181179E+03 -0.46870317933E+02  0.45274562897E+03  0.00000000000E+00 0. -1.
         11    1    1    2    0    0  0.34229090396E+02  0.12826183520E+03 -0.81097760154E+02  0.15556212811E+03  0.00000000000E+00 0. -1.
        -15    1    3    3    0    0  0.32072215718E+03  0.16144039139E+03  0.11648819219E+03  0.37748954784E+03  0.17770000000E+01 0. -1.
         15    1    3    3    0    0 -0.75013832259E+01 -0.32404148073E+01  0.11479885894E+02  0.14202695081E+02  0.17770000000E+01 0.  1.
</event>
<event>
 7    1  0.1291066E-008  0.3684238E+03  0.7546771E-02  0.9754594E-01
        -11   -1    0    0    0    0  0.00000000000E+00  0.00000000000E+00  0.50000000000E+03  0.50000000000E+03  0.00000000000E+00 0. -1.
         11   -1    0    0    0    0 -0.00000000000E+00 -0.00000000000E+00 -0.50000000000E+03  0.50000000000E+03  0.00000000000E+00 0.  1.
         23    2    1    2    0    0  0.52191304332E+02  0.32876404615E+01 -0.19536808815E+03  0.23590066193E+03  0.12143183933E+03 0.  0.
        -11    1    1    2    0    0  0.14081821628E+03  0.27012564165E+03  0.28549768699E+03  0.41750037317E+03  0.00000000000E+00 0. -1.
         11    1    1    2    0    0 -0.19300952061E+03 -0.27341328212E+03 -0.90129598842E+02  0.34659896490E+03  0.00000000000E+00 0.  1.
        -15    1    3    3    0    0 -0.11523979917E+01  0.12023576753E+02  0.14627163786E+02  0.19052718139E+02  0.17770000000E+01 0. -1.
         15    1    3    3    0    0  0.53343702323E+02 -0.87359362912E+01 -0.20999525194E+03  0.21684794379E+03  0.17770000000E+01 0.  1.
</event>
<event>
 7    1  0.1291066E-008  0.4286185E+03  0.7546771E-02  0.9575428E-01
        -11   -1    0    0    0    0  0.00000000000E+00  0.00000000000E+00  0.50000000000E+03  0.50000000000E+03  0.00000000000E+00 0. -1.
         11   -1    0    0    0    0 -0.00000000000E+00 -0.00000000000E+00 -0.50000000000E+03  0.50000000000E+03  0.00000000000E+00 0.  1.
         23    2    1    2    0    0  0.36841986650E+02  0.39484615078E+02  0.69874357641E+02  0.13822615163E+03  0.10633755842E+03 0.  0.
        -11    1    1    2    0    0  0.25973841992E+02  0.37811383459E+03 -0.18827545743E+03  0.42319305316E+03  0.00000000000E+00 0. -1.
         11    1    1    2    0    0 -0.62815828641E+02 -0.41759844967E+03  0.11840109979E+03  0.43858079521E+03  0.00000000000E+00 0.  1.
        -15    1    3    3    0    0  0.31283511207E+02  0.13629398834E+02  0.95456992046E+02  0.10138842954E+03  0.17770000000E+01 0. -1.
         15    1    3    3    0    0  0.55584754431E+01  0.25855216243E+02 -0.25582634405E+02  0.36837722084E+02  0.17770000000E+01 0.  1.
</event>
<event>
 7    1  0.1291066E-008  0.4646672E+03  0.7546771E-02  0.9482537E-01
        -11   -1    0    0    0    0  0.00000000000E+00  0.00000000000E+00  0.50000000000E+03  0.50000000000E+03  0.00000000000E+00 0.  1.
         11   -1    0    0    0    0 -0.00000000000E+00 -0.00000000000E+00 -0.50000000000E+03  0.50000000000E+03  0.00000000000E+00 0. -1.
         23    2    1    2    0    0 -0.61159906725E+02  0.33430678401E+03 -0.33448589072E+03  0.48799071197E+03  0.10369457003E+03 0.  0.
        -11    1    1    2    0    0 -0.26171383063E+01 -0.28937318098E+03  0.32212103912E+03  0.43301922720E+03  0.00000000000E+00 0.  1.
         11    1    1    2    0    0  0.63777045031E+02 -0.44933603031E+02  0.12364851607E+02  0.78990060827E+02  0.00000000000E+00 0. -1.
        -15    1    3    3    0    0 -0.14688754248E+02  0.14109754426E+03 -0.72975651645E+02  0.15953958744E+03  0.17770000000E+01 0.  1.
         15    1    3    3    0    0 -0.46471152476E+02  0.19320923975E+03 -0.26151023908E+03  0.32845112454E+03  0.17770000000E+01 0. -1.
</event>
<event>
 7    1  0.1291066E-008  0.3510542E+03  0.7546771E-02  0.9813216E-01
        -11   -1    0    0    0    0  0.00000000000E+00  0.00000000000E+00  0.50000000000E+03  0.50000000000E+03  0.00000000000E+00 0. -1.
         11   -1    0    0    0    0 -0.00000000000E+00 -0.00000000000E+00 -0.50000000000E+03  0.50000000000E+03  0.00000000000E+00 0. -1.
         23    2    1    2    0    0 -0.18452405474E+03 -0.10542850958E+03  0.90453572596E+02  0.26087725276E+03  0.12128806537E+03 0.  0.
        -11    1    1    2    0    0  0.38733649376E+03 -0.49337351514E+02 -0.22504721462E+03  0.45067724866E+03  0.00000000000E+00 0. -1.
         11    1    1    2    0    0 -0.20281243902E+03  0.15476586109E+03  0.13459364202E+03  0.28844549858E+03  0.00000000000E+00 0. -1.
        -15    1    3    3    0    0 -0.53790531762E+02 -0.21325509278E+02 -0.29071454773E+02  0.64780443537E+02  0.17770000000E+01 0.  1.
         15    1    3    3    0    0 -0.13073352298E+03 -0.84103000300E+02  0.11952502737E+03  0.19609680922E+03  0.17770000000E+01 0. -1.
</event>
<event>
 6    1  0.1291066E-008  0.3851123E+03  0.7546771E-02  0.9701442E-01
        -11   -1    0    0    0    0  0.00000000000E+00  0.00000000000E+00  0.50000000000E+03  0.50000000000E+03  0.00000000000E+00 0. -1.
         11   -1    0    0    0    0 -0.00000000000E+00 -0.00000000000E+00 -0.50000000000E+03  0.50000000000E+03  0.00000000000E+00 0. -1.
        -11    1    1    2    0    0  0.16189856488E+03  0.31262919506E+03 -0.15897132488E+03  0.38629009960E+03  0.00000000000E+00 0. -1.
         11    1    1    2    0    0 -0.69662159392E+02 -0.39167598578E+03  0.50303588380E+02  0.40099045536E+03  0.00000000000E+00 0. -1.
        -15    1    1    2    0    0 -0.97109246242E+02  0.87034672038E+02  0.13319274422E+03  0.18641004448E+03  0.17770000000E+01 0. -1.
         15    1    1    2    0    0  0.48728407572E+01 -0.79878813206E+01 -0.24525007720E+02  0.26309400558E+02  0.17770000000E+01 0.  1.
</event>
<event>
 7    1  0.1291066E-008  0.3720860E+03  0.7546771E-02  0.9742675E-01
        -11   -1    0    0    0    0  0.00000000000E+00  0.00000000000E+00  0.50000000000E+03  0.50000000000E+03  0.00000000000E+00 0.  1.
         11   -1    0    0    0    0 -0.00000000000E+00 -0.00000000000E+00 -0.50000000000E+03  0.50000000000E+03  0.00000000000E+00 0.  1.
         23    2    1    2    0    0 -0.18757607390E+03 -0.88327033061E+02  0.65975108410E+02  0.22467344373E+03  0.56026717913E+02 0.  0.
        -11    1    1    2    0    0  0.33793386562E+03 -0.23786733205E+03 -0.40824223655E+02  0.41526712178E+03  0.00000000000E+00 0.  1.
         11    1    1    2    0    0 -0.15035779172E+03  0.32619436511E+03 -0.25150884755E+02  0.36005943449E+03  0.00000000000E+00 0.  1.
        -15    1    3    3    0    0 -0.73250609696E+01  0.72620316396E+01  0.57106913159E+01  0.11923227166E+02  0.17770000000E+01 0. -1.
         15    1    3    3    0    0 -0.18025101293E+03 -0.95589064701E+02  0.60264417094E+02  0.21275021657E+03  0.17770000000E+01 0.  1.
</event>
<event>
 7    1  0.1291066E-008  0.3911281E+03  0.7546771E-02  0.9682984E-01
        -11   -1    0    0    0    0  0.00000000000E+00  0.00000000000E+00  0.50000000000E+03  0.50000000000E+03  0.00000000000E+00 0.  1.
         11   -1    0    0    0    0 -0.00000000000E+00 -0.00000000000E+00 -0.50000000000E+03  0.50000000000E+03  0.00000000000E+00 0. -1.
         23    2    1    2    0    0  0.88263857846E+02 -0.99609614829E+02  0.99026458024E+02  0.20034791708E+03  0.11234084084E+03 0.  0.
        -11    1    1    2    0    0 -0.29308899671E+03  0.24171466519E+03  0.18431400297E+03  0.42225441508E+03  0.00000000000E+00 0.  1.
         11    1    1    2    0    0  0.20482513887E+03 -0.14210505036E+03 -0.28334046100E+03  0.37739766784E+03  0.00000000000E+00 0. -1.
        -15    1    3    3    0    0  0.21091529552E+02  0.22160813401E+02  0.37056457057E+02  0.48086307906E+02  0.17770000000E+01 0.  1.
         15    1    3    3    0    0  0.67172328294E+02 -0.12177042823E+03  0.61970000967E+02  0.15226160917E+03  0.17770000000E+01 0. -1.
</event>
<event>
 6    1  0.1291066E-008  0.5436025E+03  0.7546771E-02  0.9307206E-01
        -11   -1    0    0    0    0  0.00000000000E+00  0.00000000000E+00  0.50000000000E+03  0.50000000000E+03  0.00000000000E+00 0. -1.
         11   -1    0    0    0    0 -0.00000000000E+00 -0.00000000000E+00 -0.50000000000E+03  0.50000000000E+03  0.00000000000E+00 0. -1.
        -11    1    1    2    0    0  0.15832618445E+01  0.35095599418E+03  0.29176373322E+03  0.45639751598E+03  0.00000000000E+00 0. -1.
         11    1    1    2    0    0 -0.11608292489E+03 -0.12184595312E+03 -0.78108199678E+02  0.18553321158E+03  0.00000000000E+00 0. -1.
        -15    1    1    2    0    0  0.13692187242E+03 -0.21205985913E+03 -0.16422348770E+03  0.30114696519E+03  0.17770000000E+01 0.  1.
         15    1    1    2    0    0 -0.22422209378E+02 -0.17050181926E+02 -0.49432045844E+02  0.56922307248E+02  0.17770000000E+01 0. -1.
</event>
<event>
 6    1  0.1291066E-008  0.5146521E+03  0.7546771E-02  0.9367608E-01
        -11   -1    0    0    0    0  0.00000000000E+00  0.00000000000E+00  0.50000000000E+03  0.50000000000E+03  0.00000000000E+00 0. -1.
         11   -1    0    0    0    0 -0.00000000000E+00 -0.00000000000E+00 -0.50000000000E+03  0.50000000000E+03  0.00000000000E+00 0. -1.
        -11    1    1    2    0    0  0.24101987590E+03  0.19711418712E+02 -0.42081283200E+03  0.48534787543E+03  0.00000000000E+00 0. -1.
         11    1    1    2    0    0 -0.17403588311E+03 -0.41729185103E+02  0.39939408089E+03  0.43765905149E+03  0.00000000000E+00 0. -1.
        -15    1    1    2    0    0 -0.58421868383E+02  0.10758827128E+02  0.14639604049E+02  0.61207375390E+02  0.17770000000E+01 0.  1.
         15    1    1    2    0    0 -0.85621244022E+01  0.11258939262E+02  0.67791470612E+01  0.15785697687E+02  0.17770000000E+01 0. -1.
</event>
<event>
 6    1  0.1291066E-008  0.5388397E+03  0.7546771E-02  0.9316865E-01
        -11   -1    0    0    0    0  0.00000000000E+00  0.00000000000E+00  0.50000000000E+03  0.50000000000E+03  0.00000000000E+00 0.  1.
         11   -1    0    0    0    0 -0.00000000000E+00 -0.00000000000E+00 -0.50000000000E+03  0.50000000000E+03  0.00000000000E+00 0. -1.
        -11    1    1    2    0    0  0.11180283747E+03 -0.15131085827E+03 -0.42103916262E+03  0.46116030483E+03  0.00000000000E+00 0. -1.
         11    1    1    2    0    0  0.61216468697E+02  0.13993393448E+02  0.12126623363E+03  0.13656050131E+03  0.00000000000E+00 0.  1.
        -15    1    1    2    0    0 -0.14022625238E+03  0.14014671110E+03  0.14917113479E+03  0.24811224813E+03  0.17770000000E+01 0.  1.
         15    1    1    2    0    0 -0.32793053789E+02 -0.28292462733E+01  0.15060179420E+03  0.15416694573E+03  0.17770000000E+01 0. -1.
</event>
<event>
 7    1  0.1291066E-008  0.4854307E+03  0.7546771E-02  0.9433013E-01
        -11   -1    0    0    0    0  0.00000000000E+00  0.00000000000E+00  0.50000000000E+03  0.50000000000E+03  0.00000000000E+00 0.  1.
         11   -1    0    0    0    0 -0.00000000000E+00 -0.00000000000E+00 -0.50000000000E+03  0.50000000000E+03  0.00000000000E+00 0.  1.
         23    2    1    2    0    0  0.43299869275E+03 -0.62995584835E+02  0.15208514434E+03  0.47877688915E+03  0.12100044140E+03 0.  0.
        -11    1    1    2    0    0  0.64170837776E+01 -0.42914645191E+02  0.26482869190E+01  0.43472510391E+02  0.00000000000E+00 0.  1.
         11    1    1    2    0    0 -0.43941577653E+03  0.10591023003E+03 -0.15473343126E+03  0.47775060046E+03  0.00000000000E+00 0.  1.
        -15    1    3    3    0    0  0.22100491040E+03 -0.88986190002E+02  0.10332197909E+03  0.25969270596E+03  0.17770000000E+01 0. -1.
         15    1    3    3    0    0  0.21199378235E+03  0.25990605168E+02  0.48763165248E+02  0.21908418320E+03  0.17770000000E+01 0.  1.
</event>
<event>
 7    1  0.1291066E-008  0.4096001E+03  0.7546771E-02  0.9628453E-01
        -11   -1    0    0    0    0  0.00000000000E+00  0.00000000000E+00  0.50000000000E+03  0.50000000000E+03  0.00000000000E+00 0.  1.
         11   -1    0    0    0    0 -0.00000000000E+00 -0.00000000000E+00 -0.50000000000E+03  0.50000000000E+03  0.00000000000E+00 0.  1.
         23    2    1    2    0    0  0.29125494184E+03  0.21603713072E+03  0.10219977807E+02  0.37921636967E+03  0.11044964498E+03 0.  0.
        -11    1    1    2    0    0  0.73982913944E+02 -0.12798242136E+02 -0.16003203586E+03  0.17676967799E+03  0.00000000000E+00 0.  1.
         11    1    1    2    0    0 -0.36523785579E+03 -0.20323888859E+03  0.14981205805E+03  0.44401395234E+03  0.00000000000E+00 0.  1.
        -15    1    3    3    0    0  0.29096197237E+03  0.18374458602E+03 -0.33446578577E+01  0.34414428184E+03  0.17770000000E+01 0.  1.
         15    1    3    3    0    0  0.29296946969E+00  0.32292544707E+02  0.13564635665E+02  0.35072087826E+02  0.17770000000E+01 0. -1.
</event>
<event>
 7    1  0.1291066E-008  0.5378845E+03  0.7546771E-02  0.9318815E-01
        -11   -1    0    0    0    0  0.00000000000E+00  0.00000000000E+00  0.50000000000E+03  0.50000000000E+03  0.00000000000E+00 0.  1.
         11   -1    0    0    0    0 -0.00000000000E+00 -0.00000000000E+00 -0.50000000000E+03  0.50000000000E+03  0.00000000000E+00 0. -1.
         23    2    1    2    0    0 -0.13704890782E+03  0.14293473810E+02 -0.13188004685E+03  0.20588454009E+03  0.77520259049E+02 0.  0.
        -11    1    1    2    0    0 -0.10205833203E+03 -0.26223541113E+03 -0.17618364182E+03  0.33199998439E+03  0.00000000000E+00 0. -1.
         11    1    1    2    0    0  0.23910723985E+03  0.24794193732E+03  0.30806368868E+03  0.46211547552E+03  0.00000000000E+00 0.  1.
        -15    1    3    3    0    0 -0.11485442784E+03 -0.11612875016E+02 -0.69484893995E+02  0.13475053500E+03  0.17770000000E+01 0. -1.
         15    1    3    3    0    0 -0.22194479978E+02  0.25906348825E+02 -0.62395152860E+02  0.71134005092E+02  0.17770000000E+01 0.  1.
</event>
