<event>
 7    1  0.3965397E-009  0.1155067E+03  0.7546771E-02  0.1139412E+00
        -11   -1    0    0    0    0  0.00000000000E+00  0.00000000000E+00  0.18250000000E+03  0.18250000000E+03  0.00000000000E+00 0. -1.
         11   -1    0    0    0    0 -0.00000000000E+00 -0.00000000000E+00 -0.18250000000E+03  0.18250000000E+03  0.00000000000E+00 0.  1.
         23    2    1    2    0    0 -0.86830409488E+00  0.75577904221E+02  0.45407196365E+02  0.11773140010E+03  0.78013431718E+02 0.  0.
        -11    1    1    2    0    0 -0.59355563547E+02 -0.79985404001E+02  0.66741435149E+02  0.11989648428E+03  0.00000000000E+00 0. -1.
         11    1    1    2    0    0  0.60223867641E+02  0.44074997801E+01 -0.11214863151E+03  0.12737211562E+03  0.00000000000E+00 0.  1.
        -15    1    3    3    0    0  0.35216820968E+01  0.42180103256E+02  0.65841206419E+02  0.78292946982E+02  0.17770000000E+01 0.  1.
         15    1    3    3    0    0 -0.43899861916E+01  0.33397800965E+02 -0.20434010054E+02  0.39438453113E+02  0.17770000000E+01 0. -1.
</event>
<event>
 6    1  0.3965397E-009  0.1444921E+03  0.7546771E-02  0.1103515E+00
        -11   -1    0    0    0    0  0.00000000000E+00  0.00000000000E+00  0.18250000000E+03  0.18250000000E+03  0.00000000000E+00 0. -1.
         11   -1    0    0    0    0 -0.00000000000E+00 -0.00000000000E+00 -0.18250000000E+03  0.18250000000E+03  0.00000000000E+00 0.  1.
        -11    1    1    2    0    0  0.19145077891E+02 -0.76663031037E+02 -0.12133456116E+03  0.14479582199E+03  0.00000000000E+00 0.  1.
         11    1    1    2    0    0 -0.19831907447E+02  0.11505989755E+03  0.91378944416E+02  0.14826394052E+03  0.00000000000E+00 0. -1.
        -15    1    1    2    0    0 -0.16211520527E+02 -0.26432831977E+02  0.38504241736E+02  0.49469610518E+02  0.17770000000E+01 0.  1.
         15    1    1    2    0    0  0.16898350083E+02 -0.11964034537E+02 -0.85486249947E+01  0.22470626966E+02  0.17770000000E+01 0. -1.
</event>
<event>
 7    1  0.3965397E-009  0.1524487E+03  0.7546771E-02  0.1095261E+00
        -11   -1    0    0    0    0  0.00000000000E+00  0.00000000000E+00  0.18250000000E+03  0.18250000000E+03  0.00000000000E+00 0.  1.
         11   -1    0    0    0    0 -0.00000000000E+00 -0.00000000000E+00 -0.18250000000E+03  0.18250000000E+03  0.00000000000E+00 0.  1.
         23    2    1    2    0    0  0.11147653541E+03  0.79169597568E+02  0.60826855567E+02  0.16409849993E+03  0.67331777019E+02 0.  0.
        -11    1    1    2    0    0 -0.57874578307E+02 -0.44558580176E+01  0.35251324249E+02  0.67911540596E+02  0.00000000000E+00 0.  1.
         11    1    1    2    0    0 -0.53601957104E+02 -0.74713739550E+02 -0.96078179815E+02  0.13298995947E+03  0.00000000000E+00 0.  1.
        -15    1    3    3    0    0  0.12181118969E+02 -0.11568299125E+02  0.13043074871E+02  0.21342088348E+02  0.17770000000E+01 0. -1.
         15    1    3    3    0    0  0.99295416442E+02  0.90737896693E+02  0.47783780696E+02  0.14275641159E+03  0.17770000000E+01 0.  1.
</event>
<event>
 6    1  0.3965397E-009  0.1355536E+03  0.7546771E-02  0.1113516E+00
        -11   -1    0    0    0    0  0.00000000000E+00  0.00000000000E+00  0.18250000000E+03  0.18250000000E+03  0.00000000000E+00 0. -1.
         11   -1    0    0    0    0 -0.00000000000E+00 -0.00000000000E+00 -0.18250000000E+03  0.18250000000E+03  0.00000000000E+00 0.  1.
        -11    1    1    2    0    0 -0.14356995238E+02 -0.16057763367E+03 -0.12476453617E+02  0.16170022153E+03  0.00000000000E+00 0. -1.
         11    1    1    2    0    0  0.51552467635E+02  0.62845518998E+02  0.32519382449E+02  0.87548423242E+02  0.00000000000E+00 0.  1.
        -15    1    1    2    0    0 -0.23791946387E+02  0.75724904224E+02  0.52930575875E+01  0.79570673117E+02  0.17770000000E+01 0. -1.
         15    1    1    2    0    0 -0.13403526010E+02  0.22007210449E+02 -0.25335986419E+02  0.36180682112E+02  0.17770000000E+01 0.  1.
</event>
<event>
 6    1  0.3965397E-009  0.1207844E+03  0.7546771E-02  0.1132059E+00
        -11   -1    0    0    0    0  0.00000000000E+00  0.00000000000E+00  0.18250000000E+03  0.18250000000E+03  0.00000000000E+00 0. -1.
         11   -1    0    0    0    0 -0.00000000000E+00 -0.00000000000E+00 -0.18250000000E+03  0.18250000000E+03  0.00000000000E+00 0. -1.
        -11    1    1    2    0    0 -0.94895036846E+02 -0.55667560276E+02  0.77926185329E+02  0.13482001203E+03  0.00000000000E+00 0. -1.
         11    1    1    2    0    0  0.47535391319E+02 -0.12852472186E+02  0.11807291720E+02  0.50638045054E+02  0.00000000000E+00 0. -1.
        -15    1    1    2    0    0  0.18448793889E+02  0.10629387200E+03 -0.61284727015E+02  0.12408755262E+03  0.17770000000E+01 0.  1.
         15    1    1    2    0    0  0.28910851638E+02 -0.37773839533E+02 -0.28448750035E+02  0.55454390296E+02  0.17770000000E+01 0. -1.
</event>
<event>
 6    1  0.3965397E-009  0.1320275E+03  0.7546771E-02  0.1117698E+00
        -11   -1    0    0    0    0  0.00000000000E+00  0.00000000000E+00  0.18250000000E+03  0.18250000000E+03  0.00000000000E+00 0. -1.
         11   -1    0    0    0    0 -0.00000000000E+00 -0.00000000000E+00 -0.18250000000E+03  0.18250000000E+03  0.00000000000E+00 0. -1.
        -11    1    1    2    0    0 -0.13039874681E+02 -0.62774079306E+02 -0.14576866666E+03  0.15924549458E+03  0.00000000000E+00 0. -1.
         11    1    1    2    0    0 -0.38513427635E+02  0.32365179807E+02  0.10322403979E+03  0.11483027198E+03  0.00000000000E+00 0. -1.
        -15    1    1    2    0    0  0.41581772350E+02  0.36933264127E+02  0.10415613143E+02  0.56610533622E+02  0.17770000000E+01 0.  1.
         15    1    1    2    0    0  0.99715299661E+01 -0.65243646279E+01  0.32129013723E+02  0.34313699822E+02  0.17770000000E+01 0. -1.
</event>
<event>
 7    1  0.3965397E-009  0.1386389E+03  0.7546771E-02  0.1109970E+00
        -11   -1    0    0    0    0  0.00000000000E+00  0.00000000000E+00  0.18250000000E+03  0.18250000000E+03  0.00000000000E+00 0.  1.
         11   -1    0    0    0    0 -0.00000000000E+00 -0.00000000000E+00 -0.18250000000E+03  0.18250000000E+03  0.00000000000E+00 0.  1.
         23    2    1    2    0    0 -0.26108658745E+02 -0.51066556911E+02 -0.92018164842E+01  0.81703156479E+02  0.57456740734E+02 0.  0.
        -11    1    1    2    0    0 -0.11551595936E+03  0.47986670188E+02 -0.43082424501E+02  0.13229796931E+03  0.00000000000E+00 0.  1.
         11    1    1    2    0    0  0.14162461811E+03  0.30798867238E+01  0.52284240985E+02  0.15099887421E+03  0.00000000000E+00 0.  1.
        -15    1    3    3    0    0 -0.29540415941E+02 -0.61527967280E+02 -0.17636244849E+01  0.68297840609E+02  0.17770000000E+01 0. -1.
         15    1    3    3    0    0  0.34317571955E+01  0.10461410368E+02 -0.74381919993E+01  0.13405315870E+02  0.17770000000E+01 0.  1.
</event>
<event>
 7    1  0.3965397E-009  0.1382615E+03  0.7546771E-02  0.1110399E+00
        -11   -1    0    0    0    0  0.00000000000E+00  0.00000000000E+00  0.18250000000E+03  0.18250000000E+03  0.00000000000E+00 0.  1.
         11   -1    0    0    0    0 -0.00000000000E+00 -0.00000000000E+00 -0.18250000000E+03  0.18250000000E+03  0.00000000000E+00 0.  1.
         23    2    1    2    0    0 -0.83786298651E+01 -0.38756675272E+02 -0.10778567837E+03  0.13391242218E+03  0.68865833583E+02 0.  0.
        -11    1    1    2    0    0 -0.34645832668E+02  0.11246485942E+03  0.75613226801E+02  0.13987865596E+03  0.00000000000E+00 0.  1.
         11    1    1    2    0    0  0.43024462533E+02 -0.73708184149E+02  0.32172451572E+02  0.91208921861E+02  0.00000000000E+00 0.  1.
        -15    1    3    3    0    0 -0.26259483177E+02  0.94003112105E+01 -0.34532675592E+02  0.44425102364E+02  0.17770000000E+01 0.  1.
         15    1    3    3    0    0  0.17880853311E+02 -0.48156986483E+02 -0.73253002781E+02  0.89487319815E+02  0.17770000000E+01 0. -1.
</event>
<event>
 7    1  0.3965397E-009  0.1833449E+03  0.7546771E-02  0.1067784E+00
        -11   -1    0    0    0    0  0.00000000000E+00  0.00000000000E+00  0.18250000000E+03  0.18250000000E+03  0.00000000000E+00 0. -1.
         11   -1    0    0    0    0 -0.00000000000E+00 -0.00000000000E+00 -0.18250000000E+03  0.18250000000E+03  0.00000000000E+00 0. -1.
         23    2    1    2    0    0  0.48733214994E+02 -0.51603325114E+02  0.12806867734E+03  0.17998111155E+03  0.10466033153E+03 0.  0.
        -11    1    1    2    0    0  0.21174906178E+02 -0.19012321650E+02 -0.88129177908E+01  0.29791148789E+02  0.00000000000E+00 0. -1.
         11    1    1    2    0    0 -0.69908121172E+02  0.70615646764E+02 -0.11925575955E+03  0.15522773966E+03  0.00000000000E+00 0. -1.
        -15    1    3    3    0    0  0.33987048483E+02 -0.55644951281E+02  0.14384276607E+03  0.15794106226E+03  0.17770000000E+01 0. -1.
         15    1    3    3    0    0  0.14746166511E+02  0.40416261668E+01 -0.15774088730E+02  0.22040049299E+02  0.17770000000E+01 0.  1.
</event>
<event>
 7    1  0.3965397E-009  0.1373079E+03  0.7546771E-02  0.1111487E+00
        -11   -1    0    0    0    0  0.00000000000E+00  0.00000000000E+00  0.18250000000E+03  0.18250000000E+03  0.00000000000E+00 0. -1.
         11   -1    0    0    0    0 -0.00000000000E+00 -0.00000000000E+00 -0.18250000000E+03  0.18250000000E+03  0.00000000000E+00 0. -1.
         23    2    1    2    0    0  0.47587675248E+02  0.15198479550E+02  0.17522535404E+02  0.85327994143E+02  0.66919703536E+02 0.  0.
        -11    1    1    2    0    0  0.51021863131E+02  0.26728316180E+02 -0.11892873307E+03  0.13214263866E+03  0.00000000000E+00 0. -1.
         11    1    1    2    0    0 -0.98609538379E+02 -0.41926795730E+02  0.10140619767E+03  0.14752936719E+03  0.00000000000E+00 0. -1.
        -15    1    3    3    0    0  0.39513410240E+02  0.39290006744E+02  0.21094120273E+02  0.59608169388E+02  0.17770000000E+01 0.  1.
         15    1    3    3    0    0  0.80742650085E+01 -0.24091527194E+02 -0.35715848689E+01  0.25719824755E+02  0.17770000000E+01 0. -1.
</event>
<event>
 7    1  0.3965397E-009  0.1685399E+03  0.7546771E-02  0.1080144E+00
        -11   -1    0    0    0    0  0.00000000000E+00  0.00000000000E+00  0.18250000000E+03  0.18250000000E+03  0.00000000000E+00 0. -1.
         11   -1    0    0    0    0 -0.00000000000E+00 -0.00000000000E+00 -0.18250000000E+03  0.18250000000E+03  0.00000000000E+00 0. -1.
         23    2    1    2    0    0 -0.50823706227E+01  0.72678341494E+02 -0.13166329932E+03  0.16806699205E+03  0.74855311203E+02 0.  0.
        -11    1    1    2    0    0 -0.46215611295E+01  0.35923366702E+02  0.22473525404E+02  0.42625185590E+02  0.00000000000E+00 0. -1.
         11    1    1    2    0    0  0.97039317522E+01 -0.10860170820E+03  0.10918977391E+03  0.15430782236E+03  0.00000000000E+00 0. -1.
        -15    1    3    3    0    0 -0.26758977655E+02  0.73530864623E+02 -0.79585785728E+02  0.11162385926E+03  0.17770000000E+01 0. -1.
         15    1    3    3    0    0  0.21676607033E+02 -0.85252312839E+00 -0.52077513590E+02  0.56443132788E+02  0.17770000000E+01 0.  1.
</event>
<event>
 7    1  0.3965397E-009  0.1390672E+03  0.7546771E-02  0.1109486E+00
        -11   -1    0    0    0    0  0.00000000000E+00  0.00000000000E+00  0.18250000000E+03  0.18250000000E+03  0.00000000000E+00 0.  1.
         11   -1    0    0    0    0 -0.00000000000E+00 -0.00000000000E+00 -0.18250000000E+03  0.18250000000E+03  0.00000000000E+00 0.  1.
         23    2    1    2    0    0 -0.37207423226E+01  0.33457682751E+01 -0.45971454723E+02  0.83047530690E+02  0.68981733928E+02 0.  0.
        -11    1    1    2    0    0 -0.11855497938E+03  0.44389022937E+02 -0.30260422635E+02  0.13015898613E+03  0.00000000000E+00 0.  1.
         11    1    1    2    0    0  0.12227572170E+03 -0.47734791212E+02  0.76231877358E+02  0.15179348318E+03  0.00000000000E+00 0.  1.
        -15    1    3    3    0    0 -0.13482656260E+02  0.46866723399E+01  0.15278724041E+02  0.20984376444E+02  0.17770000000E+01 0.  1.
         15    1    3    3    0    0  0.97619139375E+01 -0.13409040648E+01 -0.61250178763E+02  0.62063154246E+02  0.17770000000E+01 0. -1.
</event>
<event>
 7    1  0.3965397E-009  0.1535522E+03  0.7546771E-02  0.1094160E+00
        -11   -1    0    0    0    0  0.00000000000E+00  0.00000000000E+00  0.18250000000E+03  0.18250000000E+03  0.00000000000E+00 0. -1.
         11   -1    0    0    0    0 -0.00000000000E+00 -0.00000000000E+00 -0.18250000000E+03  0.18250000000E+03  0.00000000000E+00 0.  1.
         23    2    1    2    0    0 -0.45266322456E+02 -0.47813821756E+02  0.73801560882E+02  0.14355311651E+03  0.10404626554E+03 0.  0.
        -11    1    1    2    0    0  0.93099427480E+02 -0.18549048519E+02 -0.97699068154E+02  0.13622290012E+03  0.00000000000E+00 0.  1.
         11    1    1    2    0    0 -0.47833105024E+02  0.66362870275E+02  0.23897507273E+02  0.85223983369E+02  0.00000000000E+00 0. -1.
        -15    1    3    3    0    0 -0.72513602939E+02 -0.15039927755E+02  0.23756242768E+02  0.77794208252E+02  0.17770000000E+01 0. -1.
         15    1    3    3    0    0  0.27247280484E+02 -0.32773894001E+02  0.50045318114E+02  0.65758908262E+02  0.17770000000E+01 0.  1.
</event>
<event>
 7    1  0.3965397E-009  0.1670958E+03  0.7546771E-02  0.1081424E+00
        -11   -1    0    0    0    0  0.00000000000E+00  0.00000000000E+00  0.18250000000E+03  0.18250000000E+03  0.00000000000E+00 0.  1.
         11   -1    0    0    0    0 -0.00000000000E+00 -0.00000000000E+00 -0.18250000000E+03  0.18250000000E+03  0.00000000000E+00 0. -1.
         23    2    1    2    0    0  0.41829673871E+01  0.17413174766E+00  0.10284577805E+03  0.14640348711E+03  0.10411147601E+03 0.  0.
        -11    1    1    2    0    0  0.31179797124E+02  0.16431349635E+02  0.49811619969E+02  0.61019394323E+02  0.00000000000E+00 0.  1.
         11    1    1    2    0    0 -0.35362764512E+02 -0.16605481383E+02 -0.15265739802E+03  0.15757711857E+03  0.00000000000E+00 0. -1.
        -15    1    3    3    0    0 -0.33075161853E+02 -0.69185053218E+01  0.10301941938E+03  0.10843426832E+03  0.17770000000E+01 0.  1.
         15    1    3    3    0    0  0.37258129240E+02  0.70926370694E+01 -0.17364132764E+00  0.37969218788E+02  0.17770000000E+01 0. -1.
</event>
<event>
 7    1  0.3965397E-009  0.1536486E+03  0.7546771E-02  0.1094065E+00
        -11   -1    0    0    0    0  0.00000000000E+00  0.00000000000E+00  0.18250000000E+03  0.18250000000E+03  0.00000000000E+00 0.  1.
         11   -1    0    0    0    0 -0.00000000000E+00 -0.00000000000E+00 -0.18250000000E+03  0.18250000000E+03  0.00000000000E+00 0. -1.
         23    2    1    2    0    0 -0.74393136163E+02  0.44397182806E+02  0.10152478310E+03  0.15164809644E+03  0.72002882033E+02 0.  0.
        -11    1    1    2    0    0  0.42536910343E+02  0.52735076723E+02  0.21100505270E+01  0.67785170736E+02  0.00000000000E+00 0.  1.
         11    1    1    2    0    0  0.31856225820E+02 -0.97132259529E+02 -0.10363483363E+03  0.14556673282E+03  0.00000000000E+00 0. -1.
        -15    1    3    3    0    0 -0.31692265806E+02  0.86861316250E+01 -0.31700393068E+01  0.33061389456E+02  0.17770000000E+01 0. -1.
         15    1    3    3    0    0 -0.42700870357E+02  0.35711051181E+02  0.10469482241E+03  0.11858670698E+03  0.17770000000E+01 0.  1.
</event>
<event>
 7    1  0.3965397E-009  0.1565580E+03  0.7546771E-02  0.1091212E+00
        -11   -1    0    0    0    0  0.00000000000E+00  0.00000000000E+00  0.18250000000E+03  0.18250000000E+03  0.00000000000E+00 0. -1.
         11   -1    0    0    0    0 -0.00000000000E+00 -0.00000000000E+00 -0.18250000000E+03  0.18250000000E+03  0.00000000000E+00 0. -1.
         23    2    1    2    0    0  0.11456748455E+02 -0.12776006937E+02 -0.11489751244E+03  0.15825254593E+03  0.10746137209E+03 0.  0.
        -11    1    1    2    0    0  0.75918463258E+02  0.17736718816E+02  0.26467107728E+02  0.82332934171E+02  0.00000000000E+00 0. -1.
         11    1    1    2    0    0 -0.87375211713E+02 -0.49607118790E+01  0.88430404707E+02  0.12441451990E+03  0.00000000000E+00 0. -1.
        -15    1    3    3    0    0 -0.25833696703E+02 -0.55384465435E+01  0.95304456839E+01  0.28143230081E+02  0.17770000000E+01 0.  1.
         15    1    3    3    0    0  0.37290445158E+02 -0.72375603938E+01 -0.12442795812E+03  0.13010931585E+03  0.17770000000E+01 0. -1.
</event>
<event>
 7    1  0.3965397E-009  0.1380793E+03  0.7546771E-02  0.1110606E+00
        -11   -1    0    0    0    0  0.00000000000E+00  0.00000000000E+00  0.18250000000E+03  0.18250000000E+03  0.00000000000E+00 0. -1.
         11   -1    0    0    0    0 -0.00000000000E+00 -0.00000000000E+00 -0.18250000000E+03  0.18250000000E+03  0.00000000000E+00 0. -1.
         23    2    1    2    0    0  0.86422268143E+01 -0.13246634353E+02  0.90980118485E+02  0.11727293408E+03  0.72286912382E+02 0.  0.
        -11    1    1    2    0    0  0.88368679006E+02 -0.50716421994E+01  0.28264817559E+02  0.92917409001E+02  0.00000000000E+00 0. -1.
         11    1    1    2    0    0 -0.97010905820E+02  0.18318276552E+02 -0.11924493604E+03  0.15480965692E+03  0.00000000000E+00 0. -1.
        -15    1    3    3    0    0 -0.12343570992E+02 -0.26367447631E+01 -0.83130204896E+01  0.15217759574E+02  0.17770000000E+01 0.  1.
         15    1    3    3    0    0  0.20985797806E+02 -0.10609889589E+02  0.99293138975E+02  0.10205517450E+03  0.17770000000E+01 0. -1.
</event>
<event>
 7    1  0.3965397E-009  0.1574918E+03  0.7546771E-02  0.1090311E+00
        -11   -1    0    0    0    0  0.00000000000E+00  0.00000000000E+00  0.18250000000E+03  0.18250000000E+03  0.00000000000E+00 0. -1.
         11   -1    0    0    0    0 -0.00000000000E+00 -0.00000000000E+00 -0.18250000000E+03  0.18250000000E+03  0.00000000000E+00 0.  1.
         23    2    1    2    0    0 -0.42194242287E+02  0.10871004423E+03 -0.69424070337E+02  0.15545414452E+03  0.75815972645E+02 0.  0.
        -11    1    1    2    0    0  0.99740007717E+02 -0.83474589147E+02  0.67837102176E+02  0.14668997445E+03  0.00000000000E+00 0. -1.
         11    1    1    2    0    0 -0.57545765430E+02 -0.25235455080E+02  0.15869681601E+01  0.62855881029E+02  0.00000000000E+00 0.  1.
        -15    1    3    3    0    0 -0.48647475219E+02  0.10944273901E+03 -0.41556772059E+02  0.12678490841E+03  0.17770000000E+01 0.  1.
         15    1    3    3    0    0  0.64532329314E+01 -0.73269478211E+00 -0.27867298278E+02  0.28669236112E+02  0.17770000000E+01 0. -1.
</event>
<event>
 7    1  0.3965397E-009  0.1587357E+03  0.7546771E-02  0.1089121E+00
        -11   -1    0    0    0    0  0.00000000000E+00  0.00000000000E+00  0.18250000000E+03  0.18250000000E+03  0.00000000000E+00 0.  1.
         11   -1    0    0    0    0 -0.00000000000E+00 -0.00000000000E+00 -0.18250000000E+03  0.18250000000E+03  0.00000000000E+00 0. -1.
         23    2    1    2    0    0 -0.11138739897E+03 -0.29213082797E+02 -0.61878602693E+02  0.16886153115E+03  0.10688638069E+03 0.  0.
        -11    1    1    2    0    0  0.64345942979E+02  0.88818082701E+02  0.43688259585E+02  0.11805810526E+03  0.00000000000E+00 0.  1.
         11    1    1    2    0    0  0.47041455987E+02 -0.59604999904E+02  0.18190343109E+02  0.78080363584E+02  0.00000000000E+00 0. -1.
        -15    1    3    3    0    0 -0.49793223033E+02 -0.29029135230E+02  0.24585325887E+02  0.62686934286E+02  0.17770000000E+01 0.  1.
         15    1    3    3    0    0 -0.61594175934E+02 -0.18394756775E+00 -0.86463928580E+02  0.10617459687E+03  0.17770000000E+01 0. -1.
</event>
<event>
 7    1  0.3965397E-009  0.1296895E+03  0.7546771E-02  0.1120551E+00
        -11   -1    0    0    0    0  0.00000000000E+00  0.00000000000E+00  0.18250000000E+03  0.18250000000E+03  0.00000000000E+00 0. -1.
         11   -1    0    0    0    0 -0.00000000000E+00 -0.00000000000E+00 -0.18250000000E+03  0.18250000000E+03  0.00000000000E+00 0.  1.
         23    2    1    2    0    0 -0.36551661987E+02  0.73575012353E+01 -0.80030927703E+02  0.10667990750E+03  0.59879015170E+02 0.  0.
        -11    1    1    2    0    0 -0.20876473764E+02 -0.57275677907E+02  0.14561805502E+03  0.15786370192E+03  0.00000000000E+00 0. -1.
         11    1    1    2    0    0  0.57428135750E+02  0.49918176671E+02 -0.65587127316E+02  0.10045639058E+03  0.00000000000E+00 0.  1.
        -15    1    3    3    0    0  0.15356738959E+02 -0.65182408453E+01 -0.19244761837E+02  0.25531068962E+02  0.17770000000E+01 0.  1.
         15    1    3    3    0    0 -0.51908400946E+02  0.13875742081E+02 -0.60786165866E+02  0.81148838542E+02  0.17770000000E+01 0. -1.
</event>
<event>
 7    1  0.3965397E-009  0.1572451E+03  0.7546771E-02  0.1090549E+00
        -11   -1    0    0    0    0  0.00000000000E+00  0.00000000000E+00  0.18250000000E+03  0.18250000000E+03  0.00000000000E+00 0. -1.
         11   -1    0    0    0    0 -0.00000000000E+00 -0.00000000000E+00 -0.18250000000E+03  0.18250000000E+03  0.00000000000E+00 0. -1.
         23    2    1    2    0    0 -0.27087027922E+02 -0.33696588759E+02 -0.32705443027E+02  0.13722589975E+03  0.12606400907E+03 0.  0.
        -11    1    1    2    0    0 -0.32779790213E+02  0.31426900376E+02 -0.84621628425E+02  0.96036371813E+02  0.00000000000E+00 0. -1.
         11    1    1    2    0    0  0.59866818136E+02  0.22696883827E+01  0.11732707145E+03  0.13173772844E+03  0.00000000000E+00 0. -1.
        -15    1    3    3    0    0  0.43640696851E+02 -0.41750402211E+02 -0.43402461870E+01  0.60577239722E+02  0.17770000000E+01 0.  1.
         15    1    3    3    0    0 -0.70727724774E+02  0.80538134521E+01 -0.28365196840E+02  0.76648660024E+02  0.17770000000E+01 0. -1.
</event>
<event>
 7    1  0.3965397E-009  0.1708751E+03  0.7546771E-02  0.1078104E+00
        -11   -1    0    0    0    0  0.00000000000E+00  0.00000000000E+00  0.18250000000E+03  0.18250000000E+03  0.00000000000E+00 0. -1.
         11   -1    0    0    0    0 -0.00000000000E+00 -0.00000000000E+00 -0.18250000000E+03  0.18250000000E+03  0.00000000000E+00 0. -1.
         23    2    1    2    0    0 -0.58803062878E+02 -0.88867766115E+00  0.12946357131E+03  0.16171037055E+03  0.77011932162E+02 0.  0.
        -11    1    1    2    0    0  0.80648306133E+02 -0.30036365766E+02 -0.13968848527E+03  0.16407073312E+03  0.00000000000E+00 0. -1.
         11    1    1    2    0    0 -0.21845243255E+02  0.30925043427E+02  0.10224913953E+02  0.39218896328E+02  0.00000000000E+00 0. -1.
        -15    1    3    3    0    0 -0.19219554552E+02 -0.35097258034E+02  0.32751140039E+02  0.51739769052E+02  0.17770000000E+01 0.  1.
         15    1    3    3    0    0 -0.39583508326E+02  0.34208580373E+02  0.96712431274E+02  0.10997060150E+03  0.17770000000E+01 0. -1.
</event>
<event>
 7    1  0.3965397E-009  0.1349596E+03  0.7546771E-02  0.1114210E+00
        -11   -1    0    0    0    0  0.00000000000E+00  0.00000000000E+00  0.18250000000E+03  0.18250000000E+03  0.00000000000E+00 0.  1.
         11   -1    0    0    0    0 -0.00000000000E+00 -0.00000000000E+00 -0.18250000000E+03  0.18250000000E+03  0.00000000000E+00 0.  1.
         23    2    1    2    0    0  0.66547013002E+01 -0.60357664852E+02 -0.28055174492E+02  0.86915765158E+02  0.55497068945E+02 0.  0.
        -11    1    1    2    0    0  0.41503916379E+02  0.14999730244E+03 -0.33444356702E+02  0.15918633990E+03  0.00000000000E+00 0.  1.
         11    1    1    2    0    0 -0.48158617679E+02 -0.89639637592E+02  0.61499531195E+02  0.11889789494E+03  0.00000000000E+00 0.  1.
        -15    1    3    3    0    0  0.21795513263E+02 -0.58030024550E+02 -0.94165058454E+01  0.62724448654E+02  0.17770000000E+01 0.  1.
         15    1    3    3    0    0 -0.15140811963E+02 -0.23276403027E+01 -0.18638668647E+02  0.24191316504E+02  0.17770000000E+01 0. -1.
</event>
<event>
 7    1  0.3965397E-009  0.1788086E+03  0.7546771E-02  0.1071432E+00
        -11   -1    0    0    0    0  0.00000000000E+00  0.00000000000E+00  0.18250000000E+03  0.18250000000E+03  0.00000000000E+00 0.  1.
         11   -1    0    0    0    0 -0.00000000000E+00 -0.00000000000E+00 -0.18250000000E+03  0.18250000000E+03  0.00000000000E+00 0.  1.
         23    2    1    2    0    0  0.41483831884E+01 -0.71972943921E+02 -0.13337819228E+03  0.17050601331E+03  0.78007978177E+02 0.  0.
        -11    1    1    2    0    0 -0.63291741342E+01  0.95120356061E+02  0.14084520218E+03  0.17007442947E+03  0.00000000000E+00 0.  1.
         11    1    1    2    0    0  0.21807909458E+01 -0.23147412140E+02 -0.74670098943E+01  0.24419557218E+02  0.00000000000E+00 0.  1.
        -15    1    3    3    0    0  0.40892646152E+02 -0.34903559039E+02 -0.72927197980E+02  0.90620090913E+02  0.17770000000E+01 0. -1.
         15    1    3    3    0    0 -0.36744262964E+02 -0.37069384882E+02 -0.60450994304E+02  0.79885922400E+02  0.17770000000E+01 0.  1.
</event>
<event>
 6    1  0.3965397E-009  0.1251898E+03  0.7546771E-02  0.1126234E+00
        -11   -1    0    0    0    0  0.00000000000E+00  0.00000000000E+00  0.18250000000E+03  0.18250000000E+03  0.00000000000E+00 0.  1.
         11   -1    0    0    0    0 -0.00000000000E+00 -0.00000000000E+00 -0.18250000000E+03  0.18250000000E+03  0.00000000000E+00 0.  1.
        -11    1    1    2    0    0  0.48471998650E+02 -0.33006330161E+02  0.84273478669E+02  0.10266923439E+03  0.00000000000E+00 0.  1.
         11    1    1    2    0    0 -0.28449759134E+02 -0.98122325250E+02 -0.75912921015E+01  0.10244514251E+03  0.00000000000E+00 0.  1.
        -15    1    1    2    0    0 -0.28642443038E+02  0.12761549285E+03 -0.70851350764E+02  0.14875878190E+03  0.17770000000E+01 0.  1.
         15    1    1    2    0    0  0.86202035220E+01  0.35131625614E+01 -0.58308358037E+01  0.11126841201E+02  0.17770000000E+01 0. -1.
</event>
<event>
 7    1  0.3965397E-009  0.1480242E+03  0.7546771E-02  0.1099781E+00
        -11   -1    0    0    0    0  0.00000000000E+00  0.00000000000E+00  0.18250000000E+03  0.18250000000E+03  0.00000000000E+00 0. -1.
         11   -1    0    0    0    0 -0.00000000000E+00 -0.00000000000E+00 -0.18250000000E+03  0.18250000000E+03  0.00000000000E+00 0. -1.
         23    2    1    2    0    0  0.16462632023E+02 -0.31850034573E+02 -0.10671409484E+03  0.13532968232E+03  0.75105139134E+02 0.  0.
        -11    1    1    2    0    0 -0.53932970294E+02  0.10039965048E+03  0.99365913485E+02  0.15120330639E+03  0.00000000000E+00 0. -1.
         11    1    1    2    0    0  0.37470338272E+02 -0.68549615904E+02  0.73481813594E+01  0.78467011285E+02  0.00000000000E+00 0. -1.
        -15    1    3    3    0    0  0.42784435551E+02 -0.31441562273E+01 -0.67748481702E+02  0.80208529133E+02  0.17770000000E+01 0. -1.
         15    1    3    3    0    0 -0.26321803529E+02 -0.28705878346E+02 -0.38965613142E+02  0.55121153192E+02  0.17770000000E+01 0.  1.
</event>
<event>
 7    1  0.3965397E-009  0.1294902E+03  0.7546771E-02  0.1120797E+00
        -11   -1    0    0    0    0  0.00000000000E+00  0.00000000000E+00  0.18250000000E+03  0.18250000000E+03  0.00000000000E+00 0.  1.
         11   -1    0    0    0    0 -0.00000000000E+00 -0.00000000000E+00 -0.18250000000E+03  0.18250000000E+03  0.00000000000E+00 0.  1.
         23    2    1    2    0    0  0.98698746689E+02  0.51667458865E+02 -0.87723392695E+02  0.15659064754E+03  0.66439960614E+02 0.  0.
        -11    1    1    2    0    0 -0.31761824365E+02 -0.96150467509E+02  0.19792740201E+02  0.10317692791E+03  0.00000000000E+00 0.  1.
         11    1    1    2    0    0 -0.66936922324E+02  0.44483008644E+02  0.67930652494E+02  0.10523242455E+03  0.00000000000E+00 0.  1.
        -15    1    3    3    0    0  0.17343139792E+01  0.15177098791E+02  0.63501908931E+01  0.16638354068E+02  0.17770000000E+01 0. -1.
         15    1    3    3    0    0  0.96964432710E+02  0.36490360074E+02 -0.94073583588E+02  0.13995229347E+03  0.17770000000E+01 0.  1.
</event>
<event>
 6    1  0.3965397E-009  0.8860756E+02  0.7546771E-02  0.1185131E+00
        -11   -1    0    0    0    0  0.00000000000E+00  0.00000000000E+00  0.18250000000E+03  0.18250000000E+03  0.00000000000E+00 0.  1.
         11   -1    0    0    0    0 -0.00000000000E+00 -0.00000000000E+00 -0.18250000000E+03  0.18250000000E+03  0.00000000000E+00 0. -1.
        -11    1    1    2    0    0 -0.11258341394E+03 -0.31568803535E+02  0.31083482590E+02  0.12098676514E+03  0.00000000000E+00 0.  1.
         11    1    1    2    0    0  0.49365099647E+02  0.41076973662E+02  0.27984917208E+02  0.70052740271E+02  0.00000000000E+00 0. -1.
        -15    1    1    2    0    0  0.53314753272E+02 -0.66315422756E+02  0.80118198471E+01  0.85484180981E+02  0.17770000000E+01 0.  1.
         15    1    1    2    0    0  0.99035610163E+01  0.56807252629E+02 -0.67080219646E+02  0.88476313603E+02  0.17770000000E+01 0. -1.
</event>
<event>
 7    1  0.3965397E-009  0.1408130E+03  0.7546771E-02  0.1107533E+00
        -11   -1    0    0    0    0  0.00000000000E+00  0.00000000000E+00  0.18250000000E+03  0.18250000000E+03  0.00000000000E+00 0. -1.
         11   -1    0    0    0    0 -0.00000000000E+00 -0.00000000000E+00 -0.18250000000E+03  0.18250000000E+03  0.00000000000E+00 0.  1.
         23    2    1    2    0    0 -0.45310747917E+02 -0.66191596707E+01 -0.29890461786E+02  0.78114147382E+02  0.55780849436E+02 0.  0.
        -11    1    1    2    0    0  0.12959301319E+02 -0.10447156753E+03  0.10520325382E+03  0.14882868181E+03  0.00000000000E+00 0. -1.
         11    1    1    2    0    0  0.32351446598E+02  0.11109072720E+03 -0.75312792038E+02  0.13805717081E+03  0.00000000000E+00 0.  1.
        -15    1    3    3    0    0 -0.42274072015E+02  0.15607493055E+02 -0.32314723865E+02  0.55480538135E+02  0.17770000000E+01 0.  1.
         15    1    3    3    0    0 -0.30366759015E+01 -0.22226652726E+02  0.24242620789E+01  0.22633609247E+02  0.17770000000E+01 0. -1.
</event>
<event>
 7    1  0.3965397E-009  0.1438840E+03  0.7546771E-02  0.1104170E+00
        -11   -1    0    0    0    0  0.00000000000E+00  0.00000000000E+00  0.18250000000E+03  0.18250000000E+03  0.00000000000E+00 0.  1.
         11   -1    0    0    0    0 -0.00000000000E+00 -0.00000000000E+00 -0.18250000000E+03  0.18250000000E+03  0.00000000000E+00 0.  1.
         23    2    1    2    0    0  0.63724967761E+02 -0.20389789722E+01  0.50144980865E+02  0.13496102611E+03  0.10786533508E+03 0.  0.
        -11    1    1    2    0    0 -0.44956740313E+02  0.82719012930E+02  0.44611048489E+02  0.10418104073E+03  0.00000000000E+00 0.  1.
         11    1    1    2    0    0 -0.18768227448E+02 -0.80680033958E+02 -0.94756029353E+02  0.12585793316E+03  0.00000000000E+00 0.  1.
        -15    1    3    3    0    0  0.84649151274E+02 -0.14323486231E+01  0.46004896352E+01  0.84804791539E+02  0.17770000000E+01 0.  1.
         15    1    3    3    0    0 -0.20924183514E+02 -0.60663034909E+00  0.45544491230E+02  0.50156234572E+02  0.17770000000E+01 0. -1.
</event>
<event>
 7    1  0.3965397E-009  0.1838459E+03  0.7546771E-02  0.1067388E+00
        -11   -1    0    0    0    0  0.00000000000E+00  0.00000000000E+00  0.18250000000E+03  0.18250000000E+03  0.00000000000E+00 0.  1.
         11   -1    0    0    0    0 -0.00000000000E+00 -0.00000000000E+00 -0.18250000000E+03  0.18250000000E+03  0.00000000000E+00 0.  1.
         23    2    1    2    0    0 -0.81684073590E+02  0.92559337632E+02 -0.39486914470E+02  0.17828922536E+03  0.12242676425E+03 0.  0.
        -11    1    1    2    0    0  0.59641090873E+02 -0.12742036550E+03  0.36566898356E+02  0.14536212478E+03  0.00000000000E+00 0.  1.
         11    1    1    2    0    0  0.22042982717E+02  0.34861027870E+02  0.29200161141E+01  0.41348649861E+02  0.00000000000E+00 0.  1.
        -15    1    3    3    0    0 -0.87280578937E+02  0.68852060698E+01 -0.13767866469E+02  0.88645458983E+02  0.17770000000E+01 0.  1.
         15    1    3    3    0    0  0.55965053468E+01  0.85674131563E+02 -0.25719048001E+02  0.89643766376E+02  0.17770000000E+01 0. -1.
</event>
<event>
 7    1  0.3965397E-009  0.1294201E+03  0.7546771E-02  0.1120884E+00
        -11   -1    0    0    0    0  0.00000000000E+00  0.00000000000E+00  0.18250000000E+03  0.18250000000E+03  0.00000000000E+00 0.  1.
         11   -1    0    0    0    0 -0.00000000000E+00 -0.00000000000E+00 -0.18250000000E+03  0.18250000000E+03  0.00000000000E+00 0.  1.
         23    2    1    2    0    0 -0.42633078742E+02 -0.24283736118E+02 -0.52769125784E+02  0.96317887165E+02  0.63916160000E+02 0.  0.
        -11    1    1    2    0    0  0.15331385010E+01  0.10455620378E+03 -0.62887699964E+02  0.12202136316E+03  0.00000000000E+00 0.  1.
         11    1    1    2    0    0  0.41099940241E+02 -0.80272467658E+02  0.11565682575E+03  0.14666074967E+03  0.00000000000E+00 0.  1.
        -15    1    3    3    0    0 -0.44486732198E+02 -0.13621467304E+02 -0.44519717059E+01  0.46771695439E+02  0.17770000000E+01 0. -1.
         15    1    3    3    0    0  0.18536534561E+01 -0.10662268814E+02 -0.48317154078E+02  0.49546191727E+02  0.17770000000E+01 0.  1.
</event>
<event>
 7    1  0.3965397E-009  0.1143030E+03  0.7546771E-02  0.1141150E+00
        -11   -1    0    0    0    0  0.00000000000E+00  0.00000000000E+00  0.18250000000E+03  0.18250000000E+03  0.00000000000E+00 0.  1.
         11   -1    0    0    0    0 -0.00000000000E+00 -0.00000000000E+00 -0.18250000000E+03  0.18250000000E+03  0.00000000000E+00 0.  1.
         23    2    1    2    0    0 -0.82984626651E+02  0.32921048300E+02 -0.34048753970E+02  0.11722941438E+03  0.67920352373E+02 0.  0.
        -11    1    1    2    0    0  0.65009576638E+02 -0.41279126297E+02 -0.92112094577E+02  0.12006185610E+03  0.00000000000E+00 0.  1.
         11    1    1    2    0    0  0.17975050013E+02  0.83580779964E+01  0.12616084855E+03  0.12770872952E+03  0.00000000000E+00 0.  1.
        -15    1    3    3    0    0 -0.81911941154E+02  0.98733766167E+01 -0.42208779627E+02  0.92691900812E+02  0.17770000000E+01 0.  1.
         15    1    3    3    0    0 -0.10726854969E+01  0.23047671684E+02  0.81600256574E+01  0.24537513565E+02  0.17770000000E+01 0. -1.
</event>
<event>
 6    1  0.3965397E-009  0.8625738E+02  0.7546771E-02  0.1189977E+00
        -11   -1    0    0    0    0  0.00000000000E+00  0.00000000000E+00  0.18250000000E+03  0.18250000000E+03  0.00000000000E+00 0.  1.
         11   -1    0    0    0    0 -0.00000000000E+00 -0.00000000000E+00 -0.18250000000E+03  0.18250000000E+03  0.00000000000E+00 0. -1.
        -11    1    1    2    0    0 -0.16501464009E+02  0.56710338630E+02 -0.28901106682E+02  0.65754351867E+02  0.00000000000E+00 0.  1.
         11    1    1    2    0    0  0.56603791311E+02 -0.94710367157E+02 -0.18797615896E+02  0.11192583795E+03  0.00000000000E+00 0. -1.
        -15    1    1    2    0    0  0.45201217445E+02  0.44871969212E+02  0.74114453155E+02  0.97738188929E+02  0.17770000000E+01 0.  1.
         15    1    1    2    0    0 -0.85303544748E+02 -0.68719406849E+01 -0.26415730578E+02  0.89581621253E+02  0.17770000000E+01 0. -1.
</event>
<event>
 6    1  0.3965397E-009  0.1505117E+03  0.7546771E-02  0.1097219E+00
        -11   -1    0    0    0    0  0.00000000000E+00  0.00000000000E+00  0.18250000000E+03  0.18250000000E+03  0.00000000000E+00 0. -1.
         11   -1    0    0    0    0 -0.00000000000E+00 -0.00000000000E+00 -0.18250000000E+03  0.18250000000E+03  0.00000000000E+00 0.  1.
        -11    1    1    2    0    0 -0.10435039045E+03 -0.70758047662E+02  0.81216363389E+02  0.14997267411E+03  0.00000000000E+00 0. -1.
         11    1    1    2    0    0  0.10191504142E+03  0.10107989586E+03 -0.55001707923E+02  0.15371730186E+03  0.00000000000E+00 0.  1.
        -15    1    1    2    0    0 -0.48260631645E+01 -0.36889234653E+02 -0.32590873758E+02  0.49491709410E+02  0.17770000000E+01 0.  1.
         15    1    1    2    0    0  0.72614121960E+01  0.65673864534E+01  0.63762182924E+01  0.11818314627E+02  0.17770000000E+01 0. -1.
</event>
<event>
 7    1  0.3965397E-009  0.1628220E+03  0.7546771E-02  0.1085296E+00
        -11   -1    0    0    0    0  0.00000000000E+00  0.00000000000E+00  0.18250000000E+03  0.18250000000E+03  0.00000000000E+00 0.  1.
         11   -1    0    0    0    0 -0.00000000000E+00 -0.00000000000E+00 -0.18250000000E+03  0.18250000000E+03  0.00000000000E+00 0. -1.
         23    2    1    2    0    0  0.76233370788E+02 -0.56438982770E+02  0.63892941156E+02  0.15455502452E+03  0.10396182991E+03 0.  0.
        -11    1    1    2    0    0  0.44114946816E+02  0.51662627624E+02  0.10702458891E+02  0.68772801687E+02  0.00000000000E+00 0.  1.
         11    1    1    2    0    0 -0.12034831760E+03  0.47763551461E+01 -0.74595400047E+02  0.14167217379E+03  0.00000000000E+00 0. -1.
        -15    1    3    3    0    0 -0.46850642623E+01 -0.87573384763E+01  0.59674669749E+02  0.60521605588E+02  0.17770000000E+01 0.  1.
         15    1    3    3    0    0  0.80918435051E+02 -0.47681644294E+02  0.42182714072E+01  0.94033418933E+02  0.17770000000E+01 0. -1.
</event>
<event>
 7    1  0.3965397E-009  0.1582223E+03  0.7546771E-02  0.1089611E+00
        -11   -1    0    0    0    0  0.00000000000E+00  0.00000000000E+00  0.18250000000E+03  0.18250000000E+03  0.00000000000E+00 0.  1.
         11   -1    0    0    0    0 -0.00000000000E+00 -0.00000000000E+00 -0.18250000000E+03  0.18250000000E+03  0.00000000000E+00 0.  1.
         23    2    1    2    0    0 -0.28229709827E+02  0.56751694130E+00  0.77053884162E+02  0.13344755026E+03  0.10523169206E+03 0.  0.
        -11    1    1    2    0    0 -0.38316891900E+02  0.38324247502E+02  0.55909201767E+02  0.77863797709E+02  0.00000000000E+00 0.  1.
         11    1    1    2    0    0  0.66546601727E+02 -0.38891764443E+02 -0.13296308593E+03  0.15368865203E+03  0.00000000000E+00 0.  1.
        -15    1    3    3    0    0 -0.52721003864E+02 -0.33832776154E+02  0.63115532522E+02  0.88943179419E+02  0.17770000000E+01 0.  1.
         15    1    3    3    0    0  0.24491294036E+02  0.34400293095E+02  0.13938351640E+02  0.44504370842E+02  0.17770000000E+01 0. -1.
</event>
<event>
 7    1  0.3965397E-009  0.1499657E+03  0.7546771E-02  0.1097777E+00
        -11   -1    0    0    0    0  0.00000000000E+00  0.00000000000E+00  0.18250000000E+03  0.18250000000E+03  0.00000000000E+00 0.  1.
         11   -1    0    0    0    0 -0.00000000000E+00 -0.00000000000E+00 -0.18250000000E+03  0.18250000000E+03  0.00000000000E+00 0.  1.
         23    2    1    2    0    0 -0.20041121267E+02  0.59168739455E+01 -0.60814132999E+02  0.12344471483E+03  0.10537353989E+03 0.  0.
        -11    1    1    2    0    0  0.72425229712E+02 -0.55889243110E+02  0.11799199643E+03  0.14930215208E+03  0.00000000000E+00 0.  1.
         11    1    1    2    0    0 -0.52384108445E+02  0.49972369165E+02 -0.57177863432E+02  0.92253133086E+02  0.00000000000E+00 0.  1.
        -15    1    3    3    0    0 -0.37572430930E+02 -0.12707565884E+01  0.18459265168E+02  0.41919024176E+02  0.17770000000E+01 0. -1.
         15    1    3    3    0    0  0.17531309663E+02  0.71876305339E+01 -0.79273398167E+02  0.81525690658E+02  0.17770000000E+01 0.  1.
</event>
<event>
 7    1  0.3965397E-009  0.1479193E+03  0.7546771E-02  0.1099890E+00
        -11   -1    0    0    0    0  0.00000000000E+00  0.00000000000E+00  0.18250000000E+03  0.18250000000E+03  0.00000000000E+00 0.  1.
         11   -1    0    0    0    0 -0.00000000000E+00 -0.00000000000E+00 -0.18250000000E+03  0.18250000000E+03  0.00000000000E+00 0. -1.
         23    2    1    2    0    0  0.76860247228E+02 -0.94709818369E+02  0.86014969700E+02  0.15931598683E+03  0.55727563631E+02 0.  0.
        -11    1    1    2    0    0 -0.54951231196E+02  0.32887896493E+02  0.31298545758E+02  0.71280084963E+02  0.00000000000E+00 0.  1.
         11    1    1    2    0    0 -0.21909016032E+02  0.61821921876E+02 -0.11731351546E+03  0.13440392821E+03  0.00000000000E+00 0. -1.
        -15    1    3    3    0    0  0.64536020752E+02 -0.37565237689E+02  0.38917296360E+02  0.84224454537E+02  0.17770000000E+01 0.  1.
         15    1    3    3    0    0  0.12324226476E+02 -0.57144580680E+02  0.47097673340E+02  0.75091532295E+02  0.17770000000E+01 0. -1.
</event>
<event>
 7    1  0.3965397E-009  0.1515961E+03  0.7546771E-02  0.1096119E+00
        -11   -1    0    0    0    0  0.00000000000E+00  0.00000000000E+00  0.18250000000E+03  0.18250000000E+03  0.00000000000E+00 0.  1.
         11   -1    0    0    0    0 -0.00000000000E+00 -0.00000000000E+00 -0.18250000000E+03  0.18250000000E+03  0.00000000000E+00 0. -1.
         23    2    1    2    0    0 -0.45827127973E+01 -0.35403483695E+02  0.60884382947E+02  0.13562813995E+03  0.11581742678E+03 0.  0.
        -11    1    1    2    0    0 -0.41500892609E+02 -0.23407944780E+02 -0.12319184981E+03  0.13208515369E+03  0.00000000000E+00 0. -1.
         11    1    1    2    0    0  0.46083605406E+02  0.58811428475E+02  0.62307466864E+02  0.97286706355E+02  0.00000000000E+00 0.  1.
        -15    1    3    3    0    0  0.55156759362E+02 -0.24187458922E+02  0.27139811175E+02  0.66083495307E+02  0.17770000000E+01 0.  1.
         15    1    3    3    0    0 -0.59739472160E+02 -0.11216024773E+02  0.33744571773E+02  0.69544644645E+02  0.17770000000E+01 0. -1.
</event>
<event>
 7    1  0.3965397E-009  0.1297294E+03  0.7546771E-02  0.1120502E+00
        -11   -1    0    0    0    0  0.00000000000E+00  0.00000000000E+00  0.18250000000E+03  0.18250000000E+03  0.00000000000E+00 0.  1.
         11   -1    0    0    0    0 -0.00000000000E+00 -0.00000000000E+00 -0.18250000000E+03  0.18250000000E+03  0.00000000000E+00 0. -1.
         23    2    1    2    0    0  0.69318932703E+01 -0.68763889341E+00 -0.64112814495E+02  0.97646627114E+02  0.73320439256E+02 0.  0.
        -11    1    1    2    0    0 -0.26997304283E+02 -0.11906623459E+03  0.78398085027E+02  0.14509266830E+03  0.00000000000E+00 0.  1.
         11    1    1    2    0    0  0.20065411012E+02  0.11975387348E+03 -0.14285270532E+02  0.12226070459E+03  0.00000000000E+00 0. -1.
        -15    1    3    3    0    0  0.26145176539E+02 -0.10500494676E+02 -0.69776193935E+02  0.75270881580E+02  0.17770000000E+01 0. -1.
         15    1    3    3    0    0 -0.19213283268E+02  0.98128557822E+01  0.56633794401E+01  0.22375745535E+02  0.17770000000E+01 0.  1.
</event>
<event>
 7    1  0.3965397E-009  0.1267938E+03  0.7546771E-02  0.1124178E+00
        -11   -1    0    0    0    0  0.00000000000E+00  0.00000000000E+00  0.18250000000E+03  0.18250000000E+03  0.00000000000E+00 0.  1.
         11   -1    0    0    0    0 -0.00000000000E+00 -0.00000000000E+00 -0.18250000000E+03  0.18250000000E+03  0.00000000000E+00 0. -1.
         23    2    1    2    0    0  0.13479381599E+02 -0.10747095558E+03 -0.19076216412E+02  0.13224807486E+03  0.73443524224E+02 0.  0.
        -11    1    1    2    0    0 -0.12071430818E+02  0.57331592949E+02 -0.93026692725E+02  0.10993905835E+03  0.00000000000E+00 0. -1.
         11    1    1    2    0    0 -0.14079507810E+01  0.50139362633E+02  0.11210290914E+03  0.12281286678E+03  0.00000000000E+00 0.  1.
        -15    1    3    3    0    0 -0.18841685516E+02 -0.87747741187E+02  0.10594379911E+00  0.89765495317E+02  0.17770000000E+01 0.  1.
         15    1    3    3    0    0  0.32321067115E+02 -0.19723214395E+02 -0.19182160212E+02  0.42482579546E+02  0.17770000000E+01 0. -1.
</event>
<event>
 7    1  0.4039875E-009  0.1437793E+03  0.7546771E-02  0.1104283E+00
        -11   -1    0    0    0    0  0.00000000000E+00  0.00000000000E+00  0.18250000000E+03  0.18250000000E+03  0.00000000000E+00 0.  1.
         11   -1    0    0    0    0 -0.00000000000E+00 -0.00000000000E+00 -0.18250000000E+03  0.18250000000E+03  0.00000000000E+00 0. -1.
         23    2    1    2    0    0 -0.43174332915E+01 -0.23580889421E+02  0.12157014356E+03  0.14446664111E+03  0.74273898594E+02 0.  0.
        -11    1    1    2    0    0  0.81669300200E+02  0.20929137024E+02 -0.10218548402E+02  0.84925391393E+02  0.00000000000E+00 0.  1.
         11    1    1    2    0    0 -0.77351866909E+02  0.26517523972E+01 -0.11135159516E+03  0.13560796750E+03  0.00000000000E+00 0. -1.
        -15    1    3    3    0    0 -0.27649731698E+02 -0.39950303070E+02  0.65829334120E+02  0.81836381506E+02  0.17770000000E+01 0. -1.
         15    1    3    3    0    0  0.23332298406E+02  0.16369413648E+02  0.55740809438E+02  0.62630259603E+02  0.17770000000E+01 0.  1.
</event>
<event>
 7    1  0.3965397E-009  0.1757430E+03  0.7546771E-02  0.1073964E+00
        -11   -1    0    0    0    0  0.00000000000E+00  0.00000000000E+00  0.18250000000E+03  0.18250000000E+03  0.00000000000E+00 0.  1.
         11   -1    0    0    0    0 -0.00000000000E+00 -0.00000000000E+00 -0.18250000000E+03  0.18250000000E+03  0.00000000000E+00 0.  1.
         23    2    1    2    0    0 -0.74615267510E+02 -0.78868613659E+02 -0.80089738527E+02  0.17274585408E+03  0.10788451010E+03 0.  0.
        -11    1    1    2    0    0  0.82213439622E+02  0.44405964577E+02  0.11117404976E+03  0.14522606063E+03  0.00000000000E+00 0.  1.
         11    1    1    2    0    0 -0.75981721120E+01  0.34462649083E+02 -0.31084311236E+02  0.47028085293E+02  0.00000000000E+00 0.  1.
        -15    1    3    3    0    0  0.24459241794E+02 -0.19874830000E+01 -0.13115512375E+01  0.24639044085E+02  0.17770000000E+01 0. -1.
         15    1    3    3    0    0 -0.99074509304E+02 -0.76881130659E+02 -0.78778187290E+02  0.14810680999E+03  0.17770000000E+01 0.  1.
</event>
<event>
 7    1  0.3965397E-009  0.1826359E+03  0.7546771E-02  0.1068347E+00
        -11   -1    0    0    0    0  0.00000000000E+00  0.00000000000E+00  0.18250000000E+03  0.18250000000E+03  0.00000000000E+00 0. -1.
         11   -1    0    0    0    0 -0.00000000000E+00 -0.00000000000E+00 -0.18250000000E+03  0.18250000000E+03  0.00000000000E+00 0. -1.
         23    2    1    2    0    0 -0.24436997246E+01  0.33846766124E+02 -0.15463546190E+03  0.19109100272E+03  0.10701434482E+03 0.  0.
        -11    1    1    2    0    0 -0.22671011975E+02 -0.21446794766E+02  0.13766902964E+03  0.14116196907E+03  0.00000000000E+00 0. -1.
         11    1    1    2    0    0  0.25114711700E+02 -0.12399971358E+02  0.16966432258E+02  0.32747028216E+02  0.00000000000E+00 0. -1.
        -15    1    3    3    0    0  0.19467506011E+02  0.57750413324E+02 -0.42429543812E+02  0.74279996947E+02  0.17770000000E+01 0.  1.
         15    1    3    3    0    0 -0.21911205736E+02 -0.23903647200E+02 -0.11220591808E+03  0.11681100577E+03  0.17770000000E+01 0. -1.
</event>
<event>
 7    1  0.3965397E-009  0.1743143E+03  0.7546771E-02  0.1075164E+00
        -11   -1    0    0    0    0  0.00000000000E+00  0.00000000000E+00  0.18250000000E+03  0.18250000000E+03  0.00000000000E+00 0. -1.
         11   -1    0    0    0    0 -0.00000000000E+00 -0.00000000000E+00 -0.18250000000E+03  0.18250000000E+03  0.00000000000E+00 0. -1.
         23    2    1    2    0    0 -0.88580982410E+02 -0.24492767578E+02 -0.10054802250E+03  0.18032404688E+03  0.11815401367E+03 0.  0.
        -11    1    1    2    0    0  0.10708459517E+03 -0.17841495087E+02  0.66875582888E+02  0.12750597263E+03  0.00000000000E+00 0. -1.
         11    1    1    2    0    0 -0.18503612759E+02  0.42334262665E+02  0.33672439608E+02  0.57169980493E+02  0.00000000000E+00 0. -1.
        -15    1    3    3    0    0 -0.76379523335E+02 -0.49550862616E+02 -0.17529259483E+02  0.92733770752E+02  0.17770000000E+01 0.  1.
         15    1    3    3    0    0 -0.12201459075E+02  0.25058095039E+02 -0.83018763013E+02  0.87590276126E+02  0.17770000000E+01 0. -1.
</event>
<event>
 7    1  0.3965397E-009  0.1124674E+03  0.7546771E-02  0.1143847E+00
        -11   -1    0    0    0    0  0.00000000000E+00  0.00000000000E+00  0.18250000000E+03  0.18250000000E+03  0.00000000000E+00 0. -1.
         11   -1    0    0    0    0 -0.00000000000E+00 -0.00000000000E+00 -0.18250000000E+03  0.18250000000E+03  0.00000000000E+00 0. -1.
         23    2    1    2    0    0 -0.37998732497E+02 -0.98561060700E+01 -0.89303485973E+02  0.11982282747E+03  0.69579816601E+02 0.  0.
        -11    1    1    2    0    0  0.11994539318E+03 -0.30840680943E+02  0.10267849345E+02  0.12427177345E+03  0.00000000000E+00 0. -1.
         11    1    1    2    0    0 -0.81946660680E+02  0.40696787013E+02  0.79035636627E+02  0.12090539908E+03  0.00000000000E+00 0. -1.
        -15    1    3    3    0    0 -0.11373048839E+02 -0.37403707404E+02 -0.30495797723E+02  0.49613858701E+02  0.17770000000E+01 0.  1.
         15    1    3    3    0    0 -0.26625683658E+02  0.27547601334E+02 -0.58807688250E+02  0.70208968771E+02  0.17770000000E+01 0. -1.
</event>
<event>
 6    1  0.3965397E-009  0.8891375E+02  0.7546771E-02  0.1184512E+00
        -11   -1    0    0    0    0  0.00000000000E+00  0.00000000000E+00  0.18250000000E+03  0.18250000000E+03  0.00000000000E+00 0. -1.
         11   -1    0    0    0    0 -0.00000000000E+00 -0.00000000000E+00 -0.18250000000E+03  0.18250000000E+03  0.00000000000E+00 0.  1.
        -11    1    1    2    0    0  0.74165993481E+02  0.20051980658E+02  0.52589594127E+02  0.93103930785E+02  0.00000000000E+00 0. -1.
         11    1    1    2    0    0 -0.77803770486E+02 -0.28478607188E+02 -0.43554887787E+02  0.93602809891E+02  0.00000000000E+00 0.  1.
        -15    1    1    2    0    0 -0.44006940981E+02  0.21885532925E+02  0.69678866249E+02  0.85287100646E+02  0.17770000000E+01 0. -1.
         15    1    1    2    0    0  0.47644717986E+02 -0.13458906395E+02 -0.78713572588E+02  0.93006158678E+02  0.17770000000E+01 0.  1.
</event>
<event>
 7    1  0.3965397E-009  0.1721055E+03  0.7546771E-02  0.1077044E+00
        -11   -1    0    0    0    0  0.00000000000E+00  0.00000000000E+00  0.18250000000E+03  0.18250000000E+03  0.00000000000E+00 0.  1.
         11   -1    0    0    0    0 -0.00000000000E+00 -0.00000000000E+00 -0.18250000000E+03  0.18250000000E+03  0.00000000000E+00 0.  1.
         23    2    1    2    0    0 -0.49637710347E+01  0.71337404239E+01 -0.15517659365E+03  0.17063060579E+03  0.70423711476E+02 0.  0.
        -11    1    1    2    0    0  0.27410893234E+02  0.18477134642E+02  0.15682760834E+03  0.16027370436E+03  0.00000000000E+00 0.  1.
         11    1    1    2    0    0 -0.22447122199E+02 -0.25610875066E+02 -0.16510146877E+01  0.34095689847E+02  0.00000000000E+00 0.  1.
        -15    1    3    3    0    0  0.11224708660E+02 -0.17644045885E+02 -0.13014600502E+03  0.13182733704E+03  0.17770000000E+01 0.  1.
         15    1    3    3    0    0 -0.16188479695E+02  0.24777786309E+02 -0.25030588639E+02  0.38803268751E+02  0.17770000000E+01 0. -1.
</event>
<event>
 7    1  0.3965397E-009  0.1483159E+03  0.7546771E-02  0.1099478E+00
        -11   -1    0    0    0    0  0.00000000000E+00  0.00000000000E+00  0.18250000000E+03  0.18250000000E+03  0.00000000000E+00 0.  1.
         11   -1    0    0    0    0 -0.00000000000E+00 -0.00000000000E+00 -0.18250000000E+03  0.18250000000E+03  0.00000000000E+00 0.  1.
         23    2    1    2    0    0 -0.11961486082E+02  0.63511651197E+02  0.56843882170E+02  0.13735182179E+03  0.10703966098E+03 0.  0.
        -11    1    1    2    0    0  0.92099119211E+02 -0.92940562854E+02 -0.12477951575E+02  0.13143779996E+03  0.00000000000E+00 0.  1.
         11    1    1    2    0    0 -0.80137633129E+02  0.29428911657E+02 -0.44365930595E+02  0.96210378247E+02  0.00000000000E+00 0.  1.
        -15    1    3    3    0    0 -0.41734095953E+02  0.65201229839E+02  0.50982625621E+01  0.77602094996E+02  0.17770000000E+01 0.  1.
         15    1    3    3    0    0  0.29772609871E+02 -0.16895786427E+01  0.51745619608E+02  0.59749726796E+02  0.17770000000E+01 0. -1.
</event>
<event>
 6    1  0.3965397E-009  0.1097710E+03  0.7546771E-02  0.1147913E+00
        -11   -1    0    0    0    0  0.00000000000E+00  0.00000000000E+00  0.18250000000E+03  0.18250000000E+03  0.00000000000E+00 0. -1.
         11   -1    0    0    0    0 -0.00000000000E+00 -0.00000000000E+00 -0.18250000000E+03  0.18250000000E+03  0.00000000000E+00 0.  1.
        -11    1    1    2    0    0 -0.11612311393E+01 -0.10378558665E+03  0.51804049826E+02  0.11600196564E+03  0.00000000000E+00 0. -1.
         11    1    1    2    0    0 -0.27208069919E+02 -0.15035783706E+02 -0.36581008375E+02  0.48005458378E+02  0.00000000000E+00 0.  1.
        -15    1    1    2    0    0 -0.52974032498E+02  0.10365153993E+03  0.20900080905E+01  0.11643631612E+03  0.17770000000E+01 0. -1.
         15    1    1    2    0    0  0.81343333556E+02  0.15169830427E+02 -0.17313049542E+02  0.84556259866E+02  0.17770000000E+01 0.  1.
</event>
<event>
 7    1  0.3965397E-009  0.1517999E+03  0.7546771E-02  0.1095914E+00
        -11   -1    0    0    0    0  0.00000000000E+00  0.00000000000E+00  0.18250000000E+03  0.18250000000E+03  0.00000000000E+00 0. -1.
         11   -1    0    0    0    0 -0.00000000000E+00 -0.00000000000E+00 -0.18250000000E+03  0.18250000000E+03  0.00000000000E+00 0.  1.
         23    2    1    2    0    0 -0.88949056114E+01  0.22934099155E+00  0.47727321484E+02  0.12674270396E+03  0.11707537678E+03 0.  0.
        -11    1    1    2    0    0 -0.69247659423E+02  0.13179894865E+02  0.68021236553E+02  0.97958341076E+02  0.00000000000E+00 0. -1.
         11    1    1    2    0    0  0.78142565034E+02 -0.13409235857E+02 -0.11574855804E+03  0.14029895496E+03  0.00000000000E+00 0.  1.
        -15    1    3    3    0    0  0.18519217239E+02 -0.20760057752E+02  0.76716881085E+02  0.81624622372E+02  0.17770000000E+01 0. -1.
         15    1    3    3    0    0 -0.27414122850E+02  0.20989398744E+02 -0.28989559601E+02  0.45118081587E+02  0.17770000000E+01 0.  1.
</event>
<event>
 7    1  0.3965397E-009  0.1722443E+03  0.7546771E-02  0.1076925E+00
        -11   -1    0    0    0    0  0.00000000000E+00  0.00000000000E+00  0.18250000000E+03  0.18250000000E+03  0.00000000000E+00 0.  1.
         11   -1    0    0    0    0 -0.00000000000E+00 -0.00000000000E+00 -0.18250000000E+03  0.18250000000E+03  0.00000000000E+00 0.  1.
         23    2    1    2    0    0 -0.77770687836E+01 -0.14134898704E+03 -0.42856142803E+02  0.16444727626E+03  0.71876552208E+02 0.  0.
        -11    1    1    2    0    0 -0.12246785944E+02 -0.57735707073E+01 -0.31653185333E+02  0.34427344167E+02  0.00000000000E+00 0.  1.
         11    1    1    2    0    0  0.20023854727E+02  0.14712255775E+03  0.74509328136E+02  0.16612537957E+03  0.00000000000E+00 0.  1.
        -15    1    3    3    0    0 -0.55446301872E+01 -0.32532747107E+02  0.20116891384E+02  0.38690691466E+02  0.17770000000E+01 0. -1.
         15    1    3    3    0    0 -0.22324385964E+01 -0.10881623994E+03 -0.62973034186E+02  0.12575658480E+03  0.17770000000E+01 0.  1.
</event>
<event>
 7    1  0.3965397E-009  0.1392500E+03  0.7546771E-02  0.1109280E+00
        -11   -1    0    0    0    0  0.00000000000E+00  0.00000000000E+00  0.18250000000E+03  0.18250000000E+03  0.00000000000E+00 0. -1.
         11   -1    0    0    0    0 -0.00000000000E+00 -0.00000000000E+00 -0.18250000000E+03  0.18250000000E+03  0.00000000000E+00 0. -1.
         23    2    1    2    0    0  0.23329601857E+02  0.20440785195E+02 -0.91444712590E+01  0.84628921358E+02  0.78207013454E+02 0.  0.
        -11    1    1    2    0    0 -0.22714417475E+02 -0.81939222115E+02 -0.11429756616E+03  0.14245671101E+03  0.00000000000E+00 0. -1.
         11    1    1    2    0    0 -0.61518438180E+00  0.61498436920E+02  0.12344203742E+03  0.13791436763E+03  0.00000000000E+00 0. -1.
        -15    1    3    3    0    0  0.40051748004E+02 -0.16378261076E+02 -0.85695744026E+01  0.44147313491E+02  0.17770000000E+01 0. -1.
         15    1    3    3    0    0 -0.16722146147E+02  0.36819046271E+02 -0.57489685636E+00  0.40481607867E+02  0.17770000000E+01 0.  1.
</event>
<event>
 7    1  0.3965397E-009  0.1818189E+03  0.7546771E-02  0.1068998E+00
        -11   -1    0    0    0    0  0.00000000000E+00  0.00000000000E+00  0.18250000000E+03  0.18250000000E+03  0.00000000000E+00 0. -1.
         11   -1    0    0    0    0 -0.00000000000E+00 -0.00000000000E+00 -0.18250000000E+03  0.18250000000E+03  0.00000000000E+00 0.  1.
         23    2    1    2    0    0  0.74585726090E+01 -0.18449799919E+02  0.15330545501E+03  0.19063647120E+03  0.11155122677E+03 0.  0.
        -11    1    1    2    0    0 -0.29811788065E+02  0.35771952132E+02 -0.12874587096E+03  0.13690827060E+03  0.00000000000E+00 0.  1.
         11    1    1    2    0    0  0.22353215456E+02 -0.17322152213E+02 -0.24559584047E+02  0.37455258204E+02  0.00000000000E+00 0. -1.
        -15    1    3    3    0    0 -0.40132325671E+02 -0.43345130895E+02  0.88980754548E+02  0.10681823976E+03  0.17770000000E+01 0. -1.
         15    1    3    3    0    0  0.47590898280E+02  0.24895330976E+02  0.64324700463E+02  0.83818231443E+02  0.17770000000E+01 0.  1.
</event>
<event>
 6    1  0.3965397E-009  0.1473766E+03  0.7546771E-02  0.1100457E+00
        -11   -1    0    0    0    0  0.00000000000E+00  0.00000000000E+00  0.18250000000E+03  0.18250000000E+03  0.00000000000E+00 0. -1.
         11   -1    0    0    0    0 -0.00000000000E+00 -0.00000000000E+00 -0.18250000000E+03  0.18250000000E+03  0.00000000000E+00 0.  1.
        -11    1    1    2    0    0  0.14369297096E+03  0.11949439903E+02 -0.34126735233E+02  0.14817251120E+03  0.00000000000E+00 0.  1.
         11    1    1    2    0    0 -0.13035592543E+03 -0.55449140116E+01  0.72982219456E+02  0.14949855425E+03  0.00000000000E+00 0. -1.
        -15    1    1    2    0    0 -0.37508359940E+01  0.12170343931E+02 -0.43907072127E+02  0.45751226802E+02  0.17770000000E+01 0.  1.
         15    1    1    2    0    0 -0.95862095430E+01 -0.18574869823E+02  0.50515879051E+01  0.21577707749E+02  0.17770000000E+01 0. -1.
</event>
<event>
 7    1  0.3965397E-009  0.1627395E+03  0.7546771E-02  0.1085372E+00
        -11   -1    0    0    0    0  0.00000000000E+00  0.00000000000E+00  0.18250000000E+03  0.18250000000E+03  0.00000000000E+00 0. -1.
         11   -1    0    0    0    0 -0.00000000000E+00 -0.00000000000E+00 -0.18250000000E+03  0.18250000000E+03  0.00000000000E+00 0. -1.
         23    2    1    2    0    0  0.10134120735E+02 -0.60853864122E+02 -0.12288152311E+03  0.17339226487E+03  0.10563671526E+03 0.  0.
        -11    1    1    2    0    0 -0.57772031437E+02 -0.11755249218E+02  0.37798067585E+02  0.70032045620E+02  0.00000000000E+00 0. -1.
         11    1    1    2    0    0  0.47637910702E+02  0.72609113340E+02  0.85083455527E+02  0.12157568951E+03  0.00000000000E+00 0. -1.
        -15    1    3    3    0    0 -0.35777364289E+01 -0.81724052285E+02 -0.48970764153E+02  0.95356774225E+02  0.17770000000E+01 0.  1.
         15    1    3    3    0    0  0.13711857164E+02  0.20870188163E+02 -0.73910758960E+02  0.78035490642E+02  0.17770000000E+01 0. -1.
</event>
<event>
 7    1  0.3965397E-009  0.1834540E+03  0.7546771E-02  0.1067698E+00
        -11   -1    0    0    0    0  0.00000000000E+00  0.00000000000E+00  0.18250000000E+03  0.18250000000E+03  0.00000000000E+00 0.  1.
         11   -1    0    0    0    0 -0.00000000000E+00 -0.00000000000E+00 -0.18250000000E+03  0.18250000000E+03  0.00000000000E+00 0. -1.
         23    2    1    2    0    0  0.16508501754E+03 -0.34465147342E+02 -0.13534591219E+02  0.18320837313E+03  0.70293765214E+02 0.  0.
        -11    1    1    2    0    0 -0.16360498699E+03  0.45051854293E+02  0.83214239721E+01  0.16989852100E+03  0.00000000000E+00 0.  1.
         11    1    1    2    0    0 -0.14800305523E+01 -0.10586706951E+02  0.52131672467E+01  0.11893105870E+02  0.00000000000E+00 0. -1.
        -15    1    3    3    0    0  0.14804010992E+03 -0.41648270425E+02 -0.31912737578E+02  0.15707333677E+03  0.17770000000E+01 0. -1.
         15    1    3    3    0    0  0.17044907614E+02  0.71831230827E+01  0.18378146359E+02  0.26135036357E+02  0.17770000000E+01 0.  1.
</event>
<event>
 7    1  0.3965397E-009  0.1555370E+03  0.7546771E-02  0.1092206E+00
        -11   -1    0    0    0    0  0.00000000000E+00  0.00000000000E+00  0.18250000000E+03  0.18250000000E+03  0.00000000000E+00 0.  1.
         11   -1    0    0    0    0 -0.00000000000E+00 -0.00000000000E+00 -0.18250000000E+03  0.18250000000E+03  0.00000000000E+00 0. -1.
         23    2    1    2    0    0 -0.14872112799E+03  0.55060987351E+02  0.13786481118E+02  0.17375759896E+03  0.69655939422E+02 0.  0.
        -11    1    1    2    0    0  0.10583910775E+03 -0.63543861372E+02  0.32419878252E+02  0.12763536953E+03  0.00000000000E+00 0.  1.
         11    1    1    2    0    0  0.42882020239E+02  0.84828740217E+01 -0.46206359371E+02  0.63607031512E+02  0.00000000000E+00 0. -1.
        -15    1    3    3    0    0 -0.90904297143E+02  0.63996855134E+02 -0.75925637518E+01  0.11144502438E+03  0.17770000000E+01 0. -1.
         15    1    3    3    0    0 -0.57816830849E+02 -0.89358677837E+01  0.21379044870E+02  0.62312574582E+02  0.17770000000E+01 0.  1.
</event>
<event>
 7    1  0.3965397E-009  0.1444663E+03  0.7546771E-02  0.1103543E+00
        -11   -1    0    0    0    0  0.00000000000E+00  0.00000000000E+00  0.18250000000E+03  0.18250000000E+03  0.00000000000E+00 0. -1.
         11   -1    0    0    0    0 -0.00000000000E+00 -0.00000000000E+00 -0.18250000000E+03  0.18250000000E+03  0.00000000000E+00 0.  1.
         23    2    1    2    0    0  0.10161504642E+02  0.11908238525E+02  0.16122829768E+02  0.12628743179E+03  0.12427190941E+03 0.  0.
        -11    1    1    2    0    0  0.27671228278E+02  0.55570572575E+02 -0.10432067070E+03  0.12139434808E+03  0.00000000000E+00 0.  1.
         11    1    1    2    0    0 -0.37832732920E+02 -0.67478811099E+02  0.88197840935E+02  0.11731822012E+03  0.00000000000E+00 0. -1.
        -15    1    3    3    0    0  0.55015136491E+01 -0.52062126872E+02 -0.15673508542E+02  0.54676762029E+02  0.17770000000E+01 0.  1.
         15    1    3    3    0    0  0.46599909924E+01  0.63970365397E+02  0.31796338310E+02  0.71610669764E+02  0.17770000000E+01 0.  1.
</event>
<event>
 7    1  0.3965397E-009  0.1455251E+03  0.7546771E-02  0.1102411E+00
        -11   -1    0    0    0    0  0.00000000000E+00  0.00000000000E+00  0.18250000000E+03  0.18250000000E+03  0.00000000000E+00 0.  1.
         11   -1    0    0    0    0 -0.00000000000E+00 -0.00000000000E+00 -0.18250000000E+03  0.18250000000E+03  0.00000000000E+00 0.  1.
         23    2    1    2    0    0  0.67905577760E+02 -0.20762169799E+02 -0.84758852300E+02  0.12604064475E+03  0.60497486717E+02 0.  0.
        -11    1    1    2    0    0 -0.13224973865E+03  0.60519707670E+02  0.71887638873E+02  0.16223581914E+03  0.00000000000E+00 0.  1.
         11    1    1    2    0    0  0.64344160892E+02 -0.39757537871E+02  0.12871213427E+02  0.76723536112E+02  0.00000000000E+00 0.  1.
        -15    1    3    3    0    0  0.57072458206E+02 -0.35746639604E+02 -0.83689332834E+02  0.10743439807E+03  0.17770000000E+01 0. -1.
         15    1    3    3    0    0  0.10833119553E+02  0.14984469806E+02 -0.10695194664E+01  0.18606246679E+02  0.17770000000E+01 0.  1.
</event>
<event>
 7    1  0.3965397E-009  0.2007353E+03  0.7546771E-02  0.1054800E+00
        -11   -1    0    0    0    0  0.00000000000E+00  0.00000000000E+00  0.18250000000E+03  0.18250000000E+03  0.00000000000E+00 0.  1.
         11   -1    0    0    0    0 -0.00000000000E+00 -0.00000000000E+00 -0.18250000000E+03  0.18250000000E+03  0.00000000000E+00 0.  1.
         23    2    1    2    0    0 -0.23267613892E+02 -0.41028688065E+02  0.26993770364E+02  0.86424647426E+02  0.67199858212E+02 0.  0.
        -11    1    1    2    0    0 -0.86835441618E+02 -0.45852313542E+02  0.58515831546E+02  0.11431067806E+03  0.00000000000E+00 0.  1.
         11    1    1    2    0    0  0.11010305551E+03  0.86881001607E+02 -0.85509601910E+02  0.16426467451E+03  0.00000000000E+00 0.  1.
        -15    1    3    3    0    0 -0.11765140617E+01  0.21961877242E+01 -0.19169729312E+02  0.19412461893E+02  0.17770000000E+01 0.  1.
         15    1    3    3    0    0 -0.22091099830E+02 -0.43224875789E+02  0.46163499675E+02  0.67012185533E+02  0.17770000000E+01 0. -1.
</event>
<event>
 7    1  0.3965397E-009  0.1550448E+03  0.7546771E-02  0.1092687E+00
        -11   -1    0    0    0    0  0.00000000000E+00  0.00000000000E+00  0.18250000000E+03  0.18250000000E+03  0.00000000000E+00 0. -1.
         11   -1    0    0    0    0 -0.00000000000E+00 -0.00000000000E+00 -0.18250000000E+03  0.18250000000E+03  0.00000000000E+00 0.  1.
         23    2    1    2    0    0 -0.38227265065E+02 -0.85829645654E+02  0.37060324793E+02  0.16202967295E+03  0.12669686411E+03 0.  0.
        -11    1    1    2    0    0 -0.43781852763E+02  0.46307318525E+02 -0.80029566110E+02  0.10230322493E+03  0.00000000000E+00 0.  1.
         11    1    1    2    0    0  0.82009117828E+02  0.39522327129E+02  0.42969241317E+02  0.10066710211E+03  0.00000000000E+00 0. -1.
        -15    1    3    3    0    0 -0.74028054357E+02 -0.86297308437E+02  0.48170273809E+01  0.11381449713E+03  0.17770000000E+01 0. -1.
         15    1    3    3    0    0  0.35800789292E+02  0.46766278272E+00  0.32243297412E+02  0.48215175821E+02  0.17770000000E+01 0.  1.
</event>
<event>
 7    1  0.3965397E-009  0.1569311E+03  0.7546771E-02  0.1090852E+00
        -11   -1    0    0    0    0  0.00000000000E+00  0.00000000000E+00  0.18250000000E+03  0.18250000000E+03  0.00000000000E+00 0.  1.
         11   -1    0    0    0    0 -0.00000000000E+00 -0.00000000000E+00 -0.18250000000E+03  0.18250000000E+03  0.00000000000E+00 0. -1.
         23    2    1    2    0    0 -0.76519357221E+02  0.12005647848E+02 -0.44131911685E+02  0.13930344796E+03  0.10704427764E+03 0.  0.
        -11    1    1    2    0    0  0.85730270610E+02  0.33040848750E+02  0.11128502780E+03  0.14431124141E+03  0.00000000000E+00 0.  1.
         11    1    1    2    0    0 -0.92109133890E+01 -0.45046496599E+02 -0.67153116117E+02  0.81385310625E+02  0.00000000000E+00 0. -1.
        -15    1    3    3    0    0  0.22469330668E+02 -0.16735669713E+02 -0.27202232202E+01  0.28204801095E+02  0.17770000000E+01 0.  1.
         15    1    3    3    0    0 -0.98988687890E+02  0.28741317562E+02 -0.41411688465E+02  0.11109864687E+03  0.17770000000E+01 0. -1.
</event>
<event>
 7    1  0.3965397E-009  0.1288530E+03  0.7546771E-02  0.1121588E+00
        -11   -1    0    0    0    0  0.00000000000E+00  0.00000000000E+00  0.18250000000E+03  0.18250000000E+03  0.00000000000E+00 0.  1.
         11   -1    0    0    0    0 -0.00000000000E+00 -0.00000000000E+00 -0.18250000000E+03  0.18250000000E+03  0.00000000000E+00 0.  1.
         23    2    1    2    0    0 -0.61789055771E+02  0.39938318546E+02  0.65190010665E+01  0.96918133226E+02  0.62750860327E+02 0.  0.
        -11    1    1    2    0    0 -0.67461057801E+02 -0.70888292470E+02 -0.70471206163E+02  0.12059160513E+03  0.00000000000E+00 0.  1.
         11    1    1    2    0    0  0.12925011357E+03  0.30949973924E+02  0.63952205096E+02  0.14749026165E+03  0.00000000000E+00 0.  1.
        -15    1    3    3    0    0 -0.56925686890E+02  0.31202608643E+02 -0.20463042910E+02  0.68088401862E+02  0.17770000000E+01 0.  1.
         15    1    3    3    0    0 -0.48633688812E+01  0.87357099032E+01  0.26982043977E+02  0.28829731364E+02  0.17770000000E+01 0. -1.
</event>
<event>
 6    1  0.3965397E-009  0.1397691E+03  0.7546771E-02  0.1108697E+00
        -11   -1    0    0    0    0  0.00000000000E+00  0.00000000000E+00  0.18250000000E+03  0.18250000000E+03  0.00000000000E+00 0.  1.
         11   -1    0    0    0    0 -0.00000000000E+00 -0.00000000000E+00 -0.18250000000E+03  0.18250000000E+03  0.00000000000E+00 0.  1.
        -11    1    1    2    0    0  0.10564086538E+03  0.10401367685E+02 -0.10340434177E+03  0.14819122371E+03  0.00000000000E+00 0.  1.
         11    1    1    2    0    0 -0.58721440881E+02 -0.46361215459E+02  0.11571370934E+03  0.13779416696E+03  0.00000000000E+00 0.  1.
        -15    1    1    2    0    0 -0.98876285824E+01 -0.12891961801E+02  0.55248054220E+00  0.16353312870E+02  0.17770000000E+01 0. -1.
         15    1    1    2    0    0 -0.37031795918E+02  0.48851809576E+02 -0.12861848113E+02  0.62661296457E+02  0.17770000000E+01 0.  1.
</event>
<event>
 7    1  0.3965397E-009  0.1529599E+03  0.7546771E-02  0.1094750E+00
        -11   -1    0    0    0    0  0.00000000000E+00  0.00000000000E+00  0.18250000000E+03  0.18250000000E+03  0.00000000000E+00 0.  1.
         11   -1    0    0    0    0 -0.00000000000E+00 -0.00000000000E+00 -0.18250000000E+03  0.18250000000E+03  0.00000000000E+00 0. -1.
         23    2    1    2    0    0 -0.19032029510E+01 -0.47291949024E+02 -0.50507811429E+02  0.13915034682E+03  0.12071300419E+03 0.  0.
        -11    1    1    2    0    0  0.33248305899E+02  0.12227499362E+03 -0.60122412011E+01  0.12685728578E+03  0.00000000000E+00 0.  1.
         11    1    1    2    0    0 -0.31345102948E+02 -0.74983044597E+02  0.56520052630E+02  0.98992367408E+02  0.00000000000E+00 0. -1.
        -15    1    3    3    0    0  0.21891285957E+02  0.19535356763E+02  0.22743154513E+02  0.37165405566E+02  0.17770000000E+01 0.  1.
         15    1    3    3    0    0 -0.23794488908E+02 -0.66827305788E+02 -0.73250965942E+02  0.10198494125E+03  0.17770000000E+01 0. -1.
</event>
<event>
 7    1  0.3965397E-009  0.2060979E+03  0.7546771E-02  0.1051083E+00
        -11   -1    0    0    0    0  0.00000000000E+00  0.00000000000E+00  0.18250000000E+03  0.18250000000E+03  0.00000000000E+00 0. -1.
         11   -1    0    0    0    0 -0.00000000000E+00 -0.00000000000E+00 -0.18250000000E+03  0.18250000000E+03  0.00000000000E+00 0. -1.
         23    2    1    2    0    0 -0.21753820083E+02 -0.54792903192E+02 -0.66633715998E+01  0.95714385902E+02  0.75108935681E+02 0.  0.
        -11    1    1    2    0    0 -0.81031090272E+02 -0.47925291939E+02 -0.57633722536E+02  0.11038350045E+03  0.00000000000E+00 0. -1.
         11    1    1    2    0    0  0.10278491035E+03  0.10271819513E+03  0.64297094135E+02  0.15890211365E+03  0.00000000000E+00 0. -1.
        -15    1    3    3    0    0  0.18263137147E+02 -0.33403008380E+02 -0.26233376306E+02  0.46267168799E+02  0.17770000000E+01 0. -1.
         15    1    3    3    0    0 -0.40016957230E+02 -0.21389894812E+02  0.19570004706E+02  0.49447217103E+02  0.17770000000E+01 0.  1.
</event>
<event>
 7    1  0.3965397E-009  0.1562730E+03  0.7546771E-02  0.1091489E+00
        -11   -1    0    0    0    0  0.00000000000E+00  0.00000000000E+00  0.18250000000E+03  0.18250000000E+03  0.00000000000E+00 0. -1.
         11   -1    0    0    0    0 -0.00000000000E+00 -0.00000000000E+00 -0.18250000000E+03  0.18250000000E+03  0.00000000000E+00 0.  1.
         23    2    1    2    0    0 -0.13089567106E+03 -0.22008281178E+02 -0.87250448851E+02  0.17448672049E+03  0.72214497572E+02 0.  0.
        -11    1    1    2    0    0  0.99783874728E+02 -0.31175643839E+02  0.72310532773E+02  0.12711237381E+03  0.00000000000E+00 0. -1.
         11    1    1    2    0    0  0.31111796336E+02  0.53183925017E+02  0.14939916078E+02  0.63400905703E+02  0.00000000000E+00 0.  1.
        -15    1    3    3    0    0 -0.13426096016E+03 -0.10456414897E+02 -0.90043956081E+02  0.16200744980E+03  0.17770000000E+01 0.  1.
         15    1    3    3    0    0  0.33652890980E+01 -0.11551866281E+02  0.27935072294E+01  0.12479270689E+02  0.17770000000E+01 0. -1.
</event>
<event>
 6    1  0.3965397E-009  0.1682749E+03  0.7546771E-02  0.1080378E+00
        -11   -1    0    0    0    0  0.00000000000E+00  0.00000000000E+00  0.18250000000E+03  0.18250000000E+03  0.00000000000E+00 0.  1.
         11   -1    0    0    0    0 -0.00000000000E+00 -0.00000000000E+00 -0.18250000000E+03  0.18250000000E+03  0.00000000000E+00 0.  1.
        -11    1    1    2    0    0 -0.48242833898E+02 -0.13342054136E+03 -0.93699572566E+02  0.17002359183E+03  0.00000000000E+00 0.  1.
         11    1    1    2    0    0  0.31845609759E+02  0.13268293204E+03  0.96169013703E+02  0.16693526444E+03  0.00000000000E+00 0.  1.
        -15    1    1    2    0    0  0.20912012861E+02 -0.48453980565E+00 -0.60976914557E+01  0.21860618262E+02  0.17770000000E+01 0. -1.
         15    1    1    2    0    0 -0.45147887228E+01  0.12221491259E+01  0.36282503184E+01  0.61805254688E+01  0.17770000000E+01 0.  1.
</event>
<event>
 7    1  0.3965397E-009  0.1610895E+03  0.7546771E-02  0.1086902E+00
        -11   -1    0    0    0    0  0.00000000000E+00  0.00000000000E+00  0.18250000000E+03  0.18250000000E+03  0.00000000000E+00 0. -1.
         11   -1    0    0    0    0 -0.00000000000E+00 -0.00000000000E+00 -0.18250000000E+03  0.18250000000E+03  0.00000000000E+00 0. -1.
         23    2    1    2    0    0 -0.78939794464E+02 -0.10451022151E+03  0.66952802916E+02  0.16629759673E+03  0.77577930563E+02 0.  0.
        -11    1    1    2    0    0  0.24268822789E+02  0.31685216903E+02  0.41170805736E+02  0.57340770615E+02  0.00000000000E+00 0. -1.
         11    1    1    2    0    0  0.54670971675E+02  0.72825004602E+02 -0.10812360865E+03  0.14136163266E+03  0.00000000000E+00 0. -1.
        -15    1    3    3    0    0 -0.24406358676E+02 -0.58033922098E+02  0.70500662498E+02  0.94536276632E+02  0.17770000000E+01 0. -1.
         15    1    3    3    0    0 -0.54533435789E+02 -0.46476299407E+02 -0.35478595813E+01  0.71761320097E+02  0.17770000000E+01 0.  1.
</event>
<event>
 7    1  0.3965397E-009  0.1739765E+03  0.7546771E-02  0.1075449E+00
        -11   -1    0    0    0    0  0.00000000000E+00  0.00000000000E+00  0.18250000000E+03  0.18250000000E+03  0.00000000000E+00 0.  1.
         11   -1    0    0    0    0 -0.00000000000E+00 -0.00000000000E+00 -0.18250000000E+03  0.18250000000E+03  0.00000000000E+00 0.  1.
         23    2    1    2    0    0 -0.14061171483E+03  0.28814279927E+02  0.15981460845E+02  0.16196033534E+03  0.73306384836E+02 0.  0.
        -11    1    1    2    0    0  0.16902475249E+03 -0.16330891591E+02 -0.22594666863E+02  0.17130844680E+03  0.00000000000E+00 0.  1.
         11    1    1    2    0    0 -0.28413037658E+02 -0.12483388336E+02  0.66132060184E+01  0.31731217864E+02  0.00000000000E+00 0.  1.
        -15    1    3    3    0    0 -0.14480621559E+02  0.11812370781E+02  0.28430644055E+02  0.34068750411E+02  0.17770000000E+01 0. -1.
         15    1    3    3    0    0 -0.12613109327E+03  0.17001909147E+02 -0.12449183210E+02  0.12789158493E+03  0.17770000000E+01 0.  1.
</event>
<event>
 6    1  0.3965397E-009  0.2195707E+03  0.7546771E-02  0.1042263E+00
        -11   -1    0    0    0    0  0.00000000000E+00  0.00000000000E+00  0.18250000000E+03  0.18250000000E+03  0.00000000000E+00 0.  1.
         11   -1    0    0    0    0 -0.00000000000E+00 -0.00000000000E+00 -0.18250000000E+03  0.18250000000E+03  0.00000000000E+00 0. -1.
        -11    1    1    2    0    0  0.24429453814E+02 -0.10266538181E+01 -0.71117844526E+02  0.75203723589E+02  0.00000000000E+00 0. -1.
         11    1    1    2    0    0  0.49052666330E+02 -0.34491370153E+02  0.10235077618E+02  0.60832355724E+02  0.00000000000E+00 0.  1.
        -15    1    1    2    0    0 -0.27892528846E+02 -0.33274890190E+02  0.11987212149E+03  0.12750566545E+03  0.17770000000E+01 0.  1.
         15    1    1    2    0    0 -0.45589591298E+02  0.68792914160E+02 -0.58989354580E+02  0.10145825524E+03  0.17770000000E+01 0. -1.
</event>
<event>
 7    1  0.3965397E-009  0.1460193E+03  0.7546771E-02  0.1101886E+00
        -11   -1    0    0    0    0  0.00000000000E+00  0.00000000000E+00  0.18250000000E+03  0.18250000000E+03  0.00000000000E+00 0. -1.
         11   -1    0    0    0    0 -0.00000000000E+00 -0.00000000000E+00 -0.18250000000E+03  0.18250000000E+03  0.00000000000E+00 0.  1.
         23    2    1    2    0    0 -0.12318440743E+02 -0.29451445438E+02 -0.13614937693E+03  0.15789465293E+03  0.73313961602E+02 0.  0.
        -11    1    1    2    0    0  0.75046776173E+02 -0.78090848033E+01  0.10113132420E+03  0.12617664266E+03  0.00000000000E+00 0. -1.
         11    1    1    2    0    0 -0.62728335430E+02  0.37260530241E+02  0.35018052731E+02  0.80928704405E+02  0.00000000000E+00 0.  1.
        -15    1    3    3    0    0  0.15939256920E+01 -0.42329831866E+02 -0.35025235396E+02  0.54993455142E+02  0.17770000000E+01 0.  1.
         15    1    3    3    0    0 -0.13912366435E+02  0.12878386429E+02 -0.10112414153E+03  0.10290119779E+03  0.17770000000E+01 0. -1.
</event>
<event>
 7    1  0.6898420E-009  0.2087023E+03  0.7546771E-02  0.1049322E+00
        -11   -1    0    0    0    0  0.00000000000E+00  0.00000000000E+00  0.18250000000E+03  0.18250000000E+03  0.00000000000E+00 0.  1.
         11   -1    0    0    0    0 -0.00000000000E+00 -0.00000000000E+00 -0.18250000000E+03  0.18250000000E+03  0.00000000000E+00 0. -1.
         23    2    1    2    0    0 -0.20785471084E+02  0.24371244358E+02  0.22786872194E+02  0.86255732687E+02  0.76777708466E+02 0.  0.
        -11    1    1    2    0    0  0.46767757659E+02 -0.56261589428E+02 -0.13811724487E+03  0.15629767411E+03  0.00000000000E+00 0. -1.
         11    1    1    2    0    0 -0.25982286575E+02  0.31890345070E+02  0.11533037268E+03  0.12244659320E+03  0.00000000000E+00 0.  1.
        -15    1    3    3    0    0 -0.39122832991E+02 -0.96926641339E+01  0.25005302817E+02  0.47465426335E+02  0.17770000000E+01 0. -1.
         15    1    3    3    0    0  0.18337361907E+02  0.34063908492E+02 -0.22184306227E+01  0.38790306352E+02  0.17770000000E+01 0.  1.
</event>
<event>
 7    1  0.3965397E-009  0.1512372E+03  0.7546771E-02  0.1096482E+00
        -11   -1    0    0    0    0  0.00000000000E+00  0.00000000000E+00  0.18250000000E+03  0.18250000000E+03  0.00000000000E+00 0. -1.
         11   -1    0    0    0    0 -0.00000000000E+00 -0.00000000000E+00 -0.18250000000E+03  0.18250000000E+03  0.00000000000E+00 0. -1.
         23    2    1    2    0    0  0.99730517920E+02  0.37953002082E+02  0.11898502555E+02  0.15038508113E+03  0.10529715898E+03 0.  0.
        -11    1    1    2    0    0 -0.10274654001E+02 -0.50410403602E+02  0.73897080066E+02  0.90041966596E+02  0.00000000000E+00 0. -1.
         11    1    1    2    0    0 -0.89455863919E+02  0.12457401519E+02 -0.85795582622E+02  0.12457295228E+03  0.00000000000E+00 0. -1.
        -15    1    3    3    0    0  0.51549319906E+02  0.44997020428E+02  0.53055691507E+02  0.86603281464E+02  0.17770000000E+01 0.  1.
         15    1    3    3    0    0  0.48181198014E+02 -0.70440183457E+01 -0.41157188952E+02  0.63781799661E+02  0.17770000000E+01 0. -1.
</event>
<event>
 6    1  0.3965397E-009  0.7765352E+02  0.7546771E-02  0.1209316E+00
        -11   -1    0    0    0    0  0.00000000000E+00  0.00000000000E+00  0.18250000000E+03  0.18250000000E+03  0.00000000000E+00 0. -1.
         11   -1    0    0    0    0 -0.00000000000E+00 -0.00000000000E+00 -0.18250000000E+03  0.18250000000E+03  0.00000000000E+00 0. -1.
        -11    1    1    2    0    0 -0.78682242911E+02  0.91652916332E+01  0.70795333250E+02  0.10623971541E+03  0.00000000000E+00 0. -1.
         11    1    1    2    0    0  0.97747128473E+02 -0.24715333103E+02 -0.74596909974E+00  0.10082611410E+03  0.00000000000E+00 0. -1.
        -15    1    1    2    0    0 -0.20284591586E+02  0.75658517253E+02 -0.23258147073E+02  0.81729890633E+02  0.17770000000E+01 0. -1.
         15    1    1    2    0    0  0.12197060239E+01 -0.60108475782E+02 -0.46791217077E+02  0.76204279855E+02  0.17770000000E+01 0.  1.
</event>
<event>
 6    1  0.3965397E-009  0.1437236E+03  0.7546771E-02  0.1104344E+00
        -11   -1    0    0    0    0  0.00000000000E+00  0.00000000000E+00  0.18250000000E+03  0.18250000000E+03  0.00000000000E+00 0.  1.
         11   -1    0    0    0    0 -0.00000000000E+00 -0.00000000000E+00 -0.18250000000E+03  0.18250000000E+03  0.00000000000E+00 0. -1.
        -11    1    1    2    0    0 -0.14479786667E+03 -0.54924740691E+02  0.16109099135E+02  0.15570052153E+03  0.00000000000E+00 0.  1.
         11    1    1    2    0    0  0.11491164510E+03  0.44379686370E+02 -0.59237193032E+02  0.13668682372E+03  0.00000000000E+00 0. -1.
        -15    1    1    2    0    0 -0.28971966233E+01 -0.15708695318E+01  0.36872544246E+02  0.37062158970E+02  0.17770000000E+01 0. -1.
         15    1    1    2    0    0  0.32783418194E+02  0.12115923852E+02  0.62555496516E+01  0.35550495774E+02  0.17770000000E+01 0.  1.
</event>
<event>
 7    1  0.3965397E-009  0.1426418E+03  0.7546771E-02  0.1105519E+00
        -11   -1    0    0    0    0  0.00000000000E+00  0.00000000000E+00  0.18250000000E+03  0.18250000000E+03  0.00000000000E+00 0. -1.
         11   -1    0    0    0    0 -0.00000000000E+00 -0.00000000000E+00 -0.18250000000E+03  0.18250000000E+03  0.00000000000E+00 0. -1.
         23    2    1    2    0    0 -0.70307616666E+01  0.92539139272E+01 -0.38586739695E+02  0.76884131232E+02  0.65476458537E+02 0.  0.
        -11    1    1    2    0    0 -0.10891778921E+03  0.10163159252E+02  0.10622835483E+03  0.15248225465E+03  0.00000000000E+00 0. -1.
         11    1    1    2    0    0  0.11594855088E+03 -0.19417073180E+02 -0.67641615131E+02  0.13563361412E+03  0.00000000000E+00 0. -1.
        -15    1    3    3    0    0 -0.24381411786E+02 -0.20525038314E+02 -0.20293720926E+02  0.37824902862E+02  0.17770000000E+01 0. -1.
         15    1    3    3    0    0  0.17350650120E+02  0.29778952242E+02 -0.18293018769E+02  0.39059228370E+02  0.17770000000E+01 0.  1.
</event>
<event>
 7    1  0.3965397E-009  0.2021886E+03  0.7546771E-02  0.1053780E+00
        -11   -1    0    0    0    0  0.00000000000E+00  0.00000000000E+00  0.18250000000E+03  0.18250000000E+03  0.00000000000E+00 0.  1.
         11   -1    0    0    0    0 -0.00000000000E+00 -0.00000000000E+00 -0.18250000000E+03  0.18250000000E+03  0.00000000000E+00 0. -1.
         23    2    1    2    0    0  0.65381569228E+01  0.24696669575E+02 -0.54936059548E+02  0.91907910485E+02  0.69111651601E+02 0.  0.
        -11    1    1    2    0    0  0.49883179384E+02 -0.62055130638E+02  0.14201540571E+03  0.16281138254E+03  0.00000000000E+00 0.  1.
         11    1    1    2    0    0 -0.56421336307E+02  0.37358461064E+02 -0.87079346163E+02  0.11028070698E+03  0.00000000000E+00 0. -1.
        -15    1    3    3    0    0  0.13507658485E+02 -0.89958841513E+01 -0.55087539266E+02  0.57455874207E+02  0.17770000000E+01 0. -1.
         15    1    3    3    0    0 -0.69695015618E+01  0.33692553726E+02  0.15147971883E+00  0.34452036278E+02  0.17770000000E+01 0.  1.
</event>
<event>
 7    1  0.3965397E-009  0.1321135E+03  0.7546771E-02  0.1117594E+00
        -11   -1    0    0    0    0  0.00000000000E+00  0.00000000000E+00  0.18250000000E+03  0.18250000000E+03  0.00000000000E+00 0. -1.
         11   -1    0    0    0    0 -0.00000000000E+00 -0.00000000000E+00 -0.18250000000E+03  0.18250000000E+03  0.00000000000E+00 0. -1.
         23    2    1    2    0    0 -0.69642842182E+00  0.12975134133E+03 -0.56172811211E+02  0.15611054912E+03  0.66175699748E+02 0.  0.
        -11    1    1    2    0    0  0.56690755980E+02 -0.92285844690E+02 -0.16764797275E+02  0.10959734199E+03  0.00000000000E+00 0. -1.
         11    1    1    2    0    0 -0.55994327558E+02 -0.37465496636E+02  0.72937608486E+02  0.99292108894E+02  0.00000000000E+00 0. -1.
        -15    1    3    3    0    0 -0.22677588413E+02  0.11690956973E+03 -0.53113939528E+02  0.13040846910E+03  0.17770000000E+01 0. -1.
         15    1    3    3    0    0  0.21981159991E+02  0.12841771593E+02 -0.30588716830E+01  0.25702080017E+02  0.17770000000E+01 0.  1.
</event>
<event>
 7    1  0.3965397E-009  0.1623141E+03  0.7546771E-02  0.1085764E+00
        -11   -1    0    0    0    0  0.00000000000E+00  0.00000000000E+00  0.18250000000E+03  0.18250000000E+03  0.00000000000E+00 0.  1.
         11   -1    0    0    0    0 -0.00000000000E+00 -0.00000000000E+00 -0.18250000000E+03  0.18250000000E+03  0.00000000000E+00 0. -1.
         23    2    1    2    0    0  0.77895895394E+01 -0.71303559661E+02  0.12921904920E+03  0.18363056544E+03  0.10898507496E+03 0.  0.
        -11    1    1    2    0    0 -0.50452750353E+02  0.39820302218E+02 -0.34822217510E+02  0.73100775094E+02  0.00000000000E+00 0.  1.
         11    1    1    2    0    0  0.42663160814E+02  0.31483257442E+02 -0.94396831686E+02  0.10826865946E+03  0.00000000000E+00 0. -1.
        -15    1    3    3    0    0 -0.39289194231E+01 -0.92885245217E+02  0.12898472107E+03  0.15900729916E+03  0.17770000000E+01 0.  1.
         15    1    3    3    0    0  0.11718508962E+02  0.21581685556E+02  0.23432812430E+00  0.24623266282E+02  0.17770000000E+01 0. -1.
</event>
<event>
 7    1  0.3965397E-009  0.1243008E+03  0.7546771E-02  0.1127388E+00
        -11   -1    0    0    0    0  0.00000000000E+00  0.00000000000E+00  0.18250000000E+03  0.18250000000E+03  0.00000000000E+00 0.  1.
         11   -1    0    0    0    0 -0.00000000000E+00 -0.00000000000E+00 -0.18250000000E+03  0.18250000000E+03  0.00000000000E+00 0.  1.
         23    2    1    2    0    0  0.61637733895E+02  0.36845384704E+02 -0.61983255259E+02  0.12016785666E+03  0.73767182590E+02 0.  0.
        -11    1    1    2    0    0 -0.11682652738E+03  0.54849071456E+02  0.24027553970E+02  0.13127902151E+03  0.00000000000E+00 0.  1.
         11    1    1    2    0    0  0.55188793487E+02 -0.91694456160E+02  0.37955701290E+02  0.11355312183E+03  0.00000000000E+00 0.  1.
        -15    1    3    3    0    0  0.53274539959E+02  0.54579167338E+02 -0.28724091484E+02  0.81518668265E+02  0.17770000000E+01 0.  1.
         15    1    3    3    0    0  0.83631939360E+01 -0.17733782633E+02 -0.33259163776E+02  0.38649188392E+02  0.17770000000E+01 0. -1.
</event>
<event>
 7    1  0.3965397E-009  0.1474192E+03  0.7546771E-02  0.1100412E+00
        -11   -1    0    0    0    0  0.00000000000E+00  0.00000000000E+00  0.18250000000E+03  0.18250000000E+03  0.00000000000E+00 0.  1.
         11   -1    0    0    0    0 -0.00000000000E+00 -0.00000000000E+00 -0.18250000000E+03  0.18250000000E+03  0.00000000000E+00 0.  1.
         23    2    1    2    0    0 -0.42609962804E+01 -0.37443976363E+02  0.52290587328E+02  0.13766606420E+03  0.12164469678E+03 0.  0.
        -11    1    1    2    0    0  0.10773200943E+03  0.44412047180E+02 -0.16846240919E+02  0.11773874309E+03  0.00000000000E+00 0.  1.
         11    1    1    2    0    0 -0.10347101315E+03 -0.69680708169E+01 -0.35444346409E+02  0.10959519271E+03  0.00000000000E+00 0.  1.
        -15    1    3    3    0    0 -0.66021224634E+01 -0.31460078585E+02  0.91963983644E+02  0.97436423283E+02  0.17770000000E+01 0.  1.
         15    1    3    3    0    0  0.23411261830E+01 -0.59838977780E+01 -0.39673396316E+02  0.40229640921E+02  0.17770000000E+01 0. -1.
</event>
<event>
 7    1  0.3965397E-009  0.1384440E+03  0.7546771E-02  0.1110191E+00
        -11   -1    0    0    0    0  0.00000000000E+00  0.00000000000E+00  0.18250000000E+03  0.18250000000E+03  0.00000000000E+00 0.  1.
         11   -1    0    0    0    0 -0.00000000000E+00 -0.00000000000E+00 -0.18250000000E+03  0.18250000000E+03  0.00000000000E+00 0. -1.
         23    2    1    2    0    0 -0.30685888240E+02 -0.22588521667E+02 -0.37160752776E+02  0.11998929871E+03  0.10753904040E+03 0.  0.
        -11    1    1    2    0    0 -0.15385910397E+02 -0.23336822960E+02  0.12926358896E+03  0.13225130992E+03  0.00000000000E+00 0.  1.
         11    1    1    2    0    0  0.46071798637E+02  0.45925344627E+02 -0.92102836186E+02  0.11275939137E+03  0.00000000000E+00 0. -1.
        -15    1    3    3    0    0  0.28325111279E+02 -0.84357623809E+00  0.20204130943E+02  0.34848072917E+02  0.17770000000E+01 0.  1.
         15    1    3    3    0    0 -0.59010999520E+02 -0.21744945429E+02 -0.57364883719E+02  0.85141225791E+02  0.17770000000E+01 0. -1.
</event>
<event>
 7    1  0.3965397E-009  0.1575144E+03  0.7546771E-02  0.1090290E+00
        -11   -1    0    0    0    0  0.00000000000E+00  0.00000000000E+00  0.18250000000E+03  0.18250000000E+03  0.00000000000E+00 0. -1.
         11   -1    0    0    0    0 -0.00000000000E+00 -0.00000000000E+00 -0.18250000000E+03  0.18250000000E+03  0.00000000000E+00 0. -1.
         23    2    1    2    0    0 -0.29142200115E+02  0.14800862576E+02 -0.81928235771E+02  0.14044586017E+03  0.10929076110E+03 0.  0.
        -11    1    1    2    0    0 -0.35148761830E+02  0.73347770439E+02 -0.99196663057E+01  0.81937358184E+02  0.00000000000E+00 0. -1.
         11    1    1    2    0    0  0.64290961945E+02 -0.88148633016E+02  0.91847902077E+02  0.14261678164E+03  0.00000000000E+00 0. -1.
        -15    1    3    3    0    0 -0.35287932882E+02 -0.40514834131E+02 -0.20495519591E+02  0.57531852431E+02  0.17770000000E+01 0.  1.
         15    1    3    3    0    0  0.61457327673E+01  0.55315696707E+02 -0.61432716180E+02  0.82914007742E+02  0.17770000000E+01 0. -1.
</event>
<event>
 7    1  0.3965397E-009  0.1514975E+03  0.7546771E-02  0.1096219E+00
        -11   -1    0    0    0    0  0.00000000000E+00  0.00000000000E+00  0.18250000000E+03  0.18250000000E+03  0.00000000000E+00 0.  1.
         11   -1    0    0    0    0 -0.00000000000E+00 -0.00000000000E+00 -0.18250000000E+03  0.18250000000E+03  0.00000000000E+00 0.  1.
         23    2    1    2    0    0 -0.31743150930E+02 -0.55131223411E+01  0.12142356959E+03  0.14313737640E+03  0.68604687330E+02 0.  0.
        -11    1    1    2    0    0 -0.46111177647E+02  0.52669939570E+02  0.13451238918E+00  0.70002723746E+02  0.00000000000E+00 0.  1.
         11    1    1    2    0    0  0.77854328577E+02 -0.47156817229E+02 -0.12155808198E+03  0.15185989985E+03  0.00000000000E+00 0.  1.
        -15    1    3    3    0    0  0.14041917834E+02 -0.56128491526E+01  0.79783559223E+02  0.81223479262E+02  0.17770000000E+01 0. -1.
         15    1    3    3    0    0 -0.45785068764E+02  0.99726811498E-01  0.41640010363E+02  0.61913897141E+02  0.17770000000E+01 0.  1.
</event>
<event>
 7    1  0.3965397E-009  0.1928210E+03  0.7546771E-02  0.1060524E+00
        -11   -1    0    0    0    0  0.00000000000E+00  0.00000000000E+00  0.18250000000E+03  0.18250000000E+03  0.00000000000E+00 0.  1.
         11   -1    0    0    0    0 -0.00000000000E+00 -0.00000000000E+00 -0.18250000000E+03  0.18250000000E+03  0.00000000000E+00 0. -1.
         23    2    1    2    0    0 -0.65062601314E+02 -0.22936120487E+01 -0.84361672549E+02  0.12224642474E+03  0.59907377003E+02 0.  0.
        -11    1    1    2    0    0  0.12183705942E+03  0.26184512338E+02  0.11880955402E+03  0.17217899948E+03  0.00000000000E+00 0.  1.
         11    1    1    2    0    0 -0.56774458104E+02 -0.23890900289E+02 -0.34447881473E+02  0.70574575788E+02  0.00000000000E+00 0. -1.
        -15    1    3    3    0    0 -0.45787793617E+02  0.24097358624E+02 -0.68535484639E+02  0.85892229688E+02  0.17770000000E+01 0.  1.
         15    1    3    3    0    0 -0.19274807698E+02 -0.26390970673E+02 -0.15826187909E+02  0.36354195048E+02  0.17770000000E+01 0. -1.
</event>
<event>
 7    1  0.3965397E-009  0.1711959E+03  0.7546771E-02  0.1077827E+00
        -11   -1    0    0    0    0  0.00000000000E+00  0.00000000000E+00  0.18250000000E+03  0.18250000000E+03  0.00000000000E+00 0.  1.
         11   -1    0    0    0    0 -0.00000000000E+00 -0.00000000000E+00 -0.18250000000E+03  0.18250000000E+03  0.00000000000E+00 0.  1.
         23    2    1    2    0    0  0.11339780172E+03 -0.96141139205E+02  0.63761392102E+01  0.15974946413E+03  0.58112443196E+02 0.  0.
        -11    1    1    2    0    0  0.13954032764E+02 -0.21817057776E+02 -0.17581252351E+02  0.31301748747E+02  0.00000000000E+00 0.  1.
         11    1    1    2    0    0 -0.12735183449E+03  0.11795819698E+03  0.11205113141E+02  0.17394878713E+03  0.00000000000E+00 0.  1.
        -15    1    3    3    0    0  0.11960960445E+03 -0.94465438167E+02  0.34563174586E+01  0.15246402967E+03  0.17770000000E+01 0.  1.
         15    1    3    3    0    0 -0.62118027280E+01 -0.16757010378E+01  0.29198217516E+01  0.72854344525E+01  0.17770000000E+01 0. -1.
</event>
<event>
 7    1  0.3965397E-009  0.1483315E+03  0.7546771E-02  0.1099461E+00
        -11   -1    0    0    0    0  0.00000000000E+00  0.00000000000E+00  0.18250000000E+03  0.18250000000E+03  0.00000000000E+00 0. -1.
         11   -1    0    0    0    0 -0.00000000000E+00 -0.00000000000E+00 -0.18250000000E+03  0.18250000000E+03  0.00000000000E+00 0. -1.
         23    2    1    2    0    0  0.59675295361E+00  0.35259733576E+02  0.19103250812E+02  0.13166119741E+03  0.12540387468E+03 0.  0.
        -11    1    1    2    0    0  0.66077353511E+02 -0.22871107003E+01 -0.10225816891E+03  0.12177101721E+03  0.00000000000E+00 0. -1.
         11    1    1    2    0    0 -0.66674106465E+02 -0.32972622876E+02  0.83154918098E+02  0.11156778539E+03  0.00000000000E+00 0. -1.
        -15    1    3    3    0    0 -0.46577680247E+02  0.54186850040E+02 -0.11362742306E+02  0.72373784316E+02  0.17770000000E+01 0. -1.
         15    1    3    3    0    0  0.47174433201E+02 -0.18927116464E+02  0.30465993118E+02  0.59287413092E+02  0.17770000000E+01 0.  1.
</event>
<event>
 7    1  0.3965397E-009  0.1315627E+03  0.7546771E-02  0.1118260E+00
        -11   -1    0    0    0    0  0.00000000000E+00  0.00000000000E+00  0.18250000000E+03  0.18250000000E+03  0.00000000000E+00 0. -1.
         11   -1    0    0    0    0 -0.00000000000E+00 -0.00000000000E+00 -0.18250000000E+03  0.18250000000E+03  0.00000000000E+00 0. -1.
         23    2    1    2    0    0 -0.56029749796E+02  0.22211783250E+02 -0.36169677760E+01  0.95035621427E+02  0.73389309213E+02 0.  0.
        -11    1    1    2    0    0  0.77184622593E+02  0.10885641093E+03 -0.20555099989E+02  0.13501739258E+03  0.00000000000E+00 0. -1.
         11    1    1    2    0    0 -0.21154872797E+02 -0.13106819418E+03  0.24172067765E+02  0.13494698599E+03  0.00000000000E+00 0. -1.
        -15    1    3    3    0    0 -0.68498993867E+02  0.65142331639E+01 -0.16958355688E+02  0.70889286575E+02  0.17770000000E+01 0. -1.
         15    1    3    3    0    0  0.12469244071E+02  0.15697550086E+02  0.13341387912E+02  0.24146334852E+02  0.17770000000E+01 0.  1.
</event>
<event>
 6    1  0.3965397E-009  0.9845927E+02  0.7546771E-02  0.1166508E+00
        -11   -1    0    0    0    0  0.00000000000E+00  0.00000000000E+00  0.18250000000E+03  0.18250000000E+03  0.00000000000E+00 0.  1.
         11   -1    0    0    0    0 -0.00000000000E+00 -0.00000000000E+00 -0.18250000000E+03  0.18250000000E+03  0.00000000000E+00 0.  1.
        -11    1    1    2    0    0  0.31002563720E+02 -0.76448131895E+02 -0.95225649538E+02  0.12598968274E+03  0.00000000000E+00 0.  1.
         11    1    1    2    0    0  0.34810635407E+02  0.50957763620E+02  0.43901398125E+02  0.75735109216E+02  0.00000000000E+00 0.  1.
        -15    1    1    2    0    0 -0.66982321013E+02 -0.45666691063E+02  0.12070652862E+02  0.81981317326E+02  0.17770000000E+01 0.  1.
         15    1    1    2    0    0  0.11691218856E+01  0.71157059337E+02  0.39253598552E+02  0.81293890716E+02  0.17770000000E+01 0. -1.
</event>
<event>
 7    1  0.3965397E-009  0.1688816E+03  0.7546771E-02  0.1079843E+00
        -11   -1    0    0    0    0  0.00000000000E+00  0.00000000000E+00  0.18250000000E+03  0.18250000000E+03  0.00000000000E+00 0. -1.
         11   -1    0    0    0    0 -0.00000000000E+00 -0.00000000000E+00 -0.18250000000E+03  0.18250000000E+03  0.00000000000E+00 0. -1.
         23    2    1    2    0    0  0.74819306959E+02  0.67611246316E+02 -0.54462734474E+02  0.15717904433E+03  0.10756325212E+03 0.  0.
        -11    1    1    2    0    0 -0.72239558519E+02 -0.12421390625E+03  0.34822135539E+02  0.14785205256E+03  0.00000000000E+00 0. -1.
         11    1    1    2    0    0 -0.25797484401E+01  0.56602659939E+02  0.19640598935E+02  0.59968903114E+02  0.00000000000E+00 0. -1.
        -15    1    3    3    0    0 -0.27678673806E+02  0.93585640818E+01 -0.14628198541E+02  0.32723594346E+02  0.17770000000E+01 0.  1.
         15    1    3    3    0    0  0.10249798077E+03  0.58252682234E+02 -0.39834535934E+02  0.12445544998E+03  0.17770000000E+01 0. -1.
</event>
<event>
 7    1  0.3965397E-009  0.1253907E+03  0.7546771E-02  0.1125974E+00
        -11   -1    0    0    0    0  0.00000000000E+00  0.00000000000E+00  0.18250000000E+03  0.18250000000E+03  0.00000000000E+00 0.  1.
         11   -1    0    0    0    0 -0.00000000000E+00 -0.00000000000E+00 -0.18250000000E+03  0.18250000000E+03  0.00000000000E+00 0.  1.
         23    2    1    2    0    0  0.30577961134E+02  0.15261041237E+02  0.66356427537E+02  0.10334677690E+03  0.71480554935E+02 0.  0.
        -11    1    1    2    0    0 -0.11773059334E+02  0.11029289526E+03 -0.75803743730E+02  0.13434781440E+03  0.00000000000E+00 0.  1.
         11    1    1    2    0    0 -0.18804901800E+02 -0.12555393649E+03  0.94473161938E+01  0.12730540870E+03  0.00000000000E+00 0.  1.
        -15    1    3    3    0    0  0.40702791562E+02  0.49107647949E+01  0.75640721235E+02  0.86055268809E+02  0.17770000000E+01 0. -1.
         15    1    3    3    0    0 -0.10124830428E+02  0.10350276442E+02 -0.92842936990E+01  0.17291508092E+02  0.17770000000E+01 0.  1.
</event>
<event>
 7    1  0.3965397E-009  0.1606303E+03  0.7546771E-02  0.1087332E+00
        -11   -1    0    0    0    0  0.00000000000E+00  0.00000000000E+00  0.18250000000E+03  0.18250000000E+03  0.00000000000E+00 0. -1.
         11   -1    0    0    0    0 -0.00000000000E+00 -0.00000000000E+00 -0.18250000000E+03  0.18250000000E+03  0.00000000000E+00 0. -1.
         23    2    1    2    0    0  0.39605772444E+02 -0.60703513357E+00 -0.13268114620E+03  0.15302823275E+03  0.65148812413E+02 0.  0.
        -11    1    1    2    0    0  0.47735829301E+01 -0.12816732597E+02  0.15837421558E+03  0.15896366846E+03  0.00000000000E+00 0. -1.
         11    1    1    2    0    0 -0.44379355374E+02  0.13423767730E+02 -0.25693069384E+02  0.53008098795E+02  0.00000000000E+00 0. -1.
        -15    1    3    3    0    0  0.46302601559E+02  0.22930408072E+02 -0.91089783765E+02  0.10473891808E+03  0.17770000000E+01 0. -1.
         15    1    3    3    0    0 -0.66968291155E+01 -0.23537443206E+02 -0.41591362432E+02  0.48289314665E+02  0.17770000000E+01 0.  1.
</event>
<event>
 7    1  0.3965397E-009  0.1426154E+03  0.7546771E-02  0.1105548E+00
        -11   -1    0    0    0    0  0.00000000000E+00  0.00000000000E+00  0.18250000000E+03  0.18250000000E+03  0.00000000000E+00 0.  1.
         11   -1    0    0    0    0 -0.00000000000E+00 -0.00000000000E+00 -0.18250000000E+03  0.18250000000E+03  0.00000000000E+00 0.  1.
         23    2    1    2    0    0  0.18906797268E+02  0.29823657755E+02 -0.14137871281E+02  0.77244207560E+02  0.67229983285E+02 0.  0.
        -11    1    1    2    0    0 -0.12142123356E+03  0.33134725249E+02 -0.67062587870E+02  0.14261282084E+03  0.00000000000E+00 0.  1.
         11    1    1    2    0    0  0.10251443629E+03 -0.62958383004E+02  0.81200459151E+02  0.14514297160E+03  0.00000000000E+00 0.  1.
        -15    1    3    3    0    0 -0.80984796607E+01 -0.18654671886E+02 -0.41559783364E+01  0.20832955646E+02  0.17770000000E+01 0. -1.
         15    1    3    3    0    0  0.27005276929E+02  0.48478329641E+02 -0.99818929445E+01  0.56411251915E+02  0.17770000000E+01 0.  1.
</event>
<event>
 6    1  0.3965397E-009  0.1510892E+03  0.7546771E-02  0.1096632E+00
        -11   -1    0    0    0    0  0.00000000000E+00  0.00000000000E+00  0.18250000000E+03  0.18250000000E+03  0.00000000000E+00 0.  1.
         11   -1    0    0    0    0 -0.00000000000E+00 -0.00000000000E+00 -0.18250000000E+03  0.18250000000E+03  0.00000000000E+00 0.  1.
        -11    1    1    2    0    0  0.13987888076E+03  0.48444876422E+02  0.20616911457E+02  0.14945923984E+03  0.00000000000E+00 0.  1.
         11    1    1    2    0    0 -0.14693837370E+03 -0.46297487803E+02  0.10801808882E+02  0.15443776130E+03  0.00000000000E+00 0.  1.
        -15    1    1    2    0    0 -0.87357780462E+01  0.16321556886E+02  0.30961689948E+01  0.18853408941E+02  0.17770000000E+01 0.  1.
         15    1    1    2    0    0  0.15795270982E+02 -0.18468945505E+02 -0.34514889334E+02  0.42249589917E+02  0.17770000000E+01 0. -1.
</event>
<event>
 7    1  0.3965397E-009  0.1685492E+03  0.7546771E-02  0.1080136E+00
        -11   -1    0    0    0    0  0.00000000000E+00  0.00000000000E+00  0.18250000000E+03  0.18250000000E+03  0.00000000000E+00 0. -1.
         11   -1    0    0    0    0 -0.00000000000E+00 -0.00000000000E+00 -0.18250000000E+03  0.18250000000E+03  0.00000000000E+00 0.  1.
         23    2    1    2    0    0 -0.54515986437E+01  0.50024306420E+02  0.81509039478E+02  0.15101456643E+03  0.11674555493E+03 0.  0.
        -11    1    1    2    0    0 -0.28204080215E+02  0.60281655816E+02  0.92980914079E+01  0.67199722265E+02  0.00000000000E+00 0. -1.
         11    1    1    2    0    0  0.33655678858E+02 -0.11030596224E+03 -0.90807130886E+02  0.14678571131E+03  0.00000000000E+00 0.  1.
        -15    1    3    3    0    0 -0.17156707740E+01 -0.18748612936E+02  0.79890695277E+02  0.82098324795E+02  0.17770000000E+01 0. -1.
         15    1    3    3    0    0 -0.37359278697E+01  0.68772919356E+02  0.16183442011E+01  0.68916241633E+02  0.17770000000E+01 0.  1.
</event>
<event>
 7    1  0.3965397E-009  0.2152488E+03  0.7546771E-02  0.1045016E+00
        -11   -1    0    0    0    0  0.00000000000E+00  0.00000000000E+00  0.18250000000E+03  0.18250000000E+03  0.00000000000E+00 0.  1.
         11   -1    0    0    0    0 -0.00000000000E+00 -0.00000000000E+00 -0.18250000000E+03  0.18250000000E+03  0.00000000000E+00 0.  1.
         23    2    1    2    0    0 -0.22018406916E+00 -0.23783659436E+01 -0.13995695606E+02  0.73375504768E+02  0.71988749808E+02 0.  0.
        -11    1    1    2    0    0  0.10490071615E+03  0.45118857931E+02 -0.84191184636E+02  0.14187327853E+03  0.00000000000E+00 0.  1.
         11    1    1    2    0    0 -0.10468053208E+03 -0.42740491987E+02  0.98186880242E+02  0.14975121670E+03  0.00000000000E+00 0.  1.
        -15    1    3    3    0    0  0.22708063742E+02  0.26597343983E+02 -0.59830287887E+01  0.35525050716E+02  0.17770000000E+01 0. -1.
         15    1    3    3    0    0 -0.22928247811E+02 -0.28975709926E+02 -0.80126668176E+01  0.37850454052E+02  0.17770000000E+01 0.  1.
</event>
<event>
 7    1  0.3965397E-009  0.1778451E+03  0.7546771E-02  0.1072222E+00
        -11   -1    0    0    0    0  0.00000000000E+00  0.00000000000E+00  0.18250000000E+03  0.18250000000E+03  0.00000000000E+00 0. -1.
         11   -1    0    0    0    0 -0.00000000000E+00 -0.00000000000E+00 -0.18250000000E+03  0.18250000000E+03  0.00000000000E+00 0.  1.
         23    2    1    2    0    0 -0.21443747416E+02  0.93040726959E+02  0.96113073556E+02  0.17424547288E+03  0.10957805772E+03 0.  0.
        -11    1    1    2    0    0 -0.25879016626E+02 -0.25288487509E+02  0.25108952351E+02  0.44041918557E+02  0.00000000000E+00 0. -1.
         11    1    1    2    0    0  0.47322764042E+02 -0.67752239450E+02 -0.12122202591E+03  0.14671260857E+03  0.00000000000E+00 0.  1.
        -15    1    3    3    0    0 -0.19706464064E+02  0.36247802621E+02  0.10847472360E+03  0.11606968299E+03  0.17770000000E+01 0. -1.
         15    1    3    3    0    0 -0.17372833523E+01  0.56792924338E+02 -0.12361650042E+02  0.58175789887E+02  0.17770000000E+01 0.  1.
</event>
<event>
 7    1  0.3965397E-009  0.1516913E+03  0.7546771E-02  0.1096023E+00
        -11   -1    0    0    0    0  0.00000000000E+00  0.00000000000E+00  0.18250000000E+03  0.18250000000E+03  0.00000000000E+00 0.  1.
         11   -1    0    0    0    0 -0.00000000000E+00 -0.00000000000E+00 -0.18250000000E+03  0.18250000000E+03  0.00000000000E+00 0. -1.
         23    2    1    2    0    0 -0.13211545079E+01 -0.12118529441E+02 -0.72414039347E+02  0.12706678258E+03  0.10369942110E+03 0.  0.
        -11    1    1    2    0    0  0.29123317550E+02  0.42488752385E+02 -0.71568658723E+02  0.88178991919E+02  0.00000000000E+00 0. -1.
         11    1    1    2    0    0 -0.27802163042E+02 -0.30370222944E+02  0.14398269807E+03  0.14975422550E+03  0.00000000000E+00 0.  1.
        -15    1    3    3    0    0 -0.14642673888E+01 -0.51182113392E+02 -0.82040631043E+01  0.51886580063E+02  0.17770000000E+01 0.  1.
         15    1    3    3    0    0  0.14311288087E+00  0.39063583951E+02 -0.64209976243E+02  0.75180202517E+02  0.17770000000E+01 0. -1.
</event>
<event>
 6    1  0.3965397E-009  0.1928272E+03  0.7546771E-02  0.1060519E+00
        -11   -1    0    0    0    0  0.00000000000E+00  0.00000000000E+00  0.18250000000E+03  0.18250000000E+03  0.00000000000E+00 0. -1.
         11   -1    0    0    0    0 -0.00000000000E+00 -0.00000000000E+00 -0.18250000000E+03  0.18250000000E+03  0.00000000000E+00 0. -1.
        -11    1    1    2    0    0 -0.15300398898E+03 -0.37672672114E+01  0.29492249763E+01  0.15307877343E+03  0.00000000000E+00 0. -1.
         11    1    1    2    0    0  0.17015712751E+03  0.14075839568E+02 -0.22178675793E+02  0.17217279391E+03  0.00000000000E+00 0. -1.
        -15    1    1    2    0    0 -0.83837427274E+01 -0.19897169481E+02  0.12395618624E+02  0.24959839453E+02  0.17770000000E+01 0.  1.
         15    1    1    2    0    0 -0.87693958060E+01  0.95885971245E+01  0.68338321924E+01  0.14788593207E+02  0.17770000000E+01 0. -1.
</event>
