<event>
 6    1  0.2051709E-004  0.5310988E+03  0.7546771E-02  0.9332792E-01
        -11   -1    0    0    0    0  0.00000000000E+00  0.00000000000E+00  0.50000000000E+03  0.50000000000E+03  0.00000000000E+00 0.  1.
         11   -1    0    0    0    0 -0.00000000000E+00 -0.00000000000E+00 -0.50000000000E+03  0.50000000000E+03  0.00000000000E+00 0. -1.
        -11    1    1    2    0    0 -0.19115737463E+02 -0.54965321895E+02  0.46527594719E+03  0.46890116770E+03  0.00000000000E+00 0.  1.
         11    1    1    2    0    0  0.32972085182E+01  0.91036205323E+01 -0.40604966617E+03  0.40616508822E+03  0.00000000000E+00 0. -1.
        -15    1    1    2    0    0 -0.35370511857E+02 -0.24574527767E+01 -0.45641416111E+01  0.35792475477E+02  0.17770000000E+01 0.  1.
         15    1    1    2    0    0  0.51189040802E+02  0.48319154140E+02 -0.54662139415E+02  0.89141268610E+02  0.17770000000E+01 0. -1.
</event>
<event>
 6    1  0.2051709E-004  0.5431334E+03  0.7546771E-02  0.9308153E-01
        -11   -1    0    0    0    0  0.00000000000E+00  0.00000000000E+00  0.50000000000E+03  0.50000000000E+03  0.00000000000E+00 0.  1.
         11   -1    0    0    0    0 -0.00000000000E+00 -0.00000000000E+00 -0.50000000000E+03  0.50000000000E+03  0.00000000000E+00 0. -1.
        -11    1    1    2    0    0  0.61980344535E+02 -0.45736357592E+02  0.45032622618E+03  0.45686659705E+03  0.00000000000E+00 0.  1.
         11    1    1    2    0    0 -0.14146898577E+02  0.80529538381E+01 -0.31971203390E+03  0.32012617735E+03  0.00000000000E+00 0. -1.
        -15    1    1    2    0    0 -0.64529960774E+02  0.74088634303E+02 -0.13461578778E+02  0.99184743799E+02  0.17770000000E+01 0.  1.
         15    1    1    2    0    0  0.16696514816E+02 -0.36405230549E+02 -0.11715261351E+03  0.12382248180E+03  0.17770000000E+01 0. -1.
</event>
<event>
 6    1  0.2051709E-004  0.5678663E+03  0.7546771E-02  0.9259575E-01
        -11   -1    0    0    0    0  0.00000000000E+00  0.00000000000E+00  0.50000000000E+03  0.50000000000E+03  0.00000000000E+00 0.  1.
         11   -1    0    0    0    0 -0.00000000000E+00 -0.00000000000E+00 -0.50000000000E+03  0.50000000000E+03  0.00000000000E+00 0. -1.
        -11    1    1    2    0    0 -0.26688643916E+02  0.86813983727E+02  0.42248141260E+03  0.43213365464E+03  0.00000000000E+00 0.  1.
         11    1    1    2    0    0 -0.67306071356E+01 -0.57327706600E+01 -0.36888763214E+03  0.36899356482E+03  0.00000000000E+00 0. -1.
        -15    1    1    2    0    0  0.34747937741E+02 -0.85664215529E+02  0.43122904258E+02  0.10202215250E+03  0.17770000000E+01 0.  1.
         15    1    1    2    0    0 -0.13286866895E+01  0.45830024625E+01 -0.96716684714E+02  0.96850628036E+02  0.17770000000E+01 0. -1.
</event>
<event>
 6    1  0.2051709E-004  0.5023411E+03  0.7546771E-02  0.9394587E-01
        -11   -1    0    0    0    0  0.00000000000E+00  0.00000000000E+00  0.50000000000E+03  0.50000000000E+03  0.00000000000E+00 0.  1.
         11   -1    0    0    0    0 -0.00000000000E+00 -0.00000000000E+00 -0.50000000000E+03  0.50000000000E+03  0.00000000000E+00 0.  1.
        -11    1    1    2    0    0  0.17075277087E+02 -0.23698269228E+02  0.42276568412E+03  0.42377352055E+03  0.00000000000E+00 0.  1.
         11    1    1    2    0    0 -0.72143412418E+01  0.81645130307E+01 -0.49753964799E+03  0.49765892669E+03  0.00000000000E+00 0.  1.
        -15    1    1    2    0    0 -0.47086390641E+01  0.23206203203E+00  0.38430652227E+02  0.38759487796E+02  0.17770000000E+01 0.  1.
         15    1    1    2    0    0 -0.51522967809E+01  0.15301694165E+02  0.36343311637E+02  0.39808064964E+02  0.17770000000E+01 0. -1.
</event>
<event>
 6    1  0.2051709E-004  0.3641232E+03  0.7546771E-02  0.9768781E-01
        -11   -1    0    0    0    0  0.00000000000E+00  0.00000000000E+00  0.50000000000E+03  0.50000000000E+03  0.00000000000E+00 0.  1.
         11   -1    0    0    0    0 -0.00000000000E+00 -0.00000000000E+00 -0.50000000000E+03  0.50000000000E+03  0.00000000000E+00 0. -1.
        -11    1    1    2    0    0  0.11370545363E+03 -0.84303544078E+02  0.39030231715E+03  0.41517697010E+03  0.00000000000E+00 0.  1.
         11    1    1    2    0    0 -0.45703192348E+02  0.17665382525E+03 -0.27598821939E+03  0.33085473097E+03  0.00000000000E+00 0. -1.
        -15    1    1    2    0    0 -0.10781482984E+03 -0.40715546979E+02  0.78024005301E+01  0.11552414675E+03  0.17770000000E+01 0.  1.
         15    1    1    2    0    0  0.39812568558E+02 -0.51634734194E+02 -0.12211649829E+03  0.13844415218E+03  0.17770000000E+01 0. -1.
</event>
<event>
 6    1  0.2051709E-004  0.5174250E+03  0.7546771E-02  0.9361642E-01
        -11   -1    0    0    0    0  0.00000000000E+00  0.00000000000E+00  0.50000000000E+03  0.50000000000E+03  0.00000000000E+00 0.  1.
         11   -1    0    0    0    0 -0.00000000000E+00 -0.00000000000E+00 -0.50000000000E+03  0.50000000000E+03  0.00000000000E+00 0.  1.
        -11    1    1    2    0    0  0.34129870751E+02 -0.21528343301E+02  0.39309323955E+03  0.39515897133E+03  0.00000000000E+00 0.  1.
         11    1    1    2    0    0  0.79599845903E-01 -0.14952191517E+02 -0.48234330795E+03  0.48257501085E+03  0.00000000000E+00 0.  1.
        -15    1    1    2    0    0  0.18158746650E+02 -0.46064880333E+00  0.29133559609E+02  0.34378398766E+02  0.17770000000E+01 0.  1.
         15    1    1    2    0    0 -0.52368217247E+02  0.36941183621E+02  0.60116508790E+02  0.87887619054E+02  0.17770000000E+01 0. -1.
</event>
<event>
 6    1  0.2051709E-004  0.5070067E+03  0.7546771E-02  0.9384267E-01
        -11   -1    0    0    0    0  0.00000000000E+00  0.00000000000E+00  0.50000000000E+03  0.50000000000E+03  0.00000000000E+00 0. -1.
         11   -1    0    0    0    0 -0.00000000000E+00 -0.00000000000E+00 -0.50000000000E+03  0.50000000000E+03  0.00000000000E+00 0.  1.
        -11    1    1    2    0    0  0.48129699185E+02  0.54020875609E+02  0.47855091622E+03  0.48398936182E+03  0.00000000000E+00 0. -1.
         11    1    1    2    0    0  0.66110920657E+01  0.27085067293E+00 -0.13547610112E+02  0.15077056680E+02  0.00000000000E+00 0.  1.
        -15    1    1    2    0    0 -0.33228672589E+02 -0.51766760522E+02 -0.35829586064E+02  0.71209965198E+02  0.17770000000E+01 0. -1.
         15    1    1    2    0    0 -0.21512118661E+02 -0.25249657593E+01 -0.42917372004E+03  0.42972361630E+03  0.17770000000E+01 0.  1.
</event>
<event>
 6    1  0.2051709E-004  0.5180648E+03  0.7546771E-02  0.9360272E-01
        -11   -1    0    0    0    0  0.00000000000E+00  0.00000000000E+00  0.50000000000E+03  0.50000000000E+03  0.00000000000E+00 0. -1.
         11   -1    0    0    0    0 -0.00000000000E+00 -0.00000000000E+00 -0.50000000000E+03  0.50000000000E+03  0.00000000000E+00 0. -1.
        -11    1    1    2    0    0  0.39782289172E+02 -0.51640635857E-01  0.48029046572E+03  0.48193522870E+03  0.00000000000E+00 0. -1.
         11    1    1    2    0    0 -0.45526884495E+01 -0.38206724516E+00 -0.27248668579E+03  0.27252498396E+03  0.00000000000E+00 0. -1.
        -15    1    1    2    0    0  0.15775017876E+02  0.48792250251E+02 -0.45170771523E+02  0.68360011721E+02  0.17770000000E+01 0.  1.
         15    1    1    2    0    0 -0.51004618598E+02 -0.48358542370E+02 -0.16263300840E+03  0.17717977562E+03  0.17770000000E+01 0. -1.
</event>
<event>
 6    1  0.2051709E-004  0.6070991E+03  0.7546771E-02  0.9187660E-01
        -11   -1    0    0    0    0  0.00000000000E+00  0.00000000000E+00  0.50000000000E+03  0.50000000000E+03  0.00000000000E+00 0.  1.
         11   -1    0    0    0    0 -0.00000000000E+00 -0.00000000000E+00 -0.50000000000E+03  0.50000000000E+03  0.00000000000E+00 0. -1.
        -11    1    1    2    0    0 -0.13470606476E+02 -0.52766770469E+02  0.38910839630E+03  0.39290092055E+03  0.00000000000E+00 0.  1.
         11    1    1    2    0    0 -0.29816331880E+02 -0.26191416736E+02 -0.31096987312E+03  0.31349205085E+03  0.00000000000E+00 0. -1.
        -15    1    1    2    0    0  0.39900037255E+01  0.27546548889E+02  0.10013367364E+03  0.10394538379E+03  0.17770000000E+01 0.  1.
         15    1    1    2    0    0  0.39296934630E+02  0.51411638316E+02 -0.17827219682E+03  0.18966164481E+03  0.17770000000E+01 0. -1.
</event>
<event>
 6    1  0.2051709E-004  0.4490938E+03  0.7546771E-02  0.9521525E-01
        -11   -1    0    0    0    0  0.00000000000E+00  0.00000000000E+00  0.50000000000E+03  0.50000000000E+03  0.00000000000E+00 0.  1.
         11   -1    0    0    0    0 -0.00000000000E+00 -0.00000000000E+00 -0.50000000000E+03  0.50000000000E+03  0.00000000000E+00 0.  1.
        -11    1    1    2    0    0  0.26256294612E+02 -0.19529670973E+02  0.45235683828E+03  0.45353887396E+03  0.00000000000E+00 0.  1.
         11    1    1    2    0    0  0.14779370662E+02 -0.13311633652E+01 -0.44560583721E+03  0.44585285011E+03  0.00000000000E+00 0.  1.
        -15    1    1    2    0    0 -0.78644510599E+01  0.10872829535E+02  0.40094663086E+02  0.42317936499E+02  0.17770000000E+01 0. -1.
         15    1    1    2    0    0 -0.33171214214E+02  0.99880048036E+01 -0.46845664152E+02  0.58290339433E+02  0.17770000000E+01 0.  1.
</event>
<event>
 6    1  0.2051709E-004  0.3454911E+03  0.7546771E-02  0.9832764E-01
        -11   -1    0    0    0    0  0.00000000000E+00  0.00000000000E+00  0.50000000000E+03  0.50000000000E+03  0.00000000000E+00 0. -1.
         11   -1    0    0    0    0 -0.00000000000E+00 -0.00000000000E+00 -0.50000000000E+03  0.50000000000E+03  0.00000000000E+00 0.  1.
        -11    1    1    2    0    0  0.11062772035E+03  0.49130651300E+01  0.37186997099E+03  0.38800761081E+03  0.00000000000E+00 0. -1.
         11    1    1    2    0    0  0.30039731653E+02 -0.74403929944E+01 -0.16244910987E+03  0.16537066917E+03  0.00000000000E+00 0.  1.
        -15    1    1    2    0    0 -0.96646272197E+02 -0.10528438952E+02  0.96663716576E+02  0.13710719087E+03  0.17770000000E+01 0. -1.
         15    1    1    2    0    0 -0.44021179807E+02  0.13055766817E+02 -0.30608457770E+03  0.30951452915E+03  0.17770000000E+01 0.  1.
</event>
<event>
 6    1  0.2051709E-004  0.4783305E+03  0.7546771E-02  0.9449647E-01
        -11   -1    0    0    0    0  0.00000000000E+00  0.00000000000E+00  0.50000000000E+03  0.50000000000E+03  0.00000000000E+00 0. -1.
         11   -1    0    0    0    0 -0.00000000000E+00 -0.00000000000E+00 -0.50000000000E+03  0.50000000000E+03  0.00000000000E+00 0.  1.
        -11    1    1    2    0    0 -0.83990934024E+02  0.40797457380E+02  0.47083467116E+03  0.48000437195E+03  0.00000000000E+00 0. -1.
         11    1    1    2    0    0  0.27924411502E+01  0.89076764035E+00 -0.19404044805E+02  0.19624172578E+02  0.00000000000E+00 0.  1.
        -15    1    1    2    0    0  0.73305558027E+02 -0.29831842218E+02 -0.47015801691E+03  0.47677600846E+03  0.17770000000E+01 0.  1.
         15    1    1    2    0    0  0.78929348469E+01 -0.11856382802E+02  0.18727390554E+02  0.23595447010E+02  0.17770000000E+01 0. -1.
</event>
<event>
 6    1  0.2051709E-004  0.2605844E+03  0.7546771E-02  0.1019149E+00
        -11   -1    0    0    0    0  0.00000000000E+00  0.00000000000E+00  0.50000000000E+03  0.50000000000E+03  0.00000000000E+00 0. -1.
         11   -1    0    0    0    0 -0.00000000000E+00 -0.00000000000E+00 -0.50000000000E+03  0.50000000000E+03  0.00000000000E+00 0. -1.
        -11    1    1    2    0    0 -0.28635198634E+02 -0.10021074866E+02  0.43861699866E+03  0.43966494977E+03  0.00000000000E+00 0. -1.
         11    1    1    2    0    0  0.63163530832E+00 -0.81035604122E+01 -0.22719873507E+03  0.22734408255E+03  0.00000000000E+00 0. -1.
        -15    1    1    2    0    0 -0.55983525841E+02  0.11411618747E+03 -0.12907179147E+03  0.18116110093E+03  0.17770000000E+01 0. -1.
         15    1    1    2    0    0  0.83987089167E+02 -0.95991552190E+02 -0.82346472122E+02  0.15182986675E+03  0.17770000000E+01 0.  1.
</event>
<event>
 6    1  0.2051709E-004  0.5074756E+03  0.7546771E-02  0.9383236E-01
        -11   -1    0    0    0    0  0.00000000000E+00  0.00000000000E+00  0.50000000000E+03  0.50000000000E+03  0.00000000000E+00 0.  1.
         11   -1    0    0    0    0 -0.00000000000E+00 -0.00000000000E+00 -0.50000000000E+03  0.50000000000E+03  0.00000000000E+00 0.  1.
        -11    1    1    2    0    0  0.54408313231E+02 -0.61359485213E+02  0.48564911076E+03  0.49252442555E+03  0.00000000000E+00 0.  1.
         11    1    1    2    0    0  0.16594308669E+02 -0.79307064533E+01 -0.20066690567E+03  0.20150800038E+03  0.00000000000E+00 0.  1.
        -15    1    1    2    0    0 -0.65116434928E+02  0.50341880709E+02 -0.16560374728E+03  0.18493840567E+03  0.17770000000E+01 0.  1.
         15    1    1    2    0    0 -0.58861869717E+01  0.18948310958E+02 -0.11937845782E+03  0.12102916840E+03  0.17770000000E+01 0. -1.
</event>
<event>
 6    1  0.2051709E-004  0.2546184E+03  0.7546771E-02  0.1022213E+00
        -11   -1    0    0    0    0  0.00000000000E+00  0.00000000000E+00  0.50000000000E+03  0.50000000000E+03  0.00000000000E+00 0.  1.
         11   -1    0    0    0    0 -0.00000000000E+00 -0.00000000000E+00 -0.50000000000E+03  0.50000000000E+03  0.00000000000E+00 0.  1.
        -11    1    1    2    0    0  0.13366797667E+03  0.10422592188E+03  0.20519238793E+03  0.26614673931E+03  0.00000000000E+00 0.  1.
         11    1    1    2    0    0  0.12930975068E+02  0.11069150466E+02 -0.24973528362E+03  0.25031469812E+03  0.00000000000E+00 0.  1.
        -15    1    1    2    0    0 -0.20286380459E+03 -0.23250564176E+02 -0.15522232458E+03  0.25649842051E+03  0.17770000000E+01 0. -1.
         15    1    1    2    0    0  0.56264852857E+02 -0.92044508168E+02  0.19976522027E+03  0.22704014206E+03  0.17770000000E+01 0.  1.
</event>
<event>
 6    1  0.2051709E-004  0.4796553E+03  0.7546771E-02  0.9446520E-01
        -11   -1    0    0    0    0  0.00000000000E+00  0.00000000000E+00  0.50000000000E+03  0.50000000000E+03  0.00000000000E+00 0. -1.
         11   -1    0    0    0    0 -0.00000000000E+00 -0.00000000000E+00 -0.50000000000E+03  0.50000000000E+03  0.00000000000E+00 0.  1.
        -11    1    1    2    0    0 -0.33071584024E+02  0.47777228770E+02  0.41870880555E+02  0.71620973864E+02  0.00000000000E+00 0. -1.
         11    1    1    2    0    0  0.57482166103E+02 -0.20818830058E+02 -0.46470118458E+03  0.46870546621E+03  0.00000000000E+00 0.  1.
        -15    1    1    2    0    0  0.66845433217E+02 -0.40415864058E+02  0.27072732022E+03  0.28177685081E+03  0.17770000000E+01 0. -1.
         15    1    1    2    0    0 -0.91256015296E+02  0.13457465346E+02  0.15210298381E+03  0.17789670912E+03  0.17770000000E+01 0.  1.
</event>
<event>
 6    1  0.2051709E-004  0.3637337E+03  0.7546771E-02  0.9770076E-01
        -11   -1    0    0    0    0  0.00000000000E+00  0.00000000000E+00  0.50000000000E+03  0.50000000000E+03  0.00000000000E+00 0. -1.
         11   -1    0    0    0    0 -0.00000000000E+00 -0.00000000000E+00 -0.50000000000E+03  0.50000000000E+03  0.00000000000E+00 0.  1.
        -11    1    1    2    0    0 -0.65713189888E+02 -0.21958993183E+02  0.33569950846E+03  0.34277482504E+03  0.00000000000E+00 0. -1.
         11    1    1    2    0    0  0.27396605048E+01  0.86659971543E+01 -0.38939981768E+03  0.38950587063E+03  0.00000000000E+00 0.  1.
        -15    1    1    2    0    0 -0.54733245349E+01 -0.97162217199E+00 -0.99310392826E+02  0.99481722861E+02  0.17770000000E+01 0.  1.
         15    1    1    2    0    0  0.68446853918E+02  0.14264618201E+02  0.15301070205E+03  0.16823758146E+03  0.17770000000E+01 0. -1.
</event>
