<event>
 6    1  0.7551264E-005  0.1463208E+03  0.7546771E-02  0.1101567E+00
        -11   -1    0    0    0    0  0.00000000000E+00  0.00000000000E+00  0.18250000000E+03  0.18250000000E+03  0.00000000000E+00 0. -1.
         11   -1    0    0    0    0 -0.00000000000E+00 -0.00000000000E+00 -0.18250000000E+03  0.18250000000E+03  0.00000000000E+00 0.  1.
        -11    1    1    2    0    0  0.46057094738E+02 -0.10241173847E+02  0.60334674425E+02  0.76592496731E+02  0.00000000000E+00 0. -1.
         11    1    1    2    0    0 -0.48794045546E+01 -0.45965542342E+01 -0.16119968847E+03  0.16133901098E+03  0.00000000000E+00 0.  1.
        -15    1    1    2    0    0  0.84062082474E+01  0.21591320478E+02  0.14966228884E+02  0.27640462968E+02  0.17770000000E+01 0.  1.
         15    1    1    2    0    0 -0.49583898431E+02 -0.67535923969E+01  0.85898785163E+02  0.99428029324E+02  0.17770000000E+01 0. -1.
</event>
<event>
 6    1  0.7551264E-005  0.1462994E+03  0.7546771E-02  0.1101590E+00
        -11   -1    0    0    0    0  0.00000000000E+00  0.00000000000E+00  0.18250000000E+03  0.18250000000E+03  0.00000000000E+00 0.  1.
         11   -1    0    0    0    0 -0.00000000000E+00 -0.00000000000E+00 -0.18250000000E+03  0.18250000000E+03  0.00000000000E+00 0.  1.
        -11    1    1    2    0    0 -0.35083806790E+01 -0.42862556964E+02  0.15604447307E+03  0.16186224112E+03  0.00000000000E+00 0.  1.
         11    1    1    2    0    0  0.24275867043E+00 -0.23684717656E+01 -0.40735715740E+02  0.40805234066E+02  0.00000000000E+00 0.  1.
        -15    1    1    2    0    0 -0.19673011369E+02  0.17381641411E+02  0.12777239821E+02  0.29250032836E+02  0.17770000000E+01 0. -1.
         15    1    1    2    0    0  0.22938633377E+02  0.27849387319E+02 -0.12808599715E+03  0.13308249198E+03  0.17770000000E+01 0.  1.
</event>
<event>
 6    1  0.7551264E-005  0.1921213E+03  0.7546771E-02  0.1061044E+00
        -11   -1    0    0    0    0  0.00000000000E+00  0.00000000000E+00  0.18250000000E+03  0.18250000000E+03  0.00000000000E+00 0.  1.
         11   -1    0    0    0    0 -0.00000000000E+00 -0.00000000000E+00 -0.18250000000E+03  0.18250000000E+03  0.00000000000E+00 0. -1.
        -11    1    1    2    0    0 -0.81044382173E+01  0.16837521674E+02  0.17186580597E+03  0.17287868381E+03  0.00000000000E+00 0.  1.
         11    1    1    2    0    0  0.17893098482E+01  0.13745549118E+01 -0.14415647797E+03  0.14417413489E+03  0.00000000000E+00 0. -1.
        -15    1    1    2    0    0  0.88182993844E+01 -0.14520561726E+02  0.25841957786E+01  0.17275558274E+02  0.17770000000E+01 0. -1.
         15    1    1    2    0    0 -0.25031710152E+01 -0.36915148599E+01 -0.30293523776E+02  0.30671623023E+02  0.17770000000E+01 0. -1.
</event>
<event>
 6    1  0.7551264E-005  0.1910630E+03  0.7546771E-02  0.1061836E+00
        -11   -1    0    0    0    0  0.00000000000E+00  0.00000000000E+00  0.18250000000E+03  0.18250000000E+03  0.00000000000E+00 0. -1.
         11   -1    0    0    0    0 -0.00000000000E+00 -0.00000000000E+00 -0.18250000000E+03  0.18250000000E+03  0.00000000000E+00 0. -1.
        -11    1    1    2    0    0  0.14072659512E+02 -0.38798665592E+02  0.16896957829E+03  0.17393704201E+03  0.00000000000E+00 0. -1.
         11    1    1    2    0    0 -0.23467934978E+01 -0.13896216410E+02 -0.88264839596E+02  0.89382851706E+02  0.00000000000E+00 0. -1.
        -15    1    1    2    0    0  0.70556692712E+00  0.15203680293E+02 -0.47367157465E+01  0.16038825525E+02  0.17770000000E+01 0.  1.
         15    1    1    2    0    0 -0.12431432941E+02  0.37491201708E+02 -0.75968022945E+02  0.85641280757E+02  0.17770000000E+01 0. -1.
</event>
<event>
 6    1  0.7551264E-005  0.1446491E+03  0.7546771E-02  0.1103347E+00
        -11   -1    0    0    0    0  0.00000000000E+00  0.00000000000E+00  0.18250000000E+03  0.18250000000E+03  0.00000000000E+00 0.  1.
         11   -1    0    0    0    0 -0.00000000000E+00 -0.00000000000E+00 -0.18250000000E+03  0.18250000000E+03  0.00000000000E+00 0. -1.
        -11    1    1    2    0    0 -0.20708311363E+02 -0.66465794037E+02  0.12342902524E+03  0.14170836323E+03  0.00000000000E+00 0.  1.
         11    1    1    2    0    0 -0.18537999140E+01  0.11394236585E+00 -0.97927697306E+02  0.97945308497E+02  0.00000000000E+00 0. -1.
        -15    1    1    2    0    0  0.35929868546E+02  0.53823412945E+02  0.26674677309E+02  0.70018650182E+02  0.17770000000E+01 0.  1.
         15    1    1    2    0    0 -0.13367757269E+02  0.12528438726E+02 -0.52176005242E+02  0.55327678095E+02  0.17770000000E+01 0. -1.
</event>
<event>
 6    1  0.7551264E-005  0.1192781E+03  0.7546771E-02  0.1134115E+00
        -11   -1    0    0    0    0  0.00000000000E+00  0.00000000000E+00  0.18250000000E+03  0.18250000000E+03  0.00000000000E+00 0.  1.
         11   -1    0    0    0    0 -0.00000000000E+00 -0.00000000000E+00 -0.18250000000E+03  0.18250000000E+03  0.00000000000E+00 0. -1.
        -11    1    1    2    0    0 -0.44778609916E+01 -0.15388315717E+02 -0.77291477896E+00  0.16045214144E+02  0.00000000000E+00 0.  1.
         11    1    1    2    0    0 -0.65043703350E+00  0.43016437583E+01 -0.15866950693E+03  0.15872913922E+03  0.00000000000E+00 0. -1.
        -15    1    1    2    0    0 -0.88896124791E+00 -0.45710721307E+02  0.83136131830E+02  0.94894859920E+02  0.17770000000E+01 0.  1.
         15    1    1    2    0    0  0.60172592730E+01  0.56797393265E+02  0.76306289883E+02  0.95330786715E+02  0.17770000000E+01 0. -1.
</event>
<event>
 6    1  0.7551264E-005  0.8378648E+02  0.7546771E-02  0.1195263E+00
        -11   -1    0    0    0    0  0.00000000000E+00  0.00000000000E+00  0.18250000000E+03  0.18250000000E+03  0.00000000000E+00 0. -1.
         11   -1    0    0    0    0 -0.00000000000E+00 -0.00000000000E+00 -0.18250000000E+03  0.18250000000E+03  0.00000000000E+00 0. -1.
        -11    1    1    2    0    0 -0.88105446372E+01 -0.25671780105E+02  0.14202114735E+03  0.14459139768E+03  0.00000000000E+00 0. -1.
         11    1    1    2    0    0  0.27436062029E+00  0.17055368709E+01 -0.91420712937E+02  0.91437032343E+02  0.00000000000E+00 0. -1.
        -15    1    1    2    0    0  0.94146738345E+01 -0.45016464756E+02 -0.36002463375E+02  0.58433323374E+02  0.17770000000E+01 0.  1.
         15    1    1    2    0    0 -0.87848981755E+00  0.68982707990E+02 -0.14597971035E+02  0.70538246599E+02  0.17770000000E+01 0. -1.
</event>
<event>
 6    1  0.7551264E-005  0.1369189E+03  0.7546771E-02  0.1111934E+00
        -11   -1    0    0    0    0  0.00000000000E+00  0.00000000000E+00  0.18250000000E+03  0.18250000000E+03  0.00000000000E+00 0. -1.
         11   -1    0    0    0    0 -0.00000000000E+00 -0.00000000000E+00 -0.18250000000E+03  0.18250000000E+03  0.00000000000E+00 0. -1.
        -11    1    1    2    0    0 -0.84027961139E+01  0.93664803768E+01 -0.42339565941E+01  0.13276457571E+02  0.00000000000E+00 0. -1.
         11    1    1    2    0    0  0.24410442845E+01  0.71122560441E+00 -0.11716980514E+03  0.11719738809E+03  0.00000000000E+00 0. -1.
        -15    1    1    2    0    0 -0.47959474503E+01  0.50304764632E+02  0.15606645666E+03  0.16405324465E+03  0.17770000000E+01 0. -1.
         15    1    1    2    0    0  0.10757699280E+02 -0.60382470614E+02 -0.34662694925E+02  0.70472909686E+02  0.17770000000E+01 0.  1.
</event>
<event>
 6    1  0.7551264E-005  0.1847556E+03  0.7546771E-02  0.1066673E+00
        -11   -1    0    0    0    0  0.00000000000E+00  0.00000000000E+00  0.18250000000E+03  0.18250000000E+03  0.00000000000E+00 0.  1.
         11   -1    0    0    0    0 -0.00000000000E+00 -0.00000000000E+00 -0.18250000000E+03  0.18250000000E+03  0.00000000000E+00 0. -1.
        -11    1    1    2    0    0  0.18065631569E+02  0.24748099435E+01  0.17931969606E+03  0.18024440386E+03  0.00000000000E+00 0.  1.
         11    1    1    2    0    0 -0.20869037739E+01 -0.58253287220E+01 -0.11567215523E+03  0.11583754623E+03  0.00000000000E+00 0. -1.
        -15    1    1    2    0    0  0.48497128647E+01 -0.19651378004E+00 -0.10703165810E+02  0.11885866392E+02  0.17770000000E+01 0. -1.
         15    1    1    2    0    0 -0.20828440659E+02  0.35470325585E+01 -0.52944375025E+02  0.57032183512E+02  0.17770000000E+01 0.  1.
</event>
<event>
 6    1  0.7551264E-005  0.2041869E+03  0.7546771E-02  0.1052393E+00
        -11   -1    0    0    0    0  0.00000000000E+00  0.00000000000E+00  0.18250000000E+03  0.18250000000E+03  0.00000000000E+00 0. -1.
         11   -1    0    0    0    0 -0.00000000000E+00 -0.00000000000E+00 -0.18250000000E+03  0.18250000000E+03  0.00000000000E+00 0.  1.
        -11    1    1    2    0    0  0.31929570817E+01  0.18312668632E+00 -0.10925406891E+02  0.11383893272E+02  0.00000000000E+00 0. -1.
         11    1    1    2    0    0 -0.19556844197E+01 -0.13034368113E+01 -0.14941071940E+03  0.14942920304E+03  0.00000000000E+00 0.  1.
        -15    1    1    2    0    0  0.44918196601E+02 -0.11017845272E+02  0.14770503274E+03  0.15478685903E+03  0.17770000000E+01 0. -1.
         15    1    1    2    0    0 -0.46155469263E+02  0.12138155397E+02  0.12631093550E+02  0.49400044662E+02  0.17770000000E+01 0.  1.
</event>
<event>
 6    1  0.7551264E-005  0.1737981E+03  0.7546771E-02  0.1075601E+00
        -11   -1    0    0    0    0  0.00000000000E+00  0.00000000000E+00  0.18250000000E+03  0.18250000000E+03  0.00000000000E+00 0.  1.
         11   -1    0    0    0    0 -0.00000000000E+00 -0.00000000000E+00 -0.18250000000E+03  0.18250000000E+03  0.00000000000E+00 0.  1.
        -11    1    1    2    0    0 -0.22395490682E+01  0.11768806816E+02  0.17207382652E+03  0.17249035384E+03  0.00000000000E+00 0.  1.
         11    1    1    2    0    0  0.16042077779E+01 -0.59056525605E+01 -0.17506178315E+03  0.17516871335E+03  0.00000000000E+00 0.  1.
        -15    1    1    2    0    0 -0.48527006728E+00 -0.73930462397E+01  0.83979255113E+01  0.11339113794E+02  0.17770000000E+01 0.  1.
         15    1    1    2    0    0  0.11206113576E+01  0.15298919845E+01 -0.54099688796E+01  0.60018190224E+01  0.17770000000E+01 0. -1.
</event>
<event>
 6    1  0.7551264E-005  0.1214302E+03  0.7546771E-02  0.1131188E+00
        -11   -1    0    0    0    0  0.00000000000E+00  0.00000000000E+00  0.18250000000E+03  0.18250000000E+03  0.00000000000E+00 0.  1.
         11   -1    0    0    0    0 -0.00000000000E+00 -0.00000000000E+00 -0.18250000000E+03  0.18250000000E+03  0.00000000000E+00 0.  1.
        -11    1    1    2    0    0 -0.10789336440E+03  0.20064003559E+02  0.35374966751E+02  0.11530364519E+03  0.00000000000E+00 0.  1.
         11    1    1    2    0    0  0.28599604309E+01  0.81739560251E+00 -0.68288363396E+02  0.68353113203E+02  0.00000000000E+00 0.  1.
        -15    1    1    2    0    0 -0.24927362818E+02  0.12786505939E+02 -0.22617708373E+02  0.36049779642E+02  0.17770000000E+01 0. -1.
         15    1    1    2    0    0  0.12996076679E+03 -0.33667905100E+02  0.55531105018E+02  0.14529346197E+03  0.17770000000E+01 0.  1.
</event>
<event>
 6    1  0.7551264E-005  0.1980664E+03  0.7546771E-02  0.1056698E+00
        -11   -1    0    0    0    0  0.00000000000E+00  0.00000000000E+00  0.18250000000E+03  0.18250000000E+03  0.00000000000E+00 0.  1.
         11   -1    0    0    0    0 -0.00000000000E+00 -0.00000000000E+00 -0.18250000000E+03  0.18250000000E+03  0.00000000000E+00 0.  1.
        -11    1    1    2    0    0  0.93294051668E+01 -0.54843235853E+01  0.15442065081E+03  0.15479939600E+03  0.00000000000E+00 0.  1.
         11    1    1    2    0    0 -0.31963350947E+01  0.84443754250E+00 -0.16690090942E+03  0.16693364909E+03  0.00000000000E+00 0.  1.
        -15    1    1    2    0    0 -0.14365051724E+02  0.15810285159E+02  0.18232912556E+02  0.28141013790E+02  0.17770000000E+01 0.  1.
         15    1    1    2    0    0  0.82319816520E+01 -0.11170399117E+02 -0.57526539412E+01  0.15125941118E+02  0.17770000000E+01 0. -1.
</event>
<event>
 6    1  0.7551264E-005  0.1708460E+03  0.7546771E-02  0.1078129E+00
        -11   -1    0    0    0    0  0.00000000000E+00  0.00000000000E+00  0.18250000000E+03  0.18250000000E+03  0.00000000000E+00 0. -1.
         11   -1    0    0    0    0 -0.00000000000E+00 -0.00000000000E+00 -0.18250000000E+03  0.18250000000E+03  0.00000000000E+00 0. -1.
        -11    1    1    2    0    0 -0.18804854090E+02 -0.35938647727E+02  0.17043772701E+03  0.17519768186E+03  0.00000000000E+00 0. -1.
         11    1    1    2    0    0 -0.45213886352E+00 -0.42901407557E+00 -0.33654160092E+02  0.33659931285E+02  0.00000000000E+00 0. -1.
        -15    1    1    2    0    0  0.16268430445E+02  0.35447434496E+02 -0.29844870430E+02  0.49143223963E+02  0.17770000000E+01 0. -1.
         15    1    1    2    0    0  0.29885625084E+01  0.92022730597E+00 -0.10693869649E+03  0.10699916290E+03  0.17770000000E+01 0.  1.
</event>
<event>
 6    1  0.7551264E-005  0.1892406E+03  0.7546771E-02  0.1063212E+00
        -11   -1    0    0    0    0  0.00000000000E+00  0.00000000000E+00  0.18250000000E+03  0.18250000000E+03  0.00000000000E+00 0. -1.
         11   -1    0    0    0    0 -0.00000000000E+00 -0.00000000000E+00 -0.18250000000E+03  0.18250000000E+03  0.00000000000E+00 0. -1.
        -11    1    1    2    0    0  0.14679161836E+02 -0.11854803303E+02  0.17474370005E+03  0.17575942325E+03  0.00000000000E+00 0. -1.
         11    1    1    2    0    0  0.12001693346E+02  0.68462546957E+01 -0.46799941589E+02  0.48796991499E+02  0.00000000000E+00 0. -1.
        -15    1    1    2    0    0 -0.24094521507E+01  0.13294230807E+02 -0.44995236494E+01  0.14350800483E+02  0.17770000000E+01 0.  1.
         15    1    1    2    0    0 -0.24271403032E+02 -0.82856822000E+01 -0.12344423481E+03  0.12609278477E+03  0.17770000000E+01 0. -1.
</event>
<event>
 6    1  0.7551264E-005  0.1511658E+03  0.7546771E-02  0.1096554E+00
        -11   -1    0    0    0    0  0.00000000000E+00  0.00000000000E+00  0.18250000000E+03  0.18250000000E+03  0.00000000000E+00 0. -1.
         11   -1    0    0    0    0 -0.00000000000E+00 -0.00000000000E+00 -0.18250000000E+03  0.18250000000E+03  0.00000000000E+00 0.  1.
        -11    1    1    2    0    0  0.75872468442E+01 -0.83171905142E+01  0.65786113418E+01  0.13039175584E+02  0.00000000000E+00 0. -1.
         11    1    1    2    0    0  0.20319565772E+01 -0.56928104859E+01 -0.16668597083E+03  0.16679553294E+03  0.00000000000E+00 0.  1.
        -15    1    1    2    0    0  0.10944500791E+02  0.37383611944E+02  0.24573253043E+02  0.46090335577E+02  0.17770000000E+01 0.  1.
         15    1    1    2    0    0 -0.20563704213E+02 -0.23373610944E+02  0.13553410644E+03  0.13907495590E+03  0.17770000000E+01 0. -1.
</event>
<event>
 6    1  0.7551264E-005  0.1043472E+03  0.7546771E-02  0.1156501E+00
        -11   -1    0    0    0    0  0.00000000000E+00  0.00000000000E+00  0.18250000000E+03  0.18250000000E+03  0.00000000000E+00 0. -1.
         11   -1    0    0    0    0 -0.00000000000E+00 -0.00000000000E+00 -0.18250000000E+03  0.18250000000E+03  0.00000000000E+00 0.  1.
        -11    1    1    2    0    0 -0.15077223811E+02  0.21033358844E+02  0.62850337160E+02  0.67969770805E+02  0.00000000000E+00 0. -1.
         11    1    1    2    0    0 -0.10693694735E+01  0.20441588034E+01 -0.93210046743E+02  0.93238591528E+02  0.00000000000E+00 0.  1.
        -15    1    1    2    0    0  0.57286232241E+01 -0.11534399978E+02 -0.85700494885E+02  0.86680978648E+02  0.17770000000E+01 0.  1.
         15    1    1    2    0    0  0.10417970061E+02 -0.11543117669E+02  0.11606020447E+03  0.11711065902E+03  0.17770000000E+01 0. -1.
</event>
<event>
 6    1  0.7551264E-005  0.1470585E+03  0.7546771E-02  0.1100790E+00
        -11   -1    0    0    0    0  0.00000000000E+00  0.00000000000E+00  0.18250000000E+03  0.18250000000E+03  0.00000000000E+00 0. -1.
         11   -1    0    0    0    0 -0.00000000000E+00 -0.00000000000E+00 -0.18250000000E+03  0.18250000000E+03  0.00000000000E+00 0.  1.
        -11    1    1    2    0    0 -0.27264576338E+02 -0.27746675614E+02  0.16331921931E+03  0.16788806547E+03  0.00000000000E+00 0. -1.
         11    1    1    2    0    0  0.11353547361E+02  0.28741265878E+01 -0.15903739335E+02  0.19750761154E+02  0.00000000000E+00 0.  1.
        -15    1    1    2    0    0 -0.34349496673E+02 -0.62574003009E+01 -0.30750684048E+02  0.46559695860E+02  0.17770000000E+01 0. -1.
         15    1    1    2    0    0  0.50260525649E+02  0.31129949327E+02 -0.11666479593E+03  0.13080147752E+03  0.17770000000E+01 0.  1.
</event>
<event>
 6    1  0.7551264E-005  0.2079588E+03  0.7546771E-02  0.1049822E+00
        -11   -1    0    0    0    0  0.00000000000E+00  0.00000000000E+00  0.18250000000E+03  0.18250000000E+03  0.00000000000E+00 0.  1.
         11   -1    0    0    0    0 -0.00000000000E+00 -0.00000000000E+00 -0.18250000000E+03  0.18250000000E+03  0.00000000000E+00 0. -1.
        -11    1    1    2    0    0 -0.31842714792E+02  0.26451735337E+02  0.91997346897E+02  0.10088193408E+03  0.00000000000E+00 0.  1.
         11    1    1    2    0    0  0.92212127439E+01  0.11631821689E+02 -0.15633809576E+03  0.15704117367E+03  0.00000000000E+00 0. -1.
        -15    1    1    2    0    0 -0.32651584804E+00 -0.32280544014E+01  0.65193998342E+02  0.65298867499E+02  0.17770000000E+01 0. -1.
         15    1    1    2    0    0  0.22948017896E+02 -0.34855502625E+02 -0.85324947614E+00  0.41778024753E+02  0.17770000000E+01 0.  1.
</event>
<event>
 6    1  0.7551264E-005  0.1850354E+03  0.7546771E-02  0.1066454E+00
        -11   -1    0    0    0    0  0.00000000000E+00  0.00000000000E+00  0.18250000000E+03  0.18250000000E+03  0.00000000000E+00 0.  1.
         11   -1    0    0    0    0 -0.00000000000E+00 -0.00000000000E+00 -0.18250000000E+03  0.18250000000E+03  0.00000000000E+00 0.  1.
        -11    1    1    2    0    0 -0.30230441580E+02 -0.29520485972E+02  0.17493404938E+03  0.17996460853E+03  0.00000000000E+00 0.  1.
         11    1    1    2    0    0  0.13362098924E+01  0.14147179457E+01 -0.36611379092E+02  0.36663059921E+02  0.00000000000E+00 0.  1.
        -15    1    1    2    0    0  0.29839587611E+02  0.32206518702E+02 -0.93422801804E+02  0.10324068220E+03  0.17770000000E+01 0.  1.
         15    1    1    2    0    0 -0.94535592424E+00 -0.41007506751E+01 -0.44899868485E+02  0.45131649348E+02  0.17770000000E+01 0. -1.
</event>
<event>
 6    1  0.7551264E-005  0.1763521E+03  0.7546771E-02  0.1073457E+00
        -11   -1    0    0    0    0  0.00000000000E+00  0.00000000000E+00  0.18250000000E+03  0.18250000000E+03  0.00000000000E+00 0.  1.
         11   -1    0    0    0    0 -0.00000000000E+00 -0.00000000000E+00 -0.18250000000E+03  0.18250000000E+03  0.00000000000E+00 0.  1.
        -11    1    1    2    0    0  0.13349773556E+02 -0.19360076783E+02  0.23776376150E+01  0.23636458865E+02  0.00000000000E+00 0.  1.
         11    1    1    2    0    0 -0.33898150622E+01 -0.24766617977E+01 -0.16488519804E+03  0.16493863475E+03  0.00000000000E+00 0.  1.
        -15    1    1    2    0    0  0.22301557083E+02  0.56375061663E+00  0.10332449686E+03  0.10572032276E+03  0.17770000000E+01 0.  1.
         15    1    1    2    0    0 -0.32261515577E+02  0.21272987964E+02  0.59183063564E+02  0.70704583628E+02  0.17770000000E+01 0. -1.
</event>
<event>
 6    1  0.7551264E-005  0.1990261E+03  0.7546771E-02  0.1056012E+00
        -11   -1    0    0    0    0  0.00000000000E+00  0.00000000000E+00  0.18250000000E+03  0.18250000000E+03  0.00000000000E+00 0. -1.
         11   -1    0    0    0    0 -0.00000000000E+00 -0.00000000000E+00 -0.18250000000E+03  0.18250000000E+03  0.00000000000E+00 0. -1.
        -11    1    1    2    0    0 -0.29113446028E+02 -0.17413483364E+02  0.16247003522E+03  0.16597389700E+03  0.00000000000E+00 0. -1.
         11    1    1    2    0    0  0.11044823501E+01  0.38313779358E+00 -0.65854295807E+02  0.65864671502E+02  0.00000000000E+00 0. -1.
        -15    1    1    2    0    0  0.28838106811E+02  0.22000583541E+02  0.82535768621E-01  0.36315652572E+02  0.17770000000E+01 0.  1.
         15    1    1    2    0    0 -0.82914313266E+00 -0.49702379703E+01 -0.96698275179E+02  0.96845778924E+02  0.17770000000E+01 0. -1.
</event>
<event>
 6    1  0.7551264E-005  0.1061618E+03  0.7546771E-02  0.1153565E+00
        -11   -1    0    0    0    0  0.00000000000E+00  0.00000000000E+00  0.18250000000E+03  0.18250000000E+03  0.00000000000E+00 0.  1.
         11   -1    0    0    0    0 -0.00000000000E+00 -0.00000000000E+00 -0.18250000000E+03  0.18250000000E+03  0.00000000000E+00 0.  1.
        -11    1    1    2    0    0  0.27506082470E+02  0.47826403553E+01  0.12100670565E+03  0.12418567161E+03  0.00000000000E+00 0.  1.
         11    1    1    2    0    0  0.11997275710E+02  0.16336647314E+01 -0.88234410086E+02  0.89061296915E+02  0.00000000000E+00 0.  1.
        -15    1    1    2    0    0 -0.22020551552E+02 -0.72797314657E+01  0.56322998269E+02  0.60937156513E+02  0.17770000000E+01 0. -1.
         15    1    1    2    0    0 -0.17482806628E+02  0.86342637906E+00 -0.89095293833E+02  0.90815874960E+02  0.17770000000E+01 0.  1.
</event>
<event>
 6    1  0.7551264E-005  0.1172575E+03  0.7546771E-02  0.1136925E+00
        -11   -1    0    0    0    0  0.00000000000E+00  0.00000000000E+00  0.18250000000E+03  0.18250000000E+03  0.00000000000E+00 0.  1.
         11   -1    0    0    0    0 -0.00000000000E+00 -0.00000000000E+00 -0.18250000000E+03  0.18250000000E+03  0.00000000000E+00 0.  1.
        -11    1    1    2    0    0  0.67236944786E+02  0.89977179067E+02  0.10013849146E+03  0.15048061991E+03  0.00000000000E+00 0.  1.
         11    1    1    2    0    0 -0.15456651696E+01  0.95170574328E+00 -0.44608490084E+02  0.44645405276E+02  0.00000000000E+00 0.  1.
        -15    1    1    2    0    0 -0.39005998461E+02 -0.57483267203E+02  0.28856053210E+02  0.75243760274E+02  0.17770000000E+01 0. -1.
         15    1    1    2    0    0 -0.26685281155E+02 -0.33445617606E+02 -0.84386054582E+02  0.94630214542E+02  0.17770000000E+01 0.  1.
</event>
<event>
 6    1  0.7551264E-005  0.1870915E+03  0.7546771E-02  0.1064858E+00
        -11   -1    0    0    0    0  0.00000000000E+00  0.00000000000E+00  0.18250000000E+03  0.18250000000E+03  0.00000000000E+00 0. -1.
         11   -1    0    0    0    0 -0.00000000000E+00 -0.00000000000E+00 -0.18250000000E+03  0.18250000000E+03  0.00000000000E+00 0. -1.
        -11    1    1    2    0    0 -0.17875143634E+02 -0.10667396439E+02  0.17668653106E+03  0.17790852808E+03  0.00000000000E+00 0. -1.
         11    1    1    2    0    0  0.33150946567E+01  0.26044923789E+01 -0.99469006248E+02  0.99558306721E+02  0.00000000000E+00 0. -1.
        -15    1    1    2    0    0 -0.84797315743E+01 -0.80166810486E+01 -0.33661898839E+02  0.35671475791E+02  0.17770000000E+01 0.  1.
         15    1    1    2    0    0  0.23039780552E+02  0.16079585109E+02 -0.43555625972E+02  0.51861689405E+02  0.17770000000E+01 0. -1.
</event>
<event>
 6    1  0.7551264E-005  0.1193747E+03  0.7546771E-02  0.1133982E+00
        -11   -1    0    0    0    0  0.00000000000E+00  0.00000000000E+00  0.18250000000E+03  0.18250000000E+03  0.00000000000E+00 0. -1.
         11   -1    0    0    0    0 -0.00000000000E+00 -0.00000000000E+00 -0.18250000000E+03  0.18250000000E+03  0.00000000000E+00 0.  1.
        -11    1    1    2    0    0 -0.26791394621E+02  0.52066206849E+02  0.81031959004E+02  0.99974232187E+02  0.00000000000E+00 0. -1.
         11    1    1    2    0    0 -0.97356608252E+00  0.15029073474E+01 -0.12452716914E+02  0.12580807603E+02  0.00000000000E+00 0.  1.
        -15    1    1    2    0    0  0.13285108224E+02 -0.59042922219E+01 -0.15338052183E+03  0.15407821707E+03  0.17770000000E+01 0.  1.
         15    1    1    2    0    0  0.14479852480E+02 -0.47664821974E+02  0.84801279744E+02  0.98366743145E+02  0.17770000000E+01 0. -1.
</event>
<event>
 6    1  0.7551264E-005  0.1558830E+03  0.7546771E-02  0.1091868E+00
        -11   -1    0    0    0    0  0.00000000000E+00  0.00000000000E+00  0.18250000000E+03  0.18250000000E+03  0.00000000000E+00 0. -1.
         11   -1    0    0    0    0 -0.00000000000E+00 -0.00000000000E+00 -0.18250000000E+03  0.18250000000E+03  0.00000000000E+00 0. -1.
        -11    1    1    2    0    0 -0.31397484443E+02  0.12243428773E+02  0.14695657034E+03  0.15077114162E+03  0.00000000000E+00 0. -1.
         11    1    1    2    0    0 -0.22442118642E+01 -0.80270864243E+01 -0.16303185190E+03  0.16324477124E+03  0.00000000000E+00 0. -1.
        -15    1    1    2    0    0  0.16216859303E+02 -0.16190747515E+02  0.18666166981E+02  0.29609294985E+02  0.17770000000E+01 0. -1.
         15    1    1    2    0    0  0.17424837005E+02  0.11974405166E+02 -0.25908854274E+01  0.21374792163E+02  0.17770000000E+01 0.  1.
</event>
<event>
 6    1  0.7551264E-005  0.2074251E+03  0.7546771E-02  0.1050182E+00
        -11   -1    0    0    0    0  0.00000000000E+00  0.00000000000E+00  0.18250000000E+03  0.18250000000E+03  0.00000000000E+00 0. -1.
         11   -1    0    0    0    0 -0.00000000000E+00 -0.00000000000E+00 -0.18250000000E+03  0.18250000000E+03  0.00000000000E+00 0.  1.
        -11    1    1    2    0    0  0.21455937976E+02 -0.30449200216E+02  0.15310886034E+03  0.15757485264E+03  0.00000000000E+00 0. -1.
         11    1    1    2    0    0  0.83395055624E+00 -0.90074046848E+00 -0.75566819455E+02  0.75576788827E+02  0.00000000000E+00 0.  1.
        -15    1    1    2    0    0 -0.45959762445E+02  0.33026962712E+02 -0.88962465798E+02  0.10545405673E+03  0.17770000000E+01 0.  1.
         15    1    1    2    0    0  0.23669873913E+02 -0.16770220277E+01  0.11420424912E+02  0.26394301811E+02  0.17770000000E+01 0. -1.
</event>
