<event>
 7    1  0.6322078E-006  0.4466554E+03  0.7546771E-02  0.9527782E-01
        -11   -1    0    0    0    0  0.00000000000E+00  0.00000000000E+00  0.50000000000E+03  0.50000000000E+03  0.00000000000E+00 0.  1.
         11   -1    0    0    0    0 -0.00000000000E+00 -0.00000000000E+00 -0.50000000000E+03  0.50000000000E+03  0.00000000000E+00 0.  1.
         23    2    1    2    0    0  0.92523517724E+01 -0.17898401111E+02  0.41162152628E+03  0.42221708374E+03  0.91809727865E+02 0.  0.
        -11    1    1    2    0    0  0.99563016461E+02 -0.15998514155E+02  0.42608446863E+02  0.10947249173E+03  0.00000000000E+00 0.  1.
         11    1    1    2    0    0 -0.10881536823E+03  0.33896915266E+02 -0.45422997314E+03  0.46831042453E+03  0.00000000000E+00 0.  1.
        -15    1    3    3    0    0  0.49083492809E+02  0.22396191907E+01  0.22794524960E+03  0.23318747759E+03  0.17770000000E+01 0.  1.
         15    1    3    3    0    0 -0.39831141036E+02 -0.20138020302E+02  0.18367627667E+03  0.18902960614E+03  0.17770000000E+01 0. -1.
</event>
<event>
 7    1  0.6322078E-006  0.4745462E+03  0.7546771E-02  0.9458638E-01
        -11   -1    0    0    0    0  0.00000000000E+00  0.00000000000E+00  0.50000000000E+03  0.50000000000E+03  0.00000000000E+00 0.  1.
         11   -1    0    0    0    0 -0.00000000000E+00 -0.00000000000E+00 -0.50000000000E+03  0.50000000000E+03  0.00000000000E+00 0. -1.
         23    2    1    2    0    0  0.14154468731E+03  0.12071286167E+03  0.40731127643E+03  0.45692920015E+03  0.90968810925E+02 0.  0.
        -11    1    1    2    0    0  0.10101222805E+02  0.53692811776E+02  0.19246893351E+02  0.57925777010E+02  0.00000000000E+00 0.  1.
         11    1    1    2    0    0 -0.15164591011E+03 -0.17440567345E+03 -0.42655816978E+03  0.48514502284E+03  0.00000000000E+00 0. -1.
        -15    1    3    3    0    0 -0.13972712699E+01  0.43576566517E+02  0.68948470690E+02  0.81596071327E+02  0.17770000000E+01 0. -1.
         15    1    3    3    0    0  0.14294195858E+03  0.77136295155E+02  0.33836280574E+03  0.37533312882E+03  0.17770000000E+01 0.  1.
</event>
<event>
 7    1  0.6322078E-006  0.5233142E+03  0.7546771E-02  0.9349102E-01
        -11   -1    0    0    0    0  0.00000000000E+00  0.00000000000E+00  0.50000000000E+03  0.50000000000E+03  0.00000000000E+00 0.  1.
         11   -1    0    0    0    0 -0.00000000000E+00 -0.00000000000E+00 -0.50000000000E+03  0.50000000000E+03  0.00000000000E+00 0.  1.
         23    2    1    2    0    0  0.26978574400E+02 -0.66502048785E+02  0.14331201530E+03  0.18714225914E+03  0.96610172638E+02 0.  0.
        -11    1    1    2    0    0 -0.78303563297E+02  0.69854387787E+01  0.32685060354E+03  0.33617192241E+03  0.00000000000E+00 0.  1.
         11    1    1    2    0    0  0.51324988897E+02  0.59516610006E+02 -0.47016261885E+03  0.47668581845E+03  0.00000000000E+00 0.  1.
        -15    1    3    3    0    0  0.40936859327E+02 -0.16903096595E+02  0.12467660246E+03  0.13232140437E+03  0.17770000000E+01 0. -1.
         15    1    3    3    0    0 -0.13958284927E+02 -0.49598952190E+02  0.18635412843E+02  0.54820854766E+02  0.17770000000E+01 0.  1.
</event>
<event>
 7    1  0.6322078E-006  0.3739774E+03  0.7546771E-02  0.9736577E-01
        -11   -1    0    0    0    0  0.00000000000E+00  0.00000000000E+00  0.50000000000E+03  0.50000000000E+03  0.00000000000E+00 0. -1.
         11   -1    0    0    0    0 -0.00000000000E+00 -0.00000000000E+00 -0.50000000000E+03  0.50000000000E+03  0.00000000000E+00 0.  1.
         23    2    1    2    0    0 -0.53227060074E+02  0.15100479086E+03  0.12419849549E+03  0.22508236778E+03  0.97985913357E+02 0.  0.
        -11    1    1    2    0    0 -0.70569604184E+02 -0.20325267122E+03  0.27761671213E+03  0.35123034642E+03  0.00000000000E+00 0. -1.
         11    1    1    2    0    0  0.12379666426E+03  0.52247880361E+02 -0.40181520762E+03  0.42368728581E+03  0.00000000000E+00 0.  1.
        -15    1    3    3    0    0 -0.36642728039E+02  0.12636836524E+03  0.13938030193E+03  0.19168119247E+03  0.17770000000E+01 0. -1.
         15    1    3    3    0    0 -0.16584332036E+02  0.24636425613E+02 -0.15181806439E+02  0.33401175306E+02  0.17770000000E+01 0.  1.
</event>
<event>
 7    1  0.6322078E-006  0.5238598E+03  0.7546771E-02  0.9347949E-01
        -11   -1    0    0    0    0  0.00000000000E+00  0.00000000000E+00  0.50000000000E+03  0.50000000000E+03  0.00000000000E+00 0. -1.
         11   -1    0    0    0    0 -0.00000000000E+00 -0.00000000000E+00 -0.50000000000E+03  0.50000000000E+03  0.00000000000E+00 0.  1.
         23    2    1    2    0    0  0.43007697624E+02  0.30584866976E+02  0.37260095214E+03  0.38755060997E+03  0.92622403396E+02 0.  0.
        -11    1    1    2    0    0  0.30186572676E+02 -0.94457702030E+02  0.93523857620E+02  0.13630920214E+03  0.00000000000E+00 0. -1.
         11    1    1    2    0    0 -0.73194270299E+02  0.63872835054E+02 -0.46612480975E+03  0.47614018790E+03  0.00000000000E+00 0.  1.
        -15    1    3    3    0    0 -0.21555977766E+02 -0.16009360058E+02  0.88935544166E+02  0.92917428570E+02  0.17770000000E+01 0.  1.
         15    1    3    3    0    0  0.64563675390E+02  0.46594227034E+02  0.28366540797E+03  0.29463318140E+03  0.17770000000E+01 0. -1.
</event>
<event>
 7    1  0.6322078E-006  0.5331891E+03  0.7546771E-02  0.9328463E-01
        -11   -1    0    0    0    0  0.00000000000E+00  0.00000000000E+00  0.50000000000E+03  0.50000000000E+03  0.00000000000E+00 0.  1.
         11   -1    0    0    0    0 -0.00000000000E+00 -0.00000000000E+00 -0.50000000000E+03  0.50000000000E+03  0.00000000000E+00 0.  1.
         23    2    1    2    0    0  0.53215318913E+02  0.51248223557E+02  0.40329147198E+01  0.11838668431E+03  0.92416946694E+02 0.  0.
        -11    1    1    2    0    0  0.10519828861E+03  0.26069639777E+03  0.30501100368E+03  0.41480236753E+03  0.00000000000E+00 0.  1.
         11    1    1    2    0    0 -0.15841360752E+03 -0.31194462133E+03 -0.30904391840E+03  0.46681094816E+03  0.00000000000E+00 0.  1.
        -15    1    3    3    0    0 -0.23333662218E+02  0.30562501858E+02  0.64804380878E+01  0.39034345379E+02  0.17770000000E+01 0. -1.
         15    1    3    3    0    0  0.76548981131E+02  0.20685721698E+02 -0.24475233680E+01  0.79352338932E+02  0.17770000000E+01 0.  1.
</event>
<event>
 7    1  0.6322078E-006  0.3960288E+03  0.7546771E-02  0.9668208E-01
        -11   -1    0    0    0    0  0.00000000000E+00  0.00000000000E+00  0.50000000000E+03  0.50000000000E+03  0.00000000000E+00 0.  1.
         11   -1    0    0    0    0 -0.00000000000E+00 -0.00000000000E+00 -0.50000000000E+03  0.50000000000E+03  0.00000000000E+00 0. -1.
         23    2    1    2    0    0  0.16906033935E+03  0.16995062582E+03 -0.24070066573E+03  0.35131326034E+03  0.89552123640E+02 0.  0.
        -11    1    1    2    0    0 -0.57991763478E+02 -0.22468239386E+03  0.39055877377E+03  0.45429217306E+03  0.00000000000E+00 0.  1.
         11    1    1    2    0    0 -0.11106857587E+03  0.54731768039E+02 -0.14985810804E+03  0.19439456660E+03  0.00000000000E+00 0. -1.
        -15    1    3    3    0    0  0.94903355763E+01  0.23451451244E+02 -0.73235576080E+02  0.77502544265E+02  0.17770000000E+01 0.  1.
         15    1    3    3    0    0  0.15957000377E+03  0.14649917457E+03 -0.16746508965E+03  0.27381071607E+03  0.17770000000E+01 0. -1.
</event>
<event>
 7    1  0.6322078E-006  0.4376356E+03  0.7546771E-02  0.9551302E-01
        -11   -1    0    0    0    0  0.00000000000E+00  0.00000000000E+00  0.50000000000E+03  0.50000000000E+03  0.00000000000E+00 0.  1.
         11   -1    0    0    0    0 -0.00000000000E+00 -0.00000000000E+00 -0.50000000000E+03  0.50000000000E+03  0.00000000000E+00 0. -1.
         23    2    1    2    0    0 -0.13832193437E+02  0.91675921113E+02  0.38915400498E+03  0.41004614531E+03  0.90006653079E+02 0.  0.
        -11    1    1    2    0    0 -0.65149176914E+02 -0.81645204085E+02  0.68836191497E+02  0.12509506730E+03  0.00000000000E+00 0.  1.
         11    1    1    2    0    0  0.78981370351E+02 -0.10030717027E+02 -0.45799019648E+03  0.46485878740E+03  0.00000000000E+00 0. -1.
        -15    1    3    3    0    0 -0.33061736171E+02  0.34379616331E+02  0.66974498423E+02  0.82242188601E+02  0.17770000000E+01 0. -1.
         15    1    3    3    0    0  0.19229542734E+02  0.57296304782E+02  0.32217950656E+03  0.32780395670E+03  0.17770000000E+01 0.  1.
</event>
<event>
 7    1  0.6322078E-006  0.4772383E+03  0.7546771E-02  0.9452232E-01
        -11   -1    0    0    0    0  0.00000000000E+00  0.00000000000E+00  0.50000000000E+03  0.50000000000E+03  0.00000000000E+00 0.  1.
         11   -1    0    0    0    0 -0.00000000000E+00 -0.00000000000E+00 -0.50000000000E+03  0.50000000000E+03  0.00000000000E+00 0.  1.
         23    2    1    2    0    0  0.68468214126E+02 -0.32637065647E+02  0.43702346343E+03  0.45297163656E+03  0.91873399534E+02 0.  0.
        -11    1    1    2    0    0  0.21869317643E+02  0.53718643878E+01  0.47942184807E+02  0.52967698319E+02  0.00000000000E+00 0.  1.
         11    1    1    2    0    0 -0.90337531769E+02  0.27265201259E+02 -0.48496564824E+03  0.49406066512E+03  0.00000000000E+00 0.  1.
        -15    1    3    3    0    0  0.87650020268E+02 -0.34563076109E+02  0.40255996770E+03  0.41344264126E+03  0.17770000000E+01 0.  1.
         15    1    3    3    0    0 -0.19181806142E+02  0.19260104622E+01  0.34463495728E+02  0.39528995306E+02  0.17770000000E+01 0. -1.
</event>
<event>
 7    1  0.6322078E-006  0.5089977E+03  0.7546771E-02  0.9379899E-01
        -11   -1    0    0    0    0  0.00000000000E+00  0.00000000000E+00  0.50000000000E+03  0.50000000000E+03  0.00000000000E+00 0.  1.
         11   -1    0    0    0    0 -0.00000000000E+00 -0.00000000000E+00 -0.50000000000E+03  0.50000000000E+03  0.00000000000E+00 0. -1.
         23    2    1    2    0    0  0.85010685037E+02 -0.71465194630E+02 -0.37420396890E+03  0.40075126552E+03  0.90768253583E+02 0.  0.
        -11    1    1    2    0    0 -0.11947040346E+03  0.47177989881E+02  0.47390327360E+03  0.49100229405E+03  0.00000000000E+00 0.  1.
         11    1    1    2    0    0  0.34459718422E+02  0.24287204749E+02 -0.99699304699E+02  0.10824644043E+03  0.00000000000E+00 0. -1.
        -15    1    3    3    0    0  0.70054443350E+02 -0.93693517365E+00 -0.21066319561E+03  0.22201496029E+03  0.17770000000E+01 0.  1.
         15    1    3    3    0    0  0.14956241686E+02 -0.70528259456E+02 -0.16354077329E+03  0.17873630523E+03  0.17770000000E+01 0. -1.
</event>
<event>
 7    1  0.6322078E-006  0.3893571E+03  0.7546771E-02  0.9688381E-01
        -11   -1    0    0    0    0  0.00000000000E+00  0.00000000000E+00  0.50000000000E+03  0.50000000000E+03  0.00000000000E+00 0.  1.
         11   -1    0    0    0    0 -0.00000000000E+00 -0.00000000000E+00 -0.50000000000E+03  0.50000000000E+03  0.00000000000E+00 0. -1.
         23    2    1    2    0    0 -0.10216851829E+03  0.15465273379E+03 -0.16456693570E+02  0.19936127658E+03  0.71541747525E+02 0.  0.
        -11    1    1    2    0    0  0.32265244098E+02 -0.67011407715E+02  0.39701016706E+03  0.40391663433E+03  0.00000000000E+00 0.  1.
         11    1    1    2    0    0  0.69903274195E+02 -0.87641326075E+02 -0.38055347349E+03  0.39672208908E+03  0.00000000000E+00 0. -1.
        -15    1    3    3    0    0 -0.96710060036E+02  0.10391247899E+03 -0.32878681573E+02  0.14572166768E+03  0.17770000000E+01 0.  1.
         15    1    3    3    0    0 -0.54584582570E+01  0.50740254803E+02  0.16421988003E+02  0.53639608900E+02  0.17770000000E+01 0. -1.
</event>
<event>
 7    1  0.6322078E-006  0.4470051E+03  0.7546771E-02  0.9526882E-01
        -11   -1    0    0    0    0  0.00000000000E+00  0.00000000000E+00  0.50000000000E+03  0.50000000000E+03  0.00000000000E+00 0.  1.
         11   -1    0    0    0    0 -0.00000000000E+00 -0.00000000000E+00 -0.50000000000E+03  0.50000000000E+03  0.00000000000E+00 0. -1.
         23    2    1    2    0    0  0.61090546357E+02 -0.11035725339E+02  0.41034445057E+03  0.42501045567E+03  0.91637749993E+02 0.  0.
        -11    1    1    2    0    0  0.31411087442E+02  0.96835552247E+02  0.38431864435E+02  0.10881538861E+03  0.00000000000E+00 0.  1.
         11    1    1    2    0    0 -0.92501633799E+02 -0.85799826908E+02 -0.44877631501E+03  0.46617415573E+03  0.00000000000E+00 0. -1.
        -15    1    3    3    0    0  0.29789881643E+02 -0.45460627729E+02  0.30535408078E+03  0.31015863376E+03  0.17770000000E+01 0.  1.
         15    1    3    3    0    0  0.31300664714E+02  0.34424902390E+02  0.10499036980E+03  0.11485182191E+03  0.17770000000E+01 0. -1.
</event>
<event>
 7    1  0.6322078E-006  0.3306303E+03  0.7546771E-02  0.9886982E-01
        -11   -1    0    0    0    0  0.00000000000E+00  0.00000000000E+00  0.50000000000E+03  0.50000000000E+03  0.00000000000E+00 0. -1.
         11   -1    0    0    0    0 -0.00000000000E+00 -0.00000000000E+00 -0.50000000000E+03  0.50000000000E+03  0.00000000000E+00 0. -1.
         23    2    1    2    0    0  0.17830447965E+03 -0.43236770076E+02  0.30847900390E+03  0.37006987669E+03  0.90169351965E+02 0.  0.
        -11    1    1    2    0    0 -0.32667047315E+03  0.73033034192E+02 -0.61590137578E+02  0.34035388518E+03  0.00000000000E+00 0. -1.
         11    1    1    2    0    0  0.14836599349E+03 -0.29796264116E+02 -0.24688886632E+03  0.28957623814E+03  0.00000000000E+00 0. -1.
        -15    1    3    3    0    0  0.14730022792E+03 -0.69983848349E+02  0.23744291287E+03  0.28805796427E+03  0.17770000000E+01 0. -1.
         15    1    3    3    0    0  0.31004251737E+02  0.26747078273E+02  0.71036091024E+02  0.82011912420E+02  0.17770000000E+01 0.  1.
</event>
<event>
 7    1  0.6322078E-006  0.5252595E+03  0.7546771E-02  0.9344998E-01
        -11   -1    0    0    0    0  0.00000000000E+00  0.00000000000E+00  0.50000000000E+03  0.50000000000E+03  0.00000000000E+00 0.  1.
         11   -1    0    0    0    0 -0.00000000000E+00 -0.00000000000E+00 -0.50000000000E+03  0.50000000000E+03  0.00000000000E+00 0. -1.
         23    2    1    2    0    0  0.61472006369E+01  0.34093899270E+01  0.33296226494E+03  0.34511823804E+03  0.90516939507E+02 0.  0.
        -11    1    1    2    0    0 -0.11727504448E+03 -0.53422368511E+02  0.12587089197E+03  0.18014124170E+03  0.00000000000E+00 0.  1.
         11    1    1    2    0    0  0.11112784384E+03  0.50012978585E+02 -0.45883315691E+03  0.47474052027E+03  0.00000000000E+00 0. -1.
        -15    1    3    3    0    0  0.44616144527E+02  0.35316861661E+00  0.24515963506E+03  0.24919295631E+03  0.17770000000E+01 0.  1.
         15    1    3    3    0    0 -0.38468943890E+02  0.30562213104E+01  0.87802629874E+02  0.95925281728E+02  0.17770000000E+01 0. -1.
</event>
<event>
 7    1  0.6760523E-006  0.4798391E+03  0.7546771E-02  0.9446087E-01
        -11   -1    0    0    0    0  0.00000000000E+00  0.00000000000E+00  0.50000000000E+03  0.50000000000E+03  0.00000000000E+00 0. -1.
         11   -1    0    0    0    0 -0.00000000000E+00 -0.00000000000E+00 -0.50000000000E+03  0.50000000000E+03  0.00000000000E+00 0. -1.
         23    2    1    2    0    0  0.38803845117E+02 -0.11574108083E+03 -0.42644773216E+03  0.45769091935E+03  0.11278995172E+03 0.  0.
        -11    1    1    2    0    0 -0.26688799814E+02  0.10918442502E+03  0.47692245377E+03  0.48998832396E+03  0.00000000000E+00 0. -1.
         11    1    1    2    0    0 -0.12115045302E+02  0.65566558148E+01 -0.50474721616E+02  0.52320756688E+02  0.00000000000E+00 0. -1.
        -15    1    3    3    0    0  0.54669957580E+02 -0.74623078847E+02 -0.38893184463E+03  0.39978562462E+03  0.17770000000E+01 0. -1.
         15    1    3    3    0    0 -0.15866112463E+02 -0.41118001986E+02 -0.37515887530E+02  0.57905294734E+02  0.17770000000E+01 0.  1.
</event>
<event>
 6    1  0.6322078E-006  0.4574682E+03  0.7546771E-02  0.9500354E-01
        -11   -1    0    0    0    0  0.00000000000E+00  0.00000000000E+00  0.50000000000E+03  0.50000000000E+03  0.00000000000E+00 0.  1.
         11   -1    0    0    0    0 -0.00000000000E+00 -0.00000000000E+00 -0.50000000000E+03  0.50000000000E+03  0.00000000000E+00 0. -1.
        -11    1    1    2    0    0  0.17851169087E+03 -0.63847226954E+02  0.42647440952E+03  0.46671545308E+03  0.00000000000E+00 0.  1.
         11    1    1    2    0    0 -0.11305629336E+03  0.67564678810E+02 -0.43089826514E+03  0.45057743640E+03  0.00000000000E+00 0. -1.
        -15    1    1    2    0    0 -0.24410262617E+02  0.89836777318E+01  0.24020665878E+02  0.35450211633E+02  0.17770000000E+01 0.  1.
         15    1    1    2    0    0 -0.41045134893E+02 -0.12701129587E+02 -0.19596810257E+02  0.47256898887E+02  0.17770000000E+01 0. -1.
</event>
<event>
 6    1  0.6322078E-006  0.5017434E+03  0.7546771E-02  0.9395917E-01
        -11   -1    0    0    0    0  0.00000000000E+00  0.00000000000E+00  0.50000000000E+03  0.50000000000E+03  0.00000000000E+00 0. -1.
         11   -1    0    0    0    0 -0.00000000000E+00 -0.00000000000E+00 -0.50000000000E+03  0.50000000000E+03  0.00000000000E+00 0. -1.
        -11    1    1    2    0    0  0.18616457500E+02 -0.72804487202E+02 -0.22663960235E+03  0.23877306213E+03  0.00000000000E+00 0. -1.
         11    1    1    2    0    0 -0.24457269466E+02  0.79000720715E+02 -0.24962801332E+03  0.26297037274E+03  0.00000000000E+00 0. -1.
        -15    1    1    2    0    0  0.52397778560E+02 -0.56344462316E+02  0.28048855777E+03  0.29085600286E+03  0.17770000000E+01 0. -1.
         15    1    1    2    0    0 -0.46556966593E+02  0.50148228803E+02  0.19577905790E+03  0.20740056227E+03  0.17770000000E+01 0.  1.
</event>
<event>
 7    1  0.6322078E-006  0.5355280E+03  0.7546771E-02  0.9323644E-01
        -11   -1    0    0    0    0  0.00000000000E+00  0.00000000000E+00  0.50000000000E+03  0.50000000000E+03  0.00000000000E+00 0. -1.
         11   -1    0    0    0    0 -0.00000000000E+00 -0.00000000000E+00 -0.50000000000E+03  0.50000000000E+03  0.00000000000E+00 0. -1.
         23    2    1    2    0    0 -0.13190892546E+03  0.18345983846E+02  0.14416887730E+03  0.21612632339E+03  0.90495208381E+02 0.  0.
        -11    1    1    2    0    0  0.60263650298E+02  0.26818839163E+02  0.31251631793E+03  0.31940163846E+03  0.00000000000E+00 0. -1.
         11    1    1    2    0    0  0.71645275163E+02 -0.45164823008E+02 -0.45668519522E+03  0.46447203815E+03  0.00000000000E+00 0. -1.
        -15    1    3    3    0    0 -0.68714761230E+02 -0.57895750645E+01  0.12973577014E+03  0.14693456154E+03  0.17770000000E+01 0.  1.
         15    1    3    3    0    0 -0.63194164231E+02  0.24135558910E+02  0.14433107154E+02  0.69191761850E+02  0.17770000000E+01 0. -1.
</event>
<event>
 7    1  0.6322078E-006  0.5376086E+03  0.7546771E-02  0.9319379E-01
        -11   -1    0    0    0    0  0.00000000000E+00  0.00000000000E+00  0.50000000000E+03  0.50000000000E+03  0.00000000000E+00 0.  1.
         11   -1    0    0    0    0 -0.00000000000E+00 -0.00000000000E+00 -0.50000000000E+03  0.50000000000E+03  0.00000000000E+00 0.  1.
         23    2    1    2    0    0 -0.37538474020E+02  0.16792717101E+03  0.19628797572E+03  0.27306396040E+03  0.80164114568E+02 0.  0.
        -11    1    1    2    0    0 -0.94731797754E+01 -0.73582926806E+02  0.25392849496E+03  0.26454464426E+03  0.00000000000E+00 0.  1.
         11    1    1    2    0    0  0.47011653796E+02 -0.94344244204E+02 -0.45021647068E+03  0.46239139534E+03  0.00000000000E+00 0.  1.
        -15    1    3    3    0    0 -0.16345100703E+01  0.29068258359E+02 -0.95159031526E+00  0.29183874320E+02  0.17770000000E+01 0. -1.
         15    1    3    3    0    0 -0.35903963950E+02  0.13885891265E+03  0.19723956604E+03  0.24388008609E+03  0.17770000000E+01 0.  1.
</event>
<event>
 7    1  0.6322078E-006  0.4835486E+03  0.7546771E-02  0.9437393E-01
        -11   -1    0    0    0    0  0.00000000000E+00  0.00000000000E+00  0.50000000000E+03  0.50000000000E+03  0.00000000000E+00 0.  1.
         11   -1    0    0    0    0 -0.00000000000E+00 -0.00000000000E+00 -0.50000000000E+03  0.50000000000E+03  0.00000000000E+00 0. -1.
         23    2    1    2    0    0  0.41247867212E+02  0.15160615085E+03 -0.43206608366E+03  0.46874015956E+03  0.91380659956E+02 0.  0.
        -11    1    1    2    0    0 -0.29207312853E+02 -0.13995405698E+03  0.46921187081E+03  0.49050992334E+03  0.00000000000E+00 0.  1.
         11    1    1    2    0    0 -0.12040554359E+02 -0.11652093869E+02 -0.37145787149E+02  0.40749917101E+02  0.00000000000E+00 0. -1.
        -15    1    3    3    0    0  0.62946126757E+02  0.12555607433E+03 -0.39096143614E+03  0.41542814656E+03  0.17770000000E+01 0. -1.
         15    1    3    3    0    0 -0.21698259545E+02  0.26050076519E+02 -0.41104647515E+02  0.53312013001E+02  0.17770000000E+01 0.  1.
</event>
<event>
 7    1  0.6322078E-006  0.5356593E+03  0.7546771E-02  0.9323374E-01
        -11   -1    0    0    0    0  0.00000000000E+00  0.00000000000E+00  0.50000000000E+03  0.50000000000E+03  0.00000000000E+00 0.  1.
         11   -1    0    0    0    0 -0.00000000000E+00 -0.00000000000E+00 -0.50000000000E+03  0.50000000000E+03  0.00000000000E+00 0. -1.
         23    2    1    2    0    0  0.25322246789E+02 -0.12670188243E+03 -0.94555171524E+02  0.18646735555E+03  0.95576205345E+02 0.  0.
        -11    1    1    2    0    0  0.38429210428E+02  0.15246174079E+03  0.43691058220E+03  0.46434065454E+03  0.00000000000E+00 0.  1.
         11    1    1    2    0    0 -0.63751457217E+02 -0.25759858355E+02 -0.34235541068E+03  0.34919198991E+03  0.00000000000E+00 0. -1.
        -15    1    3    3    0    0 -0.10793293573E+02 -0.12009486033E+03 -0.55229671356E+02  0.13263764545E+03  0.17770000000E+01 0.  1.
         15    1    3    3    0    0  0.36115540361E+02 -0.66070221049E+01 -0.39325500169E+02  0.53829710098E+02  0.17770000000E+01 0. -1.
</event>
<event>
 7    1  0.6322078E-006  0.5091263E+03  0.7546771E-02  0.9379617E-01
        -11   -1    0    0    0    0  0.00000000000E+00  0.00000000000E+00  0.50000000000E+03  0.50000000000E+03  0.00000000000E+00 0.  1.
         11   -1    0    0    0    0 -0.00000000000E+00 -0.00000000000E+00 -0.50000000000E+03  0.50000000000E+03  0.00000000000E+00 0. -1.
         23    2    1    2    0    0 -0.90709016666E+02  0.15964771054E+02 -0.31697766796E+03  0.34274269772E+03  0.92275214604E+02 0.  0.
        -11    1    1    2    0    0  0.11225880167E+03  0.22904111397E+02  0.47731579431E+03  0.49087371530E+03  0.00000000000E+00 0.  1.
         11    1    1    2    0    0 -0.21549785007E+02 -0.38868882451E+02 -0.16033812635E+03  0.16638358698E+03  0.00000000000E+00 0. -1.
        -15    1    3    3    0    0 -0.28190546991E+02  0.40283923168E+02 -0.21577550754E+03  0.22131364348E+03  0.17770000000E+01 0. -1.
         15    1    3    3    0    0 -0.62518469675E+02 -0.24319152114E+02 -0.10120216042E+03  0.12142905424E+03  0.17770000000E+01 0.  1.
</event>
<event>
 7    1  0.6322078E-006  0.3663910E+03  0.7546771E-02  0.9761274E-01
        -11   -1    0    0    0    0  0.00000000000E+00  0.00000000000E+00  0.50000000000E+03  0.50000000000E+03  0.00000000000E+00 0.  1.
         11   -1    0    0    0    0 -0.00000000000E+00 -0.00000000000E+00 -0.50000000000E+03  0.50000000000E+03  0.00000000000E+00 0. -1.
         23    2    1    2    0    0  0.24368900561E+02  0.21591359975E+03 -0.74437807010E+00  0.23568167759E+03  0.91284024797E+02 0.  0.
        -11    1    1    2    0    0 -0.13563992997E+03 -0.12072249156E+03  0.34519127472E+03  0.39003734015E+03  0.00000000000E+00 0.  1.
         11    1    1    2    0    0  0.11127102941E+03 -0.95191108194E+02 -0.34444689665E+03  0.37428098225E+03  0.00000000000E+00 0. -1.
        -15    1    3    3    0    0 -0.31126150788E+02  0.43632138261E+02 -0.95060198346E+01  0.54462123482E+02  0.17770000000E+01 0. -1.
         15    1    3    3    0    0  0.55495051349E+02  0.17228146149E+03  0.87616417645E+01  0.18121955411E+03  0.17770000000E+01 0.  1.
</event>
<event>
 7    1  0.6322078E-006  0.5130760E+03  0.7546771E-02  0.9371017E-01
        -11   -1    0    0    0    0  0.00000000000E+00  0.00000000000E+00  0.50000000000E+03  0.50000000000E+03  0.00000000000E+00 0. -1.
         11   -1    0    0    0    0 -0.00000000000E+00 -0.00000000000E+00 -0.50000000000E+03  0.50000000000E+03  0.00000000000E+00 0.  1.
         23    2    1    2    0    0 -0.18264426952E+02  0.78868638922E+02  0.17515707689E+03  0.21404923334E+03  0.92645675612E+02 0.  0.
        -11    1    1    2    0    0 -0.13297737405E+02  0.19554624180E+03  0.22583583662E+03  0.29902673392E+03  0.00000000000E+00 0. -1.
         11    1    1    2    0    0  0.31562164357E+02 -0.27441488072E+03 -0.40099291351E+03  0.48692403274E+03  0.00000000000E+00 0.  1.
        -15    1    3    3    0    0  0.27563451347E+02  0.62111903056E+02  0.13373123939E+03  0.15001611403E+03  0.17770000000E+01 0. -1.
         15    1    3    3    0    0 -0.45827878299E+02  0.16756735865E+02  0.41425837502E+02  0.64033119305E+02  0.17770000000E+01 0.  1.
</event>
<event>
 7    1  0.6322078E-006  0.5243454E+03  0.7546771E-02  0.9346924E-01
        -11   -1    0    0    0    0  0.00000000000E+00  0.00000000000E+00  0.50000000000E+03  0.50000000000E+03  0.00000000000E+00 0. -1.
         11   -1    0    0    0    0 -0.00000000000E+00 -0.00000000000E+00 -0.50000000000E+03  0.50000000000E+03  0.00000000000E+00 0. -1.
         23    2    1    2    0    0  0.40279635606E+02 -0.40710603020E+02  0.23389338317E+03  0.25773733626E+03  0.91883717643E+02 0.  0.
        -11    1    1    2    0    0  0.20548619504E+03 -0.24610789973E+02  0.16807619647E+03  0.26660809281E+03  0.00000000000E+00 0. -1.
         11    1    1    2    0    0 -0.24576583064E+03  0.65321392994E+02 -0.40196957964E+03  0.47565457093E+03  0.00000000000E+00 0. -1.
        -15    1    3    3    0    0 -0.57673028464E+01  0.26215401744E+02  0.63384775955E+02  0.68857073875E+02  0.17770000000E+01 0.  1.
         15    1    3    3    0    0  0.46046938452E+02 -0.66926004765E+02  0.17050860721E+03  0.18888026238E+03  0.17770000000E+01 0. -1.
</event>
<event>
 7    1  0.6322078E-006  0.5061956E+03  0.7546771E-02  0.9386052E-01
        -11   -1    0    0    0    0  0.00000000000E+00  0.00000000000E+00  0.50000000000E+03  0.50000000000E+03  0.00000000000E+00 0. -1.
         11   -1    0    0    0    0 -0.00000000000E+00 -0.00000000000E+00 -0.50000000000E+03  0.50000000000E+03  0.00000000000E+00 0.  1.
         23    2    1    2    0    0  0.50664907649E+02  0.93301872933E+02  0.32466614140E+03  0.35214401466E+03  0.85586981051E+02 0.  0.
        -11    1    1    2    0    0  0.46389132922E+02  0.25950369236E+02  0.14459089791E+03  0.15405161821E+03  0.00000000000E+00 0. -1.
         11    1    1    2    0    0 -0.97054040571E+02 -0.11925224217E+03 -0.46925703931E+03  0.49380436713E+03  0.00000000000E+00 0.  1.
        -15    1    3    3    0    0  0.37677630000E+02  0.21095678552E+02  0.42586680602E+02  0.60674661512E+02  0.17770000000E+01 0.  1.
         15    1    3    3    0    0  0.12987277649E+02  0.72206194381E+02  0.28207946080E+03  0.29146935314E+03  0.17770000000E+01 0. -1.
</event>
<event>
 6    1  0.6322078E-006  0.5758085E+03  0.7546771E-02  0.9244530E-01
        -11   -1    0    0    0    0  0.00000000000E+00  0.00000000000E+00  0.50000000000E+03  0.50000000000E+03  0.00000000000E+00 0. -1.
         11   -1    0    0    0    0 -0.00000000000E+00 -0.00000000000E+00 -0.50000000000E+03  0.50000000000E+03  0.00000000000E+00 0.  1.
        -11    1    1    2    0    0  0.95954437689E+02 -0.75849454347E+02  0.40617483337E+03  0.42419145336E+03  0.00000000000E+00 0. -1.
         11    1    1    2    0    0 -0.22183983542E+02  0.92951258995E+02 -0.32605034679E+03  0.33976594049E+03  0.00000000000E+00 0.  1.
        -15    1    1    2    0    0 -0.12953482203E+03  0.12434283688E+02 -0.10596897757E+03  0.16782867295E+03  0.17770000000E+01 0. -1.
         15    1    1    2    0    0  0.55764367878E+02 -0.29536088337E+02  0.25844490991E+02  0.68213933201E+02  0.17770000000E+01 0.  1.
</event>
<event>
 7    1  0.6322078E-006  0.5113590E+03  0.7546771E-02  0.9374746E-01
        -11   -1    0    0    0    0  0.00000000000E+00  0.00000000000E+00  0.50000000000E+03  0.50000000000E+03  0.00000000000E+00 0.  1.
         11   -1    0    0    0    0 -0.00000000000E+00 -0.00000000000E+00 -0.50000000000E+03  0.50000000000E+03  0.00000000000E+00 0. -1.
         23    2    1    2    0    0  0.59559378875E+02  0.21937930707E+02 -0.22879517254E+03  0.25208444265E+03  0.84680238765E+02 0.  0.
        -11    1    1    2    0    0 -0.88150860927E+02 -0.13015110755E+03  0.46266634880E+03  0.48864100870E+03  0.00000000000E+00 0.  1.
         11    1    1    2    0    0  0.28591482052E+02  0.10821317684E+03 -0.23387117626E+03  0.25927454864E+03  0.00000000000E+00 0. -1.
        -15    1    3    3    0    0 -0.18487733881E+02 -0.31218849545E+01 -0.18625502206E+02  0.26487912926E+02  0.17770000000E+01 0. -1.
         15    1    3    3    0    0  0.78047112756E+02  0.25059815661E+02 -0.21016967033E+03  0.22559652973E+03  0.17770000000E+01 0.  1.
</event>
<event>
 7    1  0.6322078E-006  0.4703459E+03  0.7546771E-02  0.9468723E-01
        -11   -1    0    0    0    0  0.00000000000E+00  0.00000000000E+00  0.50000000000E+03  0.50000000000E+03  0.00000000000E+00 0. -1.
         11   -1    0    0    0    0 -0.00000000000E+00 -0.00000000000E+00 -0.50000000000E+03  0.50000000000E+03  0.00000000000E+00 0.  1.
         23    2    1    2    0    0  0.17550479529E+02  0.10915276132E+03 -0.41544327234E+03  0.43940506966E+03  0.90892013248E+02 0.  0.
        -11    1    1    2    0    0 -0.81658210933E+01 -0.12818343591E+03  0.47778106702E+03  0.49474480480E+03  0.00000000000E+00 0. -1.
         11    1    1    2    0    0 -0.93846584354E+01  0.19030674588E+02 -0.62337794675E+02  0.65850125544E+02  0.00000000000E+00 0.  1.
        -15    1    3    3    0    0  0.26192119331E+02  0.11784466619E+03 -0.40670717017E+03  0.42424906890E+03  0.17770000000E+01 0.  1.
         15    1    3    3    0    0 -0.86416398027E+01 -0.86919048735E+01 -0.87361021673E+01  0.15156000755E+02  0.17770000000E+01 0. -1.
</event>
<event>
 7    1  0.6322078E-006  0.5249190E+03  0.7546771E-02  0.9345715E-01
        -11   -1    0    0    0    0  0.00000000000E+00  0.00000000000E+00  0.50000000000E+03  0.50000000000E+03  0.00000000000E+00 0.  1.
         11   -1    0    0    0    0 -0.00000000000E+00 -0.00000000000E+00 -0.50000000000E+03  0.50000000000E+03  0.00000000000E+00 0.  1.
         23    2    1    2    0    0 -0.39987178448E+02  0.94037176643E+02  0.25514527754E+03  0.28921700219E+03  0.90029976530E+02 0.  0.
        -11    1    1    2    0    0  0.13292003856E+03  0.47138099603E+02  0.18885360200E+03  0.23570197299E+03  0.00000000000E+00 0.  1.
         11    1    1    2    0    0 -0.92932860108E+02 -0.14117527625E+03 -0.44399887954E+03  0.47508102482E+03  0.00000000000E+00 0.  1.
        -15    1    3    3    0    0  0.21413566117E+02  0.49699201132E+02  0.15114208238E+03  0.16054793116E+03  0.17770000000E+01 0.  1.
         15    1    3    3    0    0 -0.61400744565E+02  0.44337975512E+02  0.10400319516E+03  0.12866907102E+03  0.17770000000E+01 0. -1.
</event>
<event>
 7    1  0.6322078E-006  0.3666975E+03  0.7546771E-02  0.9760264E-01
        -11   -1    0    0    0    0  0.00000000000E+00  0.00000000000E+00  0.50000000000E+03  0.50000000000E+03  0.00000000000E+00 0. -1.
         11   -1    0    0    0    0 -0.00000000000E+00 -0.00000000000E+00 -0.50000000000E+03  0.50000000000E+03  0.00000000000E+00 0.  1.
         23    2    1    2    0    0  0.16627262659E+03  0.27195325281E+02  0.14623151434E+03  0.23342446139E+03  0.68681520927E+02 0.  0.
        -11    1    1    2    0    0 -0.14688035213E+03  0.56156026695E+02  0.28577093126E+03  0.32617842101E+03  0.00000000000E+00 0. -1.
         11    1    1    2    0    0 -0.19392274461E+02 -0.83351351976E+02 -0.43200244561E+03  0.44039711760E+03  0.00000000000E+00 0.  1.
        -15    1    3    3    0    0  0.43502907995E+02  0.85018231143E+01  0.82873458924E+02  0.93999744273E+02  0.17770000000E+01 0.  1.
         15    1    3    3    0    0  0.12276971860E+03  0.18693502166E+02  0.63358055419E+02  0.13942471712E+03  0.17770000000E+01 0. -1.
</event>
<event>
 7    1  0.6322078E-006  0.3928873E+03  0.7546771E-02  0.9677653E-01
        -11   -1    0    0    0    0  0.00000000000E+00  0.00000000000E+00  0.50000000000E+03  0.50000000000E+03  0.00000000000E+00 0.  1.
         11   -1    0    0    0    0 -0.00000000000E+00 -0.00000000000E+00 -0.50000000000E+03  0.50000000000E+03  0.00000000000E+00 0. -1.
         23    2    1    2    0    0 -0.12628363305E+03  0.69101167899E+02 -0.94886534474E+02  0.19553258323E+03  0.92233450001E+02 0.  0.
        -11    1    1    2    0    0  0.75278130091E+02 -0.10418191830E+03  0.43766269006E+03  0.45614613803E+03  0.00000000000E+00 0.  1.
         11    1    1    2    0    0  0.51005502962E+02  0.35080750397E+02 -0.34277615559E+03  0.34832127874E+03  0.00000000000E+00 0. -1.
        -15    1    3    3    0    0 -0.11859128360E+03  0.54729210440E+02 -0.37572824124E+02  0.13591929173E+03  0.17770000000E+01 0.  1.
         15    1    3    3    0    0 -0.76923494528E+01  0.14371957459E+02 -0.57313710350E+02  0.59613291508E+02  0.17770000000E+01 0. -1.
</event>
<event>
 7    1  0.6322078E-006  0.4555343E+03  0.7546771E-02  0.9505200E-01
        -11   -1    0    0    0    0  0.00000000000E+00  0.00000000000E+00  0.50000000000E+03  0.50000000000E+03  0.00000000000E+00 0. -1.
         11   -1    0    0    0    0 -0.00000000000E+00 -0.00000000000E+00 -0.50000000000E+03  0.50000000000E+03  0.00000000000E+00 0.  1.
         23    2    1    2    0    0 -0.61413888451E+02 -0.14754916440E+03  0.40881371430E+03  0.44832066338E+03  0.91215912020E+02 0.  0.
        -11    1    1    2    0    0  0.61053928076E+02  0.57733728585E+02  0.40639436160E+02  0.93339859231E+02  0.00000000000E+00 0. -1.
         11    1    1    2    0    0  0.35996037456E+00  0.89815435814E+02 -0.44945315045E+03  0.45833947739E+03  0.00000000000E+00 0.  1.
        -15    1    3    3    0    0  0.12193333656E+02 -0.20001993639E+02  0.13861940872E+03  0.14059607156E+03  0.17770000000E+01 0.  1.
         15    1    3    3    0    0 -0.73607222107E+02 -0.12754717076E+03  0.27019430558E+03  0.30772459182E+03  0.17770000000E+01 0. -1.
</event>
<event>
 7    1  0.6322078E-006  0.4649381E+03  0.7546771E-02  0.9481873E-01
        -11   -1    0    0    0    0  0.00000000000E+00  0.00000000000E+00  0.50000000000E+03  0.50000000000E+03  0.00000000000E+00 0. -1.
         11   -1    0    0    0    0 -0.00000000000E+00 -0.00000000000E+00 -0.50000000000E+03  0.50000000000E+03  0.00000000000E+00 0. -1.
         23    2    1    2    0    0 -0.34844187950E+02  0.10667497569E+03  0.43801912738E+03  0.46136181042E+03  0.91653130267E+02 0.  0.
        -11    1    1    2    0    0  0.75386225165E+02  0.55470069516E+01  0.88562578007E+01  0.76107066249E+02  0.00000000000E+00 0. -1.
         11    1    1    2    0    0 -0.40542037215E+02 -0.11222198265E+03 -0.44687538518E+03  0.46253112333E+03  0.00000000000E+00 0. -1.
        -15    1    3    3    0    0  0.88557779021E+01 -0.13362371584E+02  0.68765954061E+02  0.70632088625E+02  0.17770000000E+01 0.  1.
         15    1    3    3    0    0 -0.43699965852E+02  0.12003734728E+03  0.36925317332E+03  0.39072972179E+03  0.17770000000E+01 0. -1.
</event>
<event>
 7    1  0.6322078E-006  0.5221811E+03  0.7546771E-02  0.9351501E-01
        -11   -1    0    0    0    0  0.00000000000E+00  0.00000000000E+00  0.50000000000E+03  0.50000000000E+03  0.00000000000E+00 0.  1.
         11   -1    0    0    0    0 -0.00000000000E+00 -0.00000000000E+00 -0.50000000000E+03  0.50000000000E+03  0.00000000000E+00 0. -1.
         23    2    1    2    0    0 -0.59093978212E+02  0.74149669258E+01  0.85052189999E+02  0.13829539865E+03  0.91349122978E+02 0.  0.
        -11    1    1    2    0    0 -0.97701031846E+02  0.17063964271E+03  0.32970414555E+03  0.38388566381E+03  0.00000000000E+00 0.  1.
         11    1    1    2    0    0  0.15679501006E+03 -0.17805460964E+03 -0.41475633555E+03  0.47781893754E+03  0.00000000000E+00 0. -1.
        -15    1    3    3    0    0 -0.14293490517E+02  0.31403893447E+02 -0.49692654615E+01  0.34905009998E+02  0.17770000000E+01 0. -1.
         15    1    3    3    0    0 -0.44800487695E+02 -0.23988926521E+02  0.90021455460E+02  0.10339038865E+03  0.17770000000E+01 0.  1.
</event>
<event>
 7    1  0.6322078E-006  0.5104123E+03  0.7546771E-02  0.9376808E-01
        -11   -1    0    0    0    0  0.00000000000E+00  0.00000000000E+00  0.50000000000E+03  0.50000000000E+03  0.00000000000E+00 0. -1.
         11   -1    0    0    0    0 -0.00000000000E+00 -0.00000000000E+00 -0.50000000000E+03  0.50000000000E+03  0.00000000000E+00 0.  1.
         23    2    1    2    0    0  0.11296980303E+02 -0.32920552696E+02  0.25815017269E+03  0.27655854018E+03  0.92907103785E+02 0.  0.
        -11    1    1    2    0    0 -0.80206371541E+01 -0.89671281188E+02  0.21582937320E+03  0.23385377402E+03  0.00000000000E+00 0. -1.
         11    1    1    2    0    0 -0.32763431485E+01  0.12259183388E+03 -0.47397954589E+03  0.48958768579E+03  0.00000000000E+00 0.  1.
        -15    1    3    3    0    0 -0.34993443945E+02 -0.28056076238E+02  0.18060341333E+03  0.18609791822E+03  0.17770000000E+01 0. -1.
         15    1    3    3    0    0  0.46290424248E+02 -0.48644764578E+01  0.77546759365E+02  0.90460621960E+02  0.17770000000E+01 0.  1.
</event>
<event>
 7    1  0.6322078E-006  0.4808547E+03  0.7546771E-02  0.9443698E-01
        -11   -1    0    0    0    0  0.00000000000E+00  0.00000000000E+00  0.50000000000E+03  0.50000000000E+03  0.00000000000E+00 0.  1.
         11   -1    0    0    0    0 -0.00000000000E+00 -0.00000000000E+00 -0.50000000000E+03  0.50000000000E+03  0.00000000000E+00 0.  1.
         23    2    1    2    0    0  0.26758728789E+02 -0.25878006942E+03 -0.36801341411E+03  0.46063450950E+03  0.95221449658E+02 0.  0.
        -11    1    1    2    0    0 -0.19825486641E+02  0.26737899898E+03  0.41335736161E+03  0.49269553217E+03  0.00000000000E+00 0.  1.
         11    1    1    2    0    0 -0.69332421481E+01 -0.85989295646E+01 -0.45343947499E+02  0.46669958337E+02  0.00000000000E+00 0.  1.
        -15    1    3    3    0    0 -0.35029094092E+02 -0.77002917770E+02 -0.12453598949E+03  0.15056180520E+03  0.17770000000E+01 0. -1.
         15    1    3    3    0    0  0.61787822881E+02 -0.18177715165E+03 -0.24347742463E+03  0.31007270430E+03  0.17770000000E+01 0.  1.
</event>
<event>
 7    1  0.6322078E-006  0.5252488E+03  0.7546771E-02  0.9345021E-01
        -11   -1    0    0    0    0  0.00000000000E+00  0.00000000000E+00  0.50000000000E+03  0.50000000000E+03  0.00000000000E+00 0. -1.
         11   -1    0    0    0    0 -0.00000000000E+00 -0.00000000000E+00 -0.50000000000E+03  0.50000000000E+03  0.00000000000E+00 0.  1.
         23    2    1    2    0    0 -0.27697463521E+02  0.11009107535E+03  0.25837929746E+03  0.29654563623E+03  0.91061839729E+02 0.  0.
        -11    1    1    2    0    0  0.20492007026E+02  0.20714169700E+03  0.94749806922E+02  0.22870315017E+03  0.00000000000E+00 0. -1.
         11    1    1    2    0    0  0.72054564947E+01 -0.31723277235E+03 -0.35312910438E+03  0.47475121360E+03  0.00000000000E+00 0.  1.
        -15    1    3    3    0    0 -0.50767252662E+02  0.11051847703E+03  0.20505845019E+03  0.23841932269E+03  0.17770000000E+01 0.  1.
         15    1    3    3    0    0  0.23069789141E+02 -0.42740168693E+00  0.53320847264E+02  0.58126313535E+02  0.17770000000E+01 0. -1.
</event>
<event>
 7    1  0.6322078E-006  0.5055707E+03  0.7546771E-02  0.9387430E-01
        -11   -1    0    0    0    0  0.00000000000E+00  0.00000000000E+00  0.50000000000E+03  0.50000000000E+03  0.00000000000E+00 0. -1.
         11   -1    0    0    0    0 -0.00000000000E+00 -0.00000000000E+00 -0.50000000000E+03  0.50000000000E+03  0.00000000000E+00 0.  1.
         23    2    1    2    0    0 -0.11461735487E+03  0.62355477764E+02 -0.37923965628E+03  0.41114521676E+03  0.90511483972E+02 0.  0.
        -11    1    1    2    0    0  0.12637201314E+03 -0.75640235335E+02  0.47198406007E+03  0.49442925062E+03  0.00000000000E+00 0. -1.
         11    1    1    2    0    0 -0.11754658274E+02  0.13284757572E+02 -0.92744403794E+02  0.94425532616E+02  0.00000000000E+00 0.  1.
        -15    1    3    3    0    0 -0.13225932696E+01  0.43024946710E+02 -0.86160796391E+02  0.96331385623E+02  0.17770000000E+01 0.  1.
         15    1    3    3    0    0 -0.11329476160E+03  0.19330531054E+02 -0.29307885989E+03  0.31481383114E+03  0.17770000000E+01 0. -1.
</event>
<event>
 7    1  0.6322078E-006  0.5179500E+03  0.7546771E-02  0.9360517E-01
        -11   -1    0    0    0    0  0.00000000000E+00  0.00000000000E+00  0.50000000000E+03  0.50000000000E+03  0.00000000000E+00 0.  1.
         11   -1    0    0    0    0 -0.00000000000E+00 -0.00000000000E+00 -0.50000000000E+03  0.50000000000E+03  0.00000000000E+00 0. -1.
         23    2    1    2    0    0  0.61604346884E+02 -0.47539927919E+02  0.18515675761E+03  0.21981937643E+03  0.89344239115E+02 0.  0.
        -11    1    1    2    0    0 -0.90422894114E+01 -0.18415612408E+03  0.23427898841E+03  0.29813065164E+03  0.00000000000E+00 0.  1.
         11    1    1    2    0    0 -0.52562057473E+02  0.23169605200E+03 -0.41943574602E+03  0.48204997193E+03  0.00000000000E+00 0. -1.
        -15    1    3    3    0    0  0.19229699307E+02 -0.22038380080E+02  0.16297313355E+03  0.16558644727E+03  0.17770000000E+01 0. -1.
         15    1    3    3    0    0  0.42374647577E+02 -0.25501547839E+02  0.22183624062E+02  0.54232929158E+02  0.17770000000E+01 0.  1.
</event>
<event>
 7    1  0.6322078E-006  0.4325774E+03  0.7546771E-02  0.9564759E-01
        -11   -1    0    0    0    0  0.00000000000E+00  0.00000000000E+00  0.50000000000E+03  0.50000000000E+03  0.00000000000E+00 0.  1.
         11   -1    0    0    0    0 -0.00000000000E+00 -0.00000000000E+00 -0.50000000000E+03  0.50000000000E+03  0.00000000000E+00 0. -1.
         23    2    1    2    0    0 -0.15383909591E+03  0.66980428483E+02  0.35746712364E+03  0.40562010728E+03  0.92693482597E+02 0.  0.
        -11    1    1    2    0    0  0.76494499682E+02 -0.55057070648E+02  0.95810519659E+02  0.13439622460E+03  0.00000000000E+00 0.  1.
         11    1    1    2    0    0  0.77344596230E+02 -0.11923357835E+02 -0.45327764329E+03  0.45998366812E+03  0.00000000000E+00 0. -1.
        -15    1    3    3    0    0 -0.82153106578E+02  0.82824660424E+01  0.25218324128E+03  0.26536253894E+03  0.17770000000E+01 0.  1.
         15    1    3    3    0    0 -0.71685989334E+02  0.58697962440E+02  0.10528388236E+03  0.14025756833E+03  0.17770000000E+01 0. -1.
</event>
<event>
 7    1  0.6322078E-006  0.5076445E+03  0.7546771E-02  0.9382865E-01
        -11   -1    0    0    0    0  0.00000000000E+00  0.00000000000E+00  0.50000000000E+03  0.50000000000E+03  0.00000000000E+00 0. -1.
         11   -1    0    0    0    0 -0.00000000000E+00 -0.00000000000E+00 -0.50000000000E+03  0.50000000000E+03  0.00000000000E+00 0.  1.
         23    2    1    2    0    0 -0.86430691696E+02  0.10870468968E+03  0.27775677310E+03  0.32419212610E+03  0.93084561544E+02 0.  0.
        -11    1    1    2    0    0 -0.60016659408E+02  0.89371564208E+02  0.14854462853E+03  0.18345239863E+03  0.00000000000E+00 0. -1.
         11    1    1    2    0    0  0.14644735110E+03 -0.19807625389E+03 -0.42630140163E+03  0.49235547527E+03  0.00000000000E+00 0.  1.
        -15    1    3    3    0    0 -0.45414773474E+02  0.61137782880E+02  0.23786118827E+03  0.24976275295E+03  0.17770000000E+01 0. -1.
         15    1    3    3    0    0 -0.41015918222E+02  0.47566906799E+02  0.39895584825E+02  0.74429373150E+02  0.17770000000E+01 0.  1.
</event>
<event>
 7    1  0.6322078E-006  0.4156554E+03  0.7546771E-02  0.9611242E-01
        -11   -1    0    0    0    0  0.00000000000E+00  0.00000000000E+00  0.50000000000E+03  0.50000000000E+03  0.00000000000E+00 0. -1.
         11   -1    0    0    0    0 -0.00000000000E+00 -0.00000000000E+00 -0.50000000000E+03  0.50000000000E+03  0.00000000000E+00 0.  1.
         23    2    1    2    0    0  0.52165769685E+02 -0.17564096234E+02  0.45072436012E+03  0.46370724908E+03  0.94032967840E+02 0.  0.
        -11    1    1    2    0    0  0.11181530330E+03 -0.18217290637E+02 -0.11769633760E+03  0.16336143858E+03  0.00000000000E+00 0. -1.
         11    1    1    2    0    0 -0.16398107298E+03  0.35781386872E+02 -0.33302802252E+03  0.37293131234E+03  0.00000000000E+00 0.  1.
        -15    1    3    3    0    0  0.40092121531E+02  0.31797267430E+02  0.30729723448E+03  0.31153361371E+03  0.17770000000E+01 0.  1.
         15    1    3    3    0    0  0.12073648153E+02 -0.49361363665E+02  0.14342712564E+03  0.15217363537E+03  0.17770000000E+01 0. -1.
</event>
<event>
 7    1  0.6322078E-006  0.3801683E+03  0.7546771E-02  0.9716883E-01
        -11   -1    0    0    0    0  0.00000000000E+00  0.00000000000E+00  0.50000000000E+03  0.50000000000E+03  0.00000000000E+00 0. -1.
         11   -1    0    0    0    0 -0.00000000000E+00 -0.00000000000E+00 -0.50000000000E+03  0.50000000000E+03  0.00000000000E+00 0. -1.
         23    2    1    2    0    0  0.10276262585E+03 -0.17677425608E+02  0.16409345308E+03  0.21519999958E+03  0.92259036566E+02 0.  0.
        -11    1    1    2    0    0 -0.16310170140E+03 -0.30877287933E+02  0.28459888321E+03  0.32947245141E+03  0.00000000000E+00 0. -1.
         11    1    1    2    0    0  0.60339075552E+02  0.48554713541E+02 -0.44869233629E+03  0.45532754901E+03  0.00000000000E+00 0. -1.
        -15    1    3    3    0    0  0.66573038509E+02  0.19420495545E+02  0.38536537610E+02  0.79355828794E+02  0.17770000000E+01 0. -1.
         15    1    3    3    0    0  0.36189587344E+02 -0.37097921153E+02  0.12555691547E+03  0.13584417079E+03  0.17770000000E+01 0.  1.
</event>
<event>
 7    1  0.6322078E-006  0.5277904E+03  0.7546771E-02  0.9339687E-01
        -11   -1    0    0    0    0  0.00000000000E+00  0.00000000000E+00  0.50000000000E+03  0.50000000000E+03  0.00000000000E+00 0.  1.
         11   -1    0    0    0    0 -0.00000000000E+00 -0.00000000000E+00 -0.50000000000E+03  0.50000000000E+03  0.00000000000E+00 0. -1.
         23    2    1    2    0    0  0.23095734281E+01  0.10934644645E+03  0.92066297496E+02  0.16929557553E+03  0.90679707090E+02 0.  0.
        -11    1    1    2    0    0 -0.10378627432E+03  0.55581390882E+02  0.33861133433E+03  0.35849479422E+03  0.00000000000E+00 0.  1.
         11    1    1    2    0    0  0.10147670089E+03 -0.16492783733E+03 -0.43067763182E+03  0.47220963025E+03  0.00000000000E+00 0. -1.
        -15    1    3    3    0    0  0.95579852173E+01  0.54147318794E+02  0.98905705397E+02  0.11317589630E+03  0.17770000000E+01 0.  1.
         15    1    3    3    0    0 -0.72484117892E+01  0.55199127652E+02 -0.68394079010E+01  0.56119679226E+02  0.17770000000E+01 0. -1.
</event>
<event>
 7    1  0.6322078E-006  0.4319306E+03  0.7546771E-02  0.9566493E-01
        -11   -1    0    0    0    0  0.00000000000E+00  0.00000000000E+00  0.50000000000E+03  0.50000000000E+03  0.00000000000E+00 0. -1.
         11   -1    0    0    0    0 -0.00000000000E+00 -0.00000000000E+00 -0.50000000000E+03  0.50000000000E+03  0.00000000000E+00 0.  1.
         23    2    1    2    0    0 -0.10986235563E+03  0.21302170766E+02  0.42461456809E+03  0.44875019571E+03  0.92496956993E+02 0.  0.
        -11    1    1    2    0    0  0.10976495897E+03  0.76702198078E+02 -0.20558184561E+02  0.13547771905E+03  0.00000000000E+00 0. -1.
         11    1    1    2    0    0  0.97396667105E-01 -0.98004368844E+02 -0.40405638352E+03  0.41577208524E+03  0.00000000000E+00 0.  1.
        -15    1    3    3    0    0 -0.86167370193E+02  0.15693513450E+02  0.41211315717E+03  0.42132115315E+03  0.17770000000E+01 0.  1.
         15    1    3    3    0    0 -0.23694985440E+02  0.56086573159E+01  0.12501410921E+02  0.27429042563E+02  0.17770000000E+01 0. -1.
</event>
<event>
 7    1  0.6322078E-006  0.5376965E+03  0.7546771E-02  0.9319199E-01
        -11   -1    0    0    0    0  0.00000000000E+00  0.00000000000E+00  0.50000000000E+03  0.50000000000E+03  0.00000000000E+00 0. -1.
         11   -1    0    0    0    0 -0.00000000000E+00 -0.00000000000E+00 -0.50000000000E+03  0.50000000000E+03  0.00000000000E+00 0. -1.
         23    2    1    2    0    0  0.11164684919E+03  0.81162135588E+02 -0.15750166876E+03  0.22659152772E+03  0.86513776841E+02 0.  0.
        -11    1    1    2    0    0 -0.78166182467E+02  0.11505818595E+01  0.45564592127E+03  0.46230345174E+03  0.00000000000E+00 0. -1.
         11    1    1    2    0    0 -0.33480666722E+02 -0.82312717447E+02 -0.29814425252E+03  0.31110502054E+03  0.00000000000E+00 0. -1.
        -15    1    3    3    0    0  0.31955503615E+02 -0.16309188824E+02 -0.46316813787E+02  0.58613554915E+02  0.17770000000E+01 0. -1.
         15    1    3    3    0    0  0.79691345575E+02  0.97471324411E+02 -0.11118485497E+03  0.16797797280E+03  0.17770000000E+01 0.  1.
</event>
<event>
 7    1  0.6322078E-006  0.5213585E+03  0.7546771E-02  0.9353247E-01
        -11   -1    0    0    0    0  0.00000000000E+00  0.00000000000E+00  0.50000000000E+03  0.50000000000E+03  0.00000000000E+00 0. -1.
         11   -1    0    0    0    0 -0.00000000000E+00 -0.00000000000E+00 -0.50000000000E+03  0.50000000000E+03  0.00000000000E+00 0. -1.
         23    2    1    2    0    0 -0.84573338668E+02 -0.29573818902E+02 -0.13170978190E+03  0.18860387527E+03  0.10097868459E+03 0.  0.
        -11    1    1    2    0    0  0.24103117314E+03 -0.72288112188E+02  0.40715615181E+03  0.47864154599E+03  0.00000000000E+00 0. -1.
         11    1    1    2    0    0 -0.15645783448E+03  0.10186193109E+03 -0.27544636991E+03  0.33275457874E+03  0.00000000000E+00 0. -1.
        -15    1    3    3    0    0  0.24152193915E+01  0.27830370172E+02 -0.13746020387E+02  0.31184508880E+02  0.17770000000E+01 0.  1.
         15    1    3    3    0    0 -0.86988558059E+02 -0.57404189074E+02 -0.11796376151E+03  0.15741936639E+03  0.17770000000E+01 0. -1.
</event>
<event>
 7    1  0.6322078E-006  0.4700010E+03  0.7546771E-02  0.9469556E-01
        -11   -1    0    0    0    0  0.00000000000E+00  0.00000000000E+00  0.50000000000E+03  0.50000000000E+03  0.00000000000E+00 0. -1.
         11   -1    0    0    0    0 -0.00000000000E+00 -0.00000000000E+00 -0.50000000000E+03  0.50000000000E+03  0.00000000000E+00 0.  1.
         23    2    1    2    0    0 -0.65884170548E+01 -0.48764815469E+02  0.43545865137E+03  0.44806333296E+03  0.93354693622E+02 0.  0.
        -11    1    1    2    0    0  0.19929377841E+02 -0.50613753202E+02  0.39042359988E+02  0.66956986102E+02  0.00000000000E+00 0. -1.
         11    1    1    2    0    0 -0.13340960787E+02  0.99378568671E+02 -0.47450101136E+03  0.48497968094E+03  0.00000000000E+00 0.  1.
        -15    1    3    3    0    0 -0.45536985704E+02 -0.16523031639E+02  0.13645108292E+03  0.14480567462E+03  0.17770000000E+01 0.  1.
         15    1    3    3    0    0  0.38948568649E+02 -0.32241783829E+02  0.29900756845E+03  0.30325765834E+03  0.17770000000E+01 0. -1.
</event>
<event>
 7    1  0.6322078E-006  0.3838226E+03  0.7546771E-02  0.9705446E-01
        -11   -1    0    0    0    0  0.00000000000E+00  0.00000000000E+00  0.50000000000E+03  0.50000000000E+03  0.00000000000E+00 0.  1.
         11   -1    0    0    0    0 -0.00000000000E+00 -0.00000000000E+00 -0.50000000000E+03  0.50000000000E+03  0.00000000000E+00 0. -1.
         23    2    1    2    0    0  0.21897527872E+03 -0.23214751772E+03 -0.81295414786E+02  0.34794501289E+03  0.11231271013E+03 0.  0.
        -11    1    1    2    0    0 -0.30191496927E+03  0.15776621540E+03  0.26881310510E+03  0.43393929629E+03  0.00000000000E+00 0.  1.
         11    1    1    2    0    0  0.82939690552E+02  0.74381302322E+02 -0.18751769031E+03  0.21811569082E+03  0.00000000000E+00 0. -1.
        -15    1    3    3    0    0  0.11685457946E+03 -0.10484298309E+03  0.16188516710E+02  0.15783621146E+03  0.17770000000E+01 0.  1.
         15    1    3    3    0    0  0.10212069925E+03 -0.12730453463E+03 -0.97483931497E+02  0.19010880143E+03  0.17770000000E+01 0. -1.
</event>
<event>
 7    1  0.6322078E-006  0.4055862E+03  0.7546771E-02  0.9640038E-01
        -11   -1    0    0    0    0  0.00000000000E+00  0.00000000000E+00  0.50000000000E+03  0.50000000000E+03  0.00000000000E+00 0.  1.
         11   -1    0    0    0    0 -0.00000000000E+00 -0.00000000000E+00 -0.50000000000E+03  0.50000000000E+03  0.00000000000E+00 0.  1.
         23    2    1    2    0    0  0.68881329830E+02 -0.11575977773E+03 -0.51148095754E+02  0.17612999044E+03  0.10129502502E+03 0.  0.
        -11    1    1    2    0    0 -0.63924228184E+02  0.49281414879E+02  0.43085774089E+03  0.43835300579E+03  0.00000000000E+00 0.  1.
         11    1    1    2    0    0 -0.49571016456E+01  0.66478362848E+02 -0.37970964514E+03  0.38551700377E+03  0.00000000000E+00 0.  1.
        -15    1    3    3    0    0 -0.15458739183E+02 -0.71562482862E+02 -0.19729320281E+02  0.75845668158E+02  0.17770000000E+01 0. -1.
         15    1    3    3    0    0  0.84340069013E+02 -0.44197294864E+02 -0.31418775473E+02  0.10028432228E+03  0.17770000000E+01 0.  1.
</event>
<event>
 6    1  0.6322078E-006  0.3989502E+03  0.7546771E-02  0.9659508E-01
        -11   -1    0    0    0    0  0.00000000000E+00  0.00000000000E+00  0.50000000000E+03  0.50000000000E+03  0.00000000000E+00 0.  1.
         11   -1    0    0    0    0 -0.00000000000E+00 -0.00000000000E+00 -0.50000000000E+03  0.50000000000E+03  0.00000000000E+00 0. -1.
        -11    1    1    2    0    0  0.85551059767E+02  0.12074956353E+03  0.14686740044E+03  0.20849334337E+03  0.00000000000E+00 0.  1.
         11    1    1    2    0    0 -0.65140846504E+02  0.75394629230E+02 -0.41179204874E+03  0.42367484160E+03  0.00000000000E+00 0. -1.
        -15    1    1    2    0    0  0.54350131843E+02 -0.13827165290E+02  0.79074499204E+02  0.96959071183E+02  0.17770000000E+01 0.  1.
         15    1    1    2    0    0 -0.74760345106E+02 -0.18231702747E+03  0.18585014910E+03  0.27087274384E+03  0.17770000000E+01 0. -1.
</event>
<event>
 7    1  0.6322078E-006  0.3486224E+03  0.7546771E-02  0.9821713E-01
        -11   -1    0    0    0    0  0.00000000000E+00  0.00000000000E+00  0.50000000000E+03  0.50000000000E+03  0.00000000000E+00 0.  1.
         11   -1    0    0    0    0 -0.00000000000E+00 -0.00000000000E+00 -0.50000000000E+03  0.50000000000E+03  0.00000000000E+00 0.  1.
         23    2    1    2    0    0 -0.10760381300E+03 -0.27938797701E+02  0.29846485130E+03  0.33140107045E+03  0.91576443725E+02 0.  0.
        -11    1    1    2    0    0  0.18694200730E+03  0.17556123686E+03  0.68269033409E+02  0.26538598852E+03  0.00000000000E+00 0.  1.
         11    1    1    2    0    0 -0.79338194301E+02 -0.14762243916E+03 -0.36673388471E+03  0.40321294103E+03  0.00000000000E+00 0.  1.
        -15    1    3    3    0    0 -0.12023951973E+03 -0.17724442011E+02  0.22091384394E+03  0.25214635060E+03  0.17770000000E+01 0.  1.
         15    1    3    3    0    0  0.12635706727E+02 -0.10214355691E+02  0.77551007363E+02  0.79254719852E+02  0.17770000000E+01 0. -1.
</event>
<event>
 7    1  0.6322078E-006  0.5186579E+03  0.7546771E-02  0.9359003E-01
        -11   -1    0    0    0    0  0.00000000000E+00  0.00000000000E+00  0.50000000000E+03  0.50000000000E+03  0.00000000000E+00 0.  1.
         11   -1    0    0    0    0 -0.00000000000E+00 -0.00000000000E+00 -0.50000000000E+03  0.50000000000E+03  0.00000000000E+00 0. -1.
         23    2    1    2    0    0  0.12407922358E+03  0.79942088506E+02 -0.24054019051E+03  0.29696545024E+03  0.92425668218E+02 0.  0.
        -11    1    1    2    0    0 -0.14445504759E+03 -0.39113198144E+02  0.45748569062E+03  0.48134214459E+03  0.00000000000E+00 0.  1.
         11    1    1    2    0    0  0.20375824008E+02 -0.40828890362E+02 -0.21694550010E+03  0.22169240516E+03  0.00000000000E+00 0. -1.
        -15    1    3    3    0    0 -0.89485948583E+01  0.15523278507E+02 -0.65160344416E+02  0.67602350099E+02  0.17770000000E+01 0.  1.
         15    1    3    3    0    0  0.13302781844E+03  0.64418810000E+02 -0.17537984610E+03  0.22936310014E+03  0.17770000000E+01 0. -1.
</event>
<event>
 7    1  0.6322078E-006  0.3348000E+03  0.7546771E-02  0.9871465E-01
        -11   -1    0    0    0    0  0.00000000000E+00  0.00000000000E+00  0.50000000000E+03  0.50000000000E+03  0.00000000000E+00 0.  1.
         11   -1    0    0    0    0 -0.00000000000E+00 -0.00000000000E+00 -0.50000000000E+03  0.50000000000E+03  0.00000000000E+00 0. -1.
         23    2    1    2    0    0 -0.22276091380E+03 -0.19210474925E+03  0.16210449465E+03  0.35835551574E+03  0.12495658874E+03 0.  0.
        -11    1    1    2    0    0  0.19400036348E+03  0.12312657878E+03  0.17974151086E+03  0.29172470954E+03  0.00000000000E+00 0.  1.
         11    1    1    2    0    0  0.28760550327E+02  0.68978170470E+02 -0.34184600551E+03  0.34991977472E+03  0.00000000000E+00 0. -1.
        -15    1    3    3    0    0 -0.27558845276E+02  0.11116692300E+02  0.43295421702E+02  0.52542573880E+02  0.17770000000E+01 0. -1.
         15    1    3    3    0    0 -0.19520206853E+03 -0.20322144155E+03  0.11880907295E+03  0.30581294186E+03  0.17770000000E+01 0. -1.
</event>
<event>
 7    1  0.6322078E-006  0.4587841E+03  0.7546771E-02  0.9497071E-01
        -11   -1    0    0    0    0  0.00000000000E+00  0.00000000000E+00  0.50000000000E+03  0.50000000000E+03  0.00000000000E+00 0.  1.
         11   -1    0    0    0    0 -0.00000000000E+00 -0.00000000000E+00 -0.50000000000E+03  0.50000000000E+03  0.00000000000E+00 0.  1.
         23    2    1    2    0    0  0.59086363601E+02 -0.89524309690E+02  0.41267345498E+03  0.43582343834E+03  0.90204703698E+02 0.  0.
        -11    1    1    2    0    0  0.73346882094E+02  0.23715968373E+02  0.40787206429E+02  0.87211286409E+02  0.00000000000E+00 0.  1.
         11    1    1    2    0    0 -0.13243324570E+03  0.65808341318E+02 -0.45346066141E+03  0.47696527525E+03  0.00000000000E+00 0.  1.
        -15    1    3    3    0    0  0.39070628731E+02 -0.10222801924E+03  0.37978210025E+03  0.39524003257E+03  0.17770000000E+01 0.  1.
         15    1    3    3    0    0  0.20015734871E+02  0.12703709547E+02  0.32891354734E+02  0.40583405770E+02  0.17770000000E+01 0. -1.
</event>
<event>
 6    1  0.6322078E-006  0.4661904E+03  0.7546771E-02  0.9478811E-01
        -11   -1    0    0    0    0  0.00000000000E+00  0.00000000000E+00  0.50000000000E+03  0.50000000000E+03  0.00000000000E+00 0. -1.
         11   -1    0    0    0    0 -0.00000000000E+00 -0.00000000000E+00 -0.50000000000E+03  0.50000000000E+03  0.00000000000E+00 0.  1.
        -11    1    1    2    0    0  0.88787552924E+01  0.48392058744E+02 -0.46684902375E+02  0.67824064717E+02  0.00000000000E+00 0. -1.
         11    1    1    2    0    0  0.51566520383E+02 -0.11646292131E+03 -0.42785764247E+03  0.44641335137E+03  0.00000000000E+00 0.  1.
        -15    1    1    2    0    0 -0.22306721391E+02  0.57629502632E+02  0.23623788529E+03  0.24419304980E+03  0.17770000000E+01 0.  1.
         15    1    1    2    0    0 -0.38138554285E+02  0.10441359932E+02  0.23830465955E+03  0.24156953411E+03  0.17770000000E+01 0. -1.
</event>
<event>
 7    1  0.6322078E-006  0.3483107E+03  0.7546771E-02  0.9822807E-01
        -11   -1    0    0    0    0  0.00000000000E+00  0.00000000000E+00  0.50000000000E+03  0.50000000000E+03  0.00000000000E+00 0.  1.
         11   -1    0    0    0    0 -0.00000000000E+00 -0.00000000000E+00 -0.50000000000E+03  0.50000000000E+03  0.00000000000E+00 0.  1.
         23    2    1    2    0    0 -0.24129870714E+03  0.42149011707E+02 -0.10701980274E+02  0.26148960938E+03  0.90888273048E+02 0.  0.
        -11    1    1    2    0    0  0.28952028841E+03 -0.17536748903E+03  0.27666069765E+03  0.43716918377E+03  0.00000000000E+00 0.  1.
         11    1    1    2    0    0 -0.48221581274E+02  0.13321847732E+03 -0.26595871737E+03  0.30134120685E+03  0.00000000000E+00 0.  1.
        -15    1    3    3    0    0 -0.79188133017E+02  0.49915931490E+02 -0.29346651728E+02  0.98115973847E+02  0.17770000000E+01 0. -1.
         15    1    3    3    0    0 -0.16211057412E+03 -0.77669197829E+01  0.18644671455E+02  0.16337363553E+03  0.17770000000E+01 0.  1.
</event>
<event>
 7    1  0.6322078E-006  0.3798086E+03  0.7546771E-02  0.9718016E-01
        -11   -1    0    0    0    0  0.00000000000E+00  0.00000000000E+00  0.50000000000E+03  0.50000000000E+03  0.00000000000E+00 0. -1.
         11   -1    0    0    0    0 -0.00000000000E+00 -0.00000000000E+00 -0.50000000000E+03  0.50000000000E+03  0.00000000000E+00 0. -1.
         23    2    1    2    0    0 -0.28490112428E+02 -0.67281014273E+02 -0.18077424431E+03  0.21575762674E+03  0.92377511892E+02 0.  0.
        -11    1    1    2    0    0 -0.12161955819E+03 -0.14962051755E+03  0.39818592187E+03  0.44241343174E+03  0.00000000000E+00 0. -1.
         11    1    1    2    0    0  0.15010967062E+03  0.21690153183E+03 -0.21741167756E+03  0.34182894152E+03  0.00000000000E+00 0. -1.
        -15    1    3    3    0    0  0.32288941104E+02 -0.10767354022E+02 -0.63615854884E+02  0.72170952272E+02  0.17770000000E+01 0.  1.
         15    1    3    3    0    0 -0.60779053531E+02 -0.56513660251E+02 -0.11715838942E+03  0.14358667447E+03  0.17770000000E+01 0. -1.
</event>
<event>
 7    1  0.6322078E-006  0.3817208E+03  0.7546771E-02  0.9712007E-01
        -11   -1    0    0    0    0  0.00000000000E+00  0.00000000000E+00  0.50000000000E+03  0.50000000000E+03  0.00000000000E+00 0. -1.
         11   -1    0    0    0    0 -0.00000000000E+00 -0.00000000000E+00 -0.50000000000E+03  0.50000000000E+03  0.00000000000E+00 0.  1.
         23    2    1    2    0    0  0.94168658593E+02 -0.67805789549E+02  0.15163508168E+03  0.21304275145E+03  0.94491558292E+02 0.  0.
        -11    1    1    2    0    0 -0.19640817247E+03 -0.15870420384E+03  0.22333663815E+03  0.33710895638E+03  0.00000000000E+00 0. -1.
         11    1    1    2    0    0  0.10223951387E+03  0.22650999339E+03 -0.37497171983E+03  0.44984829218E+03  0.00000000000E+00 0.  1.
        -15    1    3    3    0    0 -0.35391475681E+01 -0.43584875615E+02  0.22236277329E+02  0.49089476533E+02  0.17770000000E+01 0.  1.
         15    1    3    3    0    0  0.97707806161E+02 -0.24220913934E+02  0.12939880436E+03  0.16395327491E+03  0.17770000000E+01 0. -1.
</event>
<event>
 7    1  0.6322078E-006  0.5234703E+03  0.7546771E-02  0.9348772E-01
        -11   -1    0    0    0    0  0.00000000000E+00  0.00000000000E+00  0.50000000000E+03  0.50000000000E+03  0.00000000000E+00 0.  1.
         11   -1    0    0    0    0 -0.00000000000E+00 -0.00000000000E+00 -0.50000000000E+03  0.50000000000E+03  0.00000000000E+00 0. -1.
         23    2    1    2    0    0  0.68867712902E+02 -0.24361896821E+02  0.33769225230E+03  0.35706912218E+03  0.90144533127E+02 0.  0.
        -11    1    1    2    0    0 -0.30503365020E+02  0.97026673095E+02  0.13169940509E+03  0.16640121355E+03  0.00000000000E+00 0.  1.
         11    1    1    2    0    0 -0.38364347883E+02 -0.72664776274E+02 -0.46939165739E+03  0.47652966427E+03  0.00000000000E+00 0. -1.
        -15    1    3    3    0    0  0.96390814577E+01 -0.15463998742E+02  0.49377653288E+01  0.18962763614E+02  0.17770000000E+01 0. -1.
         15    1    3    3    0    0  0.59228631445E+02 -0.88978980790E+01  0.33275448697E+03  0.33810635856E+03  0.17770000000E+01 0.  1.
</event>
<event>
 7    1  0.6322078E-006  0.5116095E+03  0.7546771E-02  0.9374201E-01
        -11   -1    0    0    0    0  0.00000000000E+00  0.00000000000E+00  0.50000000000E+03  0.50000000000E+03  0.00000000000E+00 0.  1.
         11   -1    0    0    0    0 -0.00000000000E+00 -0.00000000000E+00 -0.50000000000E+03  0.50000000000E+03  0.00000000000E+00 0.  1.
         23    2    1    2    0    0 -0.27076146209E+02 -0.66846459662E+02  0.26990396861E+03  0.29384828136E+03  0.91088381939E+02 0.  0.
        -11    1    1    2    0    0 -0.36387440750E+02 -0.12442318412E+03  0.17497080078E+03  0.21776123557E+03  0.00000000000E+00 0.  1.
         11    1    1    2    0    0  0.63463586959E+02  0.19126964379E+03 -0.44487476939E+03  0.48839048306E+03  0.00000000000E+00 0.  1.
        -15    1    3    3    0    0 -0.20890720015E+02 -0.85690440739E+02  0.25226977849E+03  0.26724983197E+03  0.17770000000E+01 0.  1.
         15    1    3    3    0    0 -0.61854261940E+01  0.18843981077E+02  0.17634190117E+02  0.26598449393E+02  0.17770000000E+01 0. -1.
</event>
<event>
 7    1  0.6322078E-006  0.5061737E+03  0.7546771E-02  0.9386101E-01
        -11   -1    0    0    0    0  0.00000000000E+00  0.00000000000E+00  0.50000000000E+03  0.50000000000E+03  0.00000000000E+00 0.  1.
         11   -1    0    0    0    0 -0.00000000000E+00 -0.00000000000E+00 -0.50000000000E+03  0.50000000000E+03  0.00000000000E+00 0.  1.
         23    2    1    2    0    0 -0.69167262353E+02  0.21356453437E+02  0.47942988879E+03  0.49382627970E+03  0.93654513874E+02 0.  0.
        -11    1    1    2    0    0  0.56595923127E+02  0.49921150693E+02 -0.13930585158E+03  0.15843402440E+03  0.00000000000E+00 0.  1.
         11    1    1    2    0    0  0.12571339227E+02 -0.71277604130E+02 -0.34012403721E+03  0.34773969590E+03  0.00000000000E+00 0.  1.
        -15    1    3    3    0    0 -0.33875436676E+01  0.46240289442E+02  0.23173711759E+03  0.23633638996E+03  0.17770000000E+01 0. -1.
         15    1    3    3    0    0 -0.65779718686E+02 -0.24883836005E+02  0.24769277120E+03  0.25748988974E+03  0.17770000000E+01 0.  1.
</event>
<event>
 7    1  0.6322078E-006  0.3779718E+03  0.7546771E-02  0.9723824E-01
        -11   -1    0    0    0    0  0.00000000000E+00  0.00000000000E+00  0.50000000000E+03  0.50000000000E+03  0.00000000000E+00 0.  1.
         11   -1    0    0    0    0 -0.00000000000E+00 -0.00000000000E+00 -0.50000000000E+03  0.50000000000E+03  0.00000000000E+00 0. -1.
         23    2    1    2    0    0  0.67658556266E+02  0.38682060131E+02  0.40009082457E+03  0.41765514608E+03  0.91044885225E+02 0.  0.
        -11    1    1    2    0    0 -0.10189072143E+03  0.16668830875E+03 -0.10674964781E+03  0.22262569190E+03  0.00000000000E+00 0.  1.
         11    1    1    2    0    0  0.34232165160E+02 -0.20537036888E+03 -0.29334117676E+03  0.35971916202E+03  0.00000000000E+00 0. -1.
        -15    1    3    3    0    0 -0.18594562322E+02  0.12607404727E+02  0.35177580272E+02  0.41777078460E+02  0.17770000000E+01 0.  1.
         15    1    3    3    0    0  0.86253118588E+02  0.26074655405E+02  0.36491324430E+03  0.37587806762E+03  0.17770000000E+01 0. -1.
</event>
<event>
 7    1  0.6322078E-006  0.5168825E+03  0.7546771E-02  0.9362807E-01
        -11   -1    0    0    0    0  0.00000000000E+00  0.00000000000E+00  0.50000000000E+03  0.50000000000E+03  0.00000000000E+00 0.  1.
         11   -1    0    0    0    0 -0.00000000000E+00 -0.00000000000E+00 -0.50000000000E+03  0.50000000000E+03  0.00000000000E+00 0.  1.
         23    2    1    2    0    0  0.58763720865E+02 -0.20300899172E+01  0.36856594147E+03  0.38353948663E+03  0.88342449793E+02 0.  0.
        -11    1    1    2    0    0  0.19123145552E+02  0.84979636707E+02  0.10096099237E+03  0.13334299881E+03  0.00000000000E+00 0.  1.
         11    1    1    2    0    0 -0.77886866417E+02 -0.82949546790E+02 -0.46952693384E+03  0.48311751456E+03  0.00000000000E+00 0.  1.
        -15    1    3    3    0    0  0.36518098404E+02 -0.43198451961E+02  0.24360662141E+03  0.25009402529E+03  0.17770000000E+01 0.  1.
         15    1    3    3    0    0  0.22245622461E+02  0.41168362044E+02  0.12495932006E+03  0.13344546134E+03  0.17770000000E+01 0. -1.
</event>
<event>
 7    1  0.6322078E-006  0.5222064E+03  0.7546771E-02  0.9351448E-01
        -11   -1    0    0    0    0  0.00000000000E+00  0.00000000000E+00  0.50000000000E+03  0.50000000000E+03  0.00000000000E+00 0.  1.
         11   -1    0    0    0    0 -0.00000000000E+00 -0.00000000000E+00 -0.50000000000E+03  0.50000000000E+03  0.00000000000E+00 0. -1.
         23    2    1    2    0    0  0.12342897712E+02  0.64165563897E+02 -0.75957721867E+02  0.13555621248E+03  0.91303584351E+02 0.  0.
        -11    1    1    2    0    0 -0.86191770092E+02 -0.14730838098E+03  0.44627111729E+03  0.47779356470E+03  0.00000000000E+00 0.  1.
         11    1    1    2    0    0  0.73848872380E+02  0.83142817084E+02 -0.37031339542E+03  0.38665022283E+03  0.00000000000E+00 0. -1.
        -15    1    3    3    0    0  0.10357287675E+02  0.29854999381E+02  0.17357410352E+02  0.36097532036E+02  0.17770000000E+01 0.  1.
         15    1    3    3    0    0  0.19856100370E+01  0.34310564516E+02 -0.93315132219E+02  0.99458680439E+02  0.17770000000E+01 0. -1.
</event>
<event>
 7    1  0.6322078E-006  0.5230071E+03  0.7546771E-02  0.9349752E-01
        -11   -1    0    0    0    0  0.00000000000E+00  0.00000000000E+00  0.50000000000E+03  0.50000000000E+03  0.00000000000E+00 0. -1.
         11   -1    0    0    0    0 -0.00000000000E+00 -0.00000000000E+00 -0.50000000000E+03  0.50000000000E+03  0.00000000000E+00 0.  1.
         23    2    1    2    0    0 -0.47645942071E+02  0.17673399343E+02  0.37918548407E+03  0.39332324828E+03  0.91318461818E+02 0.  0.
        -11    1    1    2    0    0  0.62836804619E+02  0.69725995205E+02  0.89485857194E+02  0.12968383500E+03  0.00000000000E+00 0. -1.
         11    1    1    2    0    0 -0.15190862549E+02 -0.87399394549E+02 -0.46867134127E+03  0.47699291672E+03  0.00000000000E+00 0.  1.
        -15    1    3    3    0    0  0.50292662291E+01  0.43735022756E+02  0.12881290358E+03  0.13613951517E+03  0.17770000000E+01 0.  1.
         15    1    3    3    0    0 -0.52675208300E+02 -0.26061623412E+02  0.25037258049E+03  0.25718373311E+03  0.17770000000E+01 0. -1.
</event>
<event>
 7    1  0.6322078E-006  0.3543899E+03  0.7546771E-02  0.9801680E-01
        -11   -1    0    0    0    0  0.00000000000E+00  0.00000000000E+00  0.50000000000E+03  0.50000000000E+03  0.00000000000E+00 0.  1.
         11   -1    0    0    0    0 -0.00000000000E+00 -0.00000000000E+00 -0.50000000000E+03  0.50000000000E+03  0.00000000000E+00 0.  1.
         23    2    1    2    0    0 -0.30867191445E+02 -0.94898522631E+01  0.23310116627E+03  0.25317482069E+03  0.93372883170E+02 0.  0.
        -11    1    1    2    0    0 -0.25813349228E+03  0.15375718193E+03  0.64858539340E+02  0.30737729415E+03  0.00000000000E+00 0.  1.
         11    1    1    2    0    0  0.28900068373E+03 -0.14426732967E+03 -0.29795970561E+03  0.43944788516E+03  0.00000000000E+00 0.  1.
        -15    1    3    3    0    0  0.92236206456E+01  0.26398809887E+02  0.22896498024E+02  0.36185351899E+02  0.17770000000E+01 0.  1.
         15    1    3    3    0    0 -0.40090812091E+02 -0.35888662150E+02  0.21020466824E+03  0.21698946879E+03  0.17770000000E+01 0. -1.
</event>
<event>
 7    1  0.6322078E-006  0.5181894E+03  0.7546771E-02  0.9360005E-01
        -11   -1    0    0    0    0  0.00000000000E+00  0.00000000000E+00  0.50000000000E+03  0.50000000000E+03  0.00000000000E+00 0.  1.
         11   -1    0    0    0    0 -0.00000000000E+00 -0.00000000000E+00 -0.50000000000E+03  0.50000000000E+03  0.00000000000E+00 0. -1.
         23    2    1    2    0    0  0.27472064341E+02  0.58731008472E+00 -0.18111594216E+03  0.20777717079E+03  0.98047483111E+02 0.  0.
        -11    1    1    2    0    0 -0.80012169489E+02 -0.13706693071E+03  0.45491992312E+03  0.48181057191E+03  0.00000000000E+00 0.  1.
         11    1    1    2    0    0  0.52540105149E+02  0.13647962062E+03 -0.27380398095E+03  0.31041225730E+03  0.00000000000E+00 0. -1.
        -15    1    3    3    0    0  0.38624211762E+02  0.23450954490E+02 -0.17606718309E+03  0.18178170340E+03  0.17770000000E+01 0.  1.
         15    1    3    3    0    0 -0.11152147421E+02 -0.22863644405E+02 -0.50487590691E+01  0.25995467388E+02  0.17770000000E+01 0. -1.
</event>
<event>
 7    1  0.6322078E-006  0.4434800E+03  0.7546771E-02  0.9535994E-01
        -11   -1    0    0    0    0  0.00000000000E+00  0.00000000000E+00  0.50000000000E+03  0.50000000000E+03  0.00000000000E+00 0.  1.
         11   -1    0    0    0    0 -0.00000000000E+00 -0.00000000000E+00 -0.50000000000E+03  0.50000000000E+03  0.00000000000E+00 0. -1.
         23    2    1    2    0    0 -0.58989841020E+02  0.11788574152E+02  0.74140210240E+01  0.11097151350E+03  0.92956641917E+02 0.  0.
        -11    1    1    2    0    0  0.11914425052E+03 -0.90843682370E+02  0.42224308661E+03  0.44803699763E+03  0.00000000000E+00 0.  1.
         11    1    1    2    0    0 -0.60154409497E+02  0.79055108218E+02 -0.42965710763E+03  0.44099148887E+03  0.00000000000E+00 0. -1.
        -15    1    3    3    0    0 -0.40988844877E+01  0.17078907668E+02  0.42202309368E+02  0.45745847748E+02  0.17770000000E+01 0.  1.
         15    1    3    3    0    0 -0.54890956532E+02 -0.52903335167E+01 -0.34788288344E+02  0.65225665751E+02  0.17770000000E+01 0. -1.
</event>
<event>
 7    1  0.6322078E-006  0.5085263E+03  0.7546771E-02  0.9380931E-01
        -11   -1    0    0    0    0  0.00000000000E+00  0.00000000000E+00  0.50000000000E+03  0.50000000000E+03  0.00000000000E+00 0. -1.
         11   -1    0    0    0    0 -0.00000000000E+00 -0.00000000000E+00 -0.50000000000E+03  0.50000000000E+03  0.00000000000E+00 0.  1.
         23    2    1    2    0    0 -0.14939697896E+02  0.60695071890E+02  0.37787897167E+03  0.39485489101E+03  0.95972815941E+02 0.  0.
        -11    1    1    2    0    0 -0.39997174829E+02  0.28418797601E+01  0.10636416112E+03  0.11367139062E+03  0.00000000000E+00 0. -1.
         11    1    1    2    0    0  0.54936872725E+02 -0.63536951650E+02 -0.48424313278E+03  0.49147371838E+03  0.00000000000E+00 0.  1.
        -15    1    3    3    0    0 -0.28276100272E+02  0.83276334947E+02  0.30213892689E+03  0.31468329266E+03  0.17770000000E+01 0. -1.
         15    1    3    3    0    0  0.13336402376E+02 -0.22581263058E+02  0.75740044773E+02  0.80171598342E+02  0.17770000000E+01 0.  1.
</event>
<event>
 7    1  0.6322078E-006  0.4005270E+03  0.7546771E-02  0.9654845E-01
        -11   -1    0    0    0    0  0.00000000000E+00  0.00000000000E+00  0.50000000000E+03  0.50000000000E+03  0.00000000000E+00 0.  1.
         11   -1    0    0    0    0 -0.00000000000E+00 -0.00000000000E+00 -0.50000000000E+03  0.50000000000E+03  0.00000000000E+00 0. -1.
         23    2    1    2    0    0  0.46470883828E+02  0.13344597450E+03  0.68747539994E+02  0.18367830631E+03  0.95100603574E+02 0.  0.
        -11    1    1    2    0    0 -0.18771844401E+03 -0.29057743601E+02  0.32991084336E+03  0.38068849635E+03  0.00000000000E+00 0.  1.
         11    1    1    2    0    0  0.14124756019E+03 -0.10438823090E+03 -0.39865838335E+03  0.43563319734E+03  0.00000000000E+00 0. -1.
        -15    1    3    3    0    0  0.49722155065E+02  0.36129464653E+02  0.59979790099E+02  0.85897403160E+02  0.17770000000E+01 0. -1.
         15    1    3    3    0    0 -0.32512712373E+01  0.97316509852E+02  0.87677498956E+01  0.97780903154E+02  0.17770000000E+01 0.  1.
</event>
<event>
 7    1  0.6322078E-006  0.4638373E+03  0.7546771E-02  0.9484573E-01
        -11   -1    0    0    0    0  0.00000000000E+00  0.00000000000E+00  0.50000000000E+03  0.50000000000E+03  0.00000000000E+00 0.  1.
         11   -1    0    0    0    0 -0.00000000000E+00 -0.00000000000E+00 -0.50000000000E+03  0.50000000000E+03  0.00000000000E+00 0. -1.
         23    2    1    2    0    0  0.11240463412E+03  0.20824489343E+03 -0.36981794075E+03  0.44821210599E+03  0.90155672274E+02 0.  0.
        -11    1    1    2    0    0 -0.11216768077E+03 -0.16069599177E+03  0.43149355846E+03  0.47391083695E+03  0.00000000000E+00 0.  1.
         11    1    1    2    0    0 -0.23695335807E+00 -0.47548901663E+02 -0.61675617719E+02  0.77877057066E+02  0.00000000000E+00 0. -1.
        -15    1    3    3    0    0  0.86209425576E+02  0.12460962176E+03 -0.15775275975E+03  0.21874348866E+03  0.17770000000E+01 0. -1.
         15    1    3    3    0    0  0.26195208547E+02  0.83635271672E+02 -0.21206518099E+03  0.22946861733E+03  0.17770000000E+01 0.  1.
</event>
<event>
 7    1  0.6322078E-006  0.3952577E+03  0.7546771E-02  0.9670517E-01
        -11   -1    0    0    0    0  0.00000000000E+00  0.00000000000E+00  0.50000000000E+03  0.50000000000E+03  0.00000000000E+00 0.  1.
         11   -1    0    0    0    0 -0.00000000000E+00 -0.00000000000E+00 -0.50000000000E+03  0.50000000000E+03  0.00000000000E+00 0.  1.
         23    2    1    2    0    0 -0.13560657445E+03 -0.10265419543E+03  0.42523335205E+03  0.46697391537E+03  0.91182273903E+02 0.  0.
        -11    1    1    2    0    0 -0.55438173476E+02  0.11603073473E+03 -0.14780280122E+03  0.19591373237E+03  0.00000000000E+00 0.  1.
         11    1    1    2    0    0  0.19104474793E+03 -0.13376539309E+02 -0.27743055083E+03  0.33711235226E+03  0.00000000000E+00 0.  1.
        -15    1    3    3    0    0 -0.98342084367E+02 -0.34106051947E+02  0.31614188683E+03  0.33284116133E+03  0.17770000000E+01 0. -1.
         15    1    3    3    0    0 -0.37264490082E+02 -0.68548143479E+02  0.10909146521E+03  0.13413275404E+03  0.17770000000E+01 0.  1.
</event>
<event>
 7    1  0.6660754E-006  0.5111029E+03  0.7546771E-02  0.9375303E-01
        -11   -1    0    0    0    0  0.00000000000E+00  0.00000000000E+00  0.50000000000E+03  0.50000000000E+03  0.00000000000E+00 0.  1.
         11   -1    0    0    0    0 -0.00000000000E+00 -0.00000000000E+00 -0.50000000000E+03  0.50000000000E+03  0.00000000000E+00 0. -1.
         23    2    1    2    0    0  0.60154907819E+02  0.43455045479E+02 -0.26910588960E+03  0.29222001620E+03  0.86415300381E+02 0.  0.
        -11    1    1    2    0    0 -0.23996835230E+02 -0.88790051785E+02  0.48016756524E+03  0.48889713857E+03  0.00000000000E+00 0.  1.
         11    1    1    2    0    0 -0.36158072589E+02  0.45335006306E+02 -0.21106167564E+03  0.21888284522E+03  0.00000000000E+00 0. -1.
        -15    1    3    3    0    0  0.81871980103E+02  0.42087031250E+02 -0.21762106237E+03  0.23629732085E+03  0.17770000000E+01 0. -1.
         15    1    3    3    0    0 -0.21717072284E+02  0.13680142293E+01 -0.51484827233E+02  0.55922695355E+02  0.17770000000E+01 0.  1.
</event>
<event>
 7    1  0.6322078E-006  0.5167903E+03  0.7546771E-02  0.9363004E-01
        -11   -1    0    0    0    0  0.00000000000E+00  0.00000000000E+00  0.50000000000E+03  0.50000000000E+03  0.00000000000E+00 0.  1.
         11   -1    0    0    0    0 -0.00000000000E+00 -0.00000000000E+00 -0.50000000000E+03  0.50000000000E+03  0.00000000000E+00 0. -1.
         23    2    1    2    0    0 -0.99791120944E+02  0.10053286921E+03 -0.27864333534E+03  0.32574212212E+03  0.91655311810E+02 0.  0.
        -11    1    1    2    0    0  0.65454107705E+02 -0.10791297099E+03  0.46643556444E+03  0.48320967012E+03  0.00000000000E+00 0.  1.
         11    1    1    2    0    0  0.34337013239E+02  0.73801017778E+01 -0.18779222910E+03  0.19104820776E+03  0.00000000000E+00 0. -1.
        -15    1    3    3    0    0 -0.47987615055E+02  0.28669540139E+02 -0.19863569890E+03  0.20635903745E+03  0.17770000000E+01 0.  1.
         15    1    3    3    0    0 -0.51803505889E+02  0.71863329075E+02 -0.80007636440E+02  0.11938308467E+03  0.17770000000E+01 0. -1.
</event>
<event>
 7    1  0.6322078E-006  0.4430314E+03  0.7546771E-02  0.9537161E-01
        -11   -1    0    0    0    0  0.00000000000E+00  0.00000000000E+00  0.50000000000E+03  0.50000000000E+03  0.00000000000E+00 0. -1.
         11   -1    0    0    0    0 -0.00000000000E+00 -0.00000000000E+00 -0.50000000000E+03  0.50000000000E+03  0.00000000000E+00 0.  1.
         23    2    1    2    0    0  0.16415308364E+02  0.54645840241E+02  0.26444322640E+02  0.11170834783E+03  0.92324550200E+02 0.  0.
        -11    1    1    2    0    0  0.95164412657E+02  0.13416813762E+02  0.41599446569E+03  0.42695160359E+03  0.00000000000E+00 0. -1.
         11    1    1    2    0    0 -0.11157972102E+03 -0.68062654003E+02 -0.44243878833E+03  0.46134004858E+03  0.00000000000E+00 0.  1.
        -15    1    3    3    0    0 -0.71361521618E+00  0.14465391343E+02 -0.34065707382E+02  0.37059235580E+02  0.17770000000E+01 0. -1.
         15    1    3    3    0    0  0.17128923580E+02  0.40180448898E+02  0.60510030022E+02  0.74649112245E+02  0.17770000000E+01 0.  1.
</event>
<event>
 7    1  0.6322078E-006  0.5134925E+03  0.7546771E-02  0.9370115E-01
        -11   -1    0    0    0    0  0.00000000000E+00  0.00000000000E+00  0.50000000000E+03  0.50000000000E+03  0.00000000000E+00 0.  1.
         11   -1    0    0    0    0 -0.00000000000E+00 -0.00000000000E+00 -0.50000000000E+03  0.50000000000E+03  0.00000000000E+00 0. -1.
         23    2    1    2    0    0  0.13871277014E+03 -0.19062512768E+02 -0.14439668077E+03  0.22087883353E+03  0.91282230974E+02 0.  0.
        -11    1    1    2    0    0 -0.25733908714E+03  0.73774630620E+02  0.40623082226E+03  0.48650753627E+03  0.00000000000E+00 0.  1.
         11    1    1    2    0    0  0.11862631700E+03 -0.54712117852E+02 -0.26183414149E+03  0.29261363020E+03  0.00000000000E+00 0. -1.
        -15    1    3    3    0    0  0.82438153351E+02 -0.53944973920E+02 -0.10415682302E+03  0.14338030147E+03  0.17770000000E+01 0.  1.
         15    1    3    3    0    0  0.56274616789E+02  0.34882461153E+02 -0.40239857753E+02  0.77498532062E+02  0.17770000000E+01 0. -1.
</event>
<event>
 7    1  0.6322078E-006  0.5235211E+03  0.7546771E-02  0.9348665E-01
        -11   -1    0    0    0    0  0.00000000000E+00  0.00000000000E+00  0.50000000000E+03  0.50000000000E+03  0.00000000000E+00 0.  1.
         11   -1    0    0    0    0 -0.00000000000E+00 -0.00000000000E+00 -0.50000000000E+03  0.50000000000E+03  0.00000000000E+00 0. -1.
         23    2    1    2    0    0  0.64437408444E+02  0.21073178692E+03 -0.11364849172E+03  0.27274586125E+03  0.11364092367E+03 0.  0.
        -11    1    1    2    0    0 -0.96298392777E+02 -0.32560049087E+03  0.33427999662E+03  0.47647893578E+03  0.00000000000E+00 0.  1.
         11    1    1    2    0    0  0.31860984333E+02  0.11486870395E+03 -0.22063150490E+03  0.25077520297E+03  0.00000000000E+00 0. -1.
        -15    1    3    3    0    0 -0.81274453927E+01  0.15350915731E+03 -0.86561520229E+02  0.17642894111E+03  0.17770000000E+01 0.  1.
         15    1    3    3    0    0  0.72564853837E+02  0.57222629611E+02 -0.27086971491E+02  0.96316920141E+02  0.17770000000E+01 0. -1.
</event>
<event>
 7    1  0.6322078E-006  0.5167113E+03  0.7546771E-02  0.9363174E-01
        -11   -1    0    0    0    0  0.00000000000E+00  0.00000000000E+00  0.50000000000E+03  0.50000000000E+03  0.00000000000E+00 0.  1.
         11   -1    0    0    0    0 -0.00000000000E+00 -0.00000000000E+00 -0.50000000000E+03  0.50000000000E+03  0.00000000000E+00 0. -1.
         23    2    1    2    0    0 -0.71397319031E+02 -0.82197034304E+01  0.37026292996E+03  0.38804680213E+03  0.91217008563E+02 0.  0.
        -11    1    1    2    0    0 -0.55497538527E+02 -0.75021255665E+02  0.88579786633E+02  0.12866446356E+03  0.00000000000E+00 0.  1.
         11    1    1    2    0    0  0.12689485756E+03  0.83240959096E+02 -0.45884271659E+03  0.48328873431E+03  0.00000000000E+00 0. -1.
        -15    1    3    3    0    0 -0.34962583319E+02 -0.49721745699E+02  0.20040725015E+03  0.20942983997E+03  0.17770000000E+01 0.  1.
         15    1    3    3    0    0 -0.36434735712E+02  0.41502042269E+02  0.16985567981E+03  0.17861696216E+03  0.17770000000E+01 0. -1.
</event>
<event>
 7    1  0.6322078E-006  0.5267820E+03  0.7546771E-02  0.9341800E-01
        -11   -1    0    0    0    0  0.00000000000E+00  0.00000000000E+00  0.50000000000E+03  0.50000000000E+03  0.00000000000E+00 0.  1.
         11   -1    0    0    0    0 -0.00000000000E+00 -0.00000000000E+00 -0.50000000000E+03  0.50000000000E+03  0.00000000000E+00 0.  1.
         23    2    1    2    0    0  0.19337222772E+02  0.12202441121E+02  0.13419667004E+03  0.16356234900E+03  0.90670105365E+02 0.  0.
        -11    1    1    2    0    0 -0.14995824498E+03 -0.12411593977E+03  0.30665337833E+03  0.36321968033E+03  0.00000000000E+00 0.  1.
         11    1    1    2    0    0  0.13062102221E+03  0.11191349865E+03 -0.44085004836E+03  0.47321797067E+03  0.00000000000E+00 0.  1.
        -15    1    3    3    0    0  0.39049055989E+02 -0.24150019412E+02  0.99332064993E+02  0.10944436521E+03  0.17770000000E+01 0.  1.
         15    1    3    3    0    0 -0.19711833216E+02  0.36352460533E+02  0.34864605045E+02  0.54117983790E+02  0.17770000000E+01 0. -1.
</event>
<event>
 7    1  0.6322078E-006  0.5334196E+03  0.7546771E-02  0.9327987E-01
        -11   -1    0    0    0    0  0.00000000000E+00  0.00000000000E+00  0.50000000000E+03  0.50000000000E+03  0.00000000000E+00 0. -1.
         11   -1    0    0    0    0 -0.00000000000E+00 -0.00000000000E+00 -0.50000000000E+03  0.50000000000E+03  0.00000000000E+00 0.  1.
         23    2    1    2    0    0 -0.50075540500E+02 -0.37382223933E+02  0.27133415948E+03  0.29503809093E+03  0.97571812416E+02 0.  0.
        -11    1    1    2    0    0  0.85606188895E+02  0.12181969957E+03  0.18616465653E+03  0.23838149702E+03  0.00000000000E+00 0. -1.
         11    1    1    2    0    0 -0.35530648395E+02 -0.84437475637E+02 -0.45749881600E+03  0.46658041205E+03  0.00000000000E+00 0.  1.
        -15    1    3    3    0    0  0.15537899601E+02  0.21983297025E+02  0.74080112215E+02  0.78839789617E+02  0.17770000000E+01 0.  1.
         15    1    3    3    0    0 -0.65613440101E+02 -0.59365520958E+02  0.19725404726E+03  0.21619830131E+03  0.17770000000E+01 0. -1.
</event>
<event>
 7    1  0.6322078E-006  0.5209388E+03  0.7546771E-02  0.9354139E-01
        -11   -1    0    0    0    0  0.00000000000E+00  0.00000000000E+00  0.50000000000E+03  0.50000000000E+03  0.00000000000E+00 0. -1.
         11   -1    0    0    0    0 -0.00000000000E+00 -0.00000000000E+00 -0.50000000000E+03  0.50000000000E+03  0.00000000000E+00 0.  1.
         23    2    1    2    0    0  0.60431130669E+02 -0.49859240212E+02  0.26395453462E+03  0.29758511192E+03  0.11290277719E+03 0.  0.
        -11    1    1    2    0    0  0.47645616720E+02  0.83682793888E+02  0.20152907433E+03  0.22335371630E+03  0.00000000000E+00 0. -1.
         11    1    1    2    0    0 -0.10807674739E+03 -0.33823553676E+02 -0.46548360895E+03  0.47906117179E+03  0.00000000000E+00 0.  1.
        -15    1    3    3    0    0 -0.27330165617E+02 -0.14816846903E+01  0.20304910834E+02  0.34125950173E+02  0.17770000000E+01 0. -1.
         15    1    3    3    0    0  0.87761296287E+02 -0.48377555521E+02  0.24364962379E+03  0.26345916174E+03  0.17770000000E+01 0.  1.
</event>
<event>
 7    1  0.6322078E-006  0.5131766E+03  0.7546771E-02  0.9370799E-01
        -11   -1    0    0    0    0  0.00000000000E+00  0.00000000000E+00  0.50000000000E+03  0.50000000000E+03  0.00000000000E+00 0. -1.
         11   -1    0    0    0    0 -0.00000000000E+00 -0.00000000000E+00 -0.50000000000E+03  0.50000000000E+03  0.00000000000E+00 0. -1.
         23    2    1    2    0    0  0.81889816133E+02  0.21869873697E+03  0.41742814305E+03  0.48682335750E+03  0.90640207755E+02 0.  0.
        -11    1    1    2    0    0 -0.44060557670E+02 -0.21248945959E+03 -0.20912096332E+03  0.30137133321E+03  0.00000000000E+00 0. -1.
         11    1    1    2    0    0 -0.37829258463E+02 -0.62092773774E+01 -0.20830717972E+03  0.21180530929E+03  0.00000000000E+00 0. -1.
        -15    1    3    3    0    0  0.54532779085E+02  0.42680058930E+02  0.15344214459E+03  0.16835397498E+03  0.17770000000E+01 0. -1.
         15    1    3    3    0    0  0.27357037048E+02  0.17601867804E+03  0.26398599845E+03  0.31846938252E+03  0.17770000000E+01 0.  1.
</event>
<event>
 7    1  0.6322078E-006  0.5150296E+03  0.7546771E-02  0.9366794E-01
        -11   -1    0    0    0    0  0.00000000000E+00  0.00000000000E+00  0.50000000000E+03  0.50000000000E+03  0.00000000000E+00 0. -1.
         11   -1    0    0    0    0 -0.00000000000E+00 -0.00000000000E+00 -0.50000000000E+03  0.50000000000E+03  0.00000000000E+00 0.  1.
         23    2    1    2    0    0  0.91099664089E+01 -0.86537964437E+02 -0.19968178585E+03  0.23987061395E+03  0.10046534257E+03 0.  0.
        -11    1    1    2    0    0  0.42950026510E+02  0.12100609068E+03  0.46766345472E+03  0.48497039667E+03  0.00000000000E+00 0. -1.
         11    1    1    2    0    0 -0.52059992919E+02 -0.34468126247E+02 -0.26798166887E+03  0.27515898938E+03  0.00000000000E+00 0.  1.
        -15    1    3    3    0    0  0.38471920885E+01  0.22915464525E+02 -0.33810511636E+02  0.41063704502E+02  0.17770000000E+01 0. -1.
         15    1    3    3    0    0  0.52627743204E+01 -0.10945342896E+03 -0.16587127422E+03  0.19880690945E+03  0.17770000000E+01 0.  1.
</event>
<event>
 7    1  0.6322078E-006  0.5125920E+03  0.7546771E-02  0.9372067E-01
        -11   -1    0    0    0    0  0.00000000000E+00  0.00000000000E+00  0.50000000000E+03  0.50000000000E+03  0.00000000000E+00 0.  1.
         11   -1    0    0    0    0 -0.00000000000E+00 -0.00000000000E+00 -0.50000000000E+03  0.50000000000E+03  0.00000000000E+00 0. -1.
         23    2    1    2    0    0 -0.14681319575E+02  0.22828223742E+02  0.29210316888E+03  0.30707938786E+03  0.90756929429E+02 0.  0.
        -11    1    1    2    0    0 -0.95961570668E+02  0.19159347274E+02  0.18072001772E+03  0.20551259922E+03  0.00000000000E+00 0.  1.
         11    1    1    2    0    0  0.11064289024E+03 -0.41987571016E+02 -0.47282318659E+03  0.48740801292E+03  0.00000000000E+00 0. -1.
        -15    1    3    3    0    0 -0.24338966817E+02 -0.30980662519E+02  0.10574144353E+03  0.11285653443E+03  0.17770000000E+01 0. -1.
         15    1    3    3    0    0  0.96576472418E+01  0.53808886261E+02  0.18636172535E+03  0.19422285343E+03  0.17770000000E+01 0.  1.
</event>
<event>
 7    1  0.6322078E-006  0.3885481E+03  0.7546771E-02  0.9690856E-01
        -11   -1    0    0    0    0  0.00000000000E+00  0.00000000000E+00  0.50000000000E+03  0.50000000000E+03  0.00000000000E+00 0. -1.
         11   -1    0    0    0    0 -0.00000000000E+00 -0.00000000000E+00 -0.50000000000E+03  0.50000000000E+03  0.00000000000E+00 0. -1.
         23    2    1    2    0    0  0.10082631000E+03  0.15777556672E+03  0.37007533294E+03  0.42428528449E+03  0.89460473632E+02 0.  0.
        -11    1    1    2    0    0 -0.16595593688E+03 -0.12197945250E+03 -0.80281289371E+01  0.20611843846E+03  0.00000000000E+00 0. -1.
         11    1    1    2    0    0  0.65129626879E+02 -0.35796114215E+02 -0.36204720400E+03  0.36959627706E+03  0.00000000000E+00 0. -1.
        -15    1    3    3    0    0 -0.11249340997E+02  0.47728110355E+02  0.11009958303E+03  0.12053877428E+03  0.17770000000E+01 0.  1.
         15    1    3    3    0    0  0.11207565099E+03  0.11004745636E+03  0.25997574990E+03  0.30374651021E+03  0.17770000000E+01 0. -1.
</event>
<event>
 7    1  0.6322078E-006  0.3433242E+03  0.7546771E-02  0.9840486E-01
        -11   -1    0    0    0    0  0.00000000000E+00  0.00000000000E+00  0.50000000000E+03  0.50000000000E+03  0.00000000000E+00 0. -1.
         11   -1    0    0    0    0 -0.00000000000E+00 -0.00000000000E+00 -0.50000000000E+03  0.50000000000E+03  0.00000000000E+00 0. -1.
         23    2    1    2    0    0 -0.19030306349E+02 -0.13402854562E+03 -0.21661023462E+03  0.26738022298E+03  0.79034083166E+02 0.  0.
        -11    1    1    2    0    0 -0.18870685539E+03  0.84034978364E+02  0.40055243786E+03  0.45068216110E+03  0.00000000000E+00 0. -1.
         11    1    1    2    0    0  0.20773716174E+03  0.49993567256E+02 -0.18394220324E+03  0.28193761592E+03  0.00000000000E+00 0. -1.
        -15    1    3    3    0    0 -0.32180443056E+02 -0.12959569189E+03 -0.15682697068E+03  0.20598174855E+03  0.17770000000E+01 0. -1.
         15    1    3    3    0    0  0.13150136708E+02 -0.44328537281E+01 -0.59783263933E+02  0.61398474436E+02  0.17770000000E+01 0.  1.
</event>
<event>
 7    1  0.6322078E-006  0.3430910E+03  0.7546771E-02  0.9841320E-01
        -11   -1    0    0    0    0  0.00000000000E+00  0.00000000000E+00  0.50000000000E+03  0.50000000000E+03  0.00000000000E+00 0.  1.
         11   -1    0    0    0    0 -0.00000000000E+00 -0.00000000000E+00 -0.50000000000E+03  0.50000000000E+03  0.00000000000E+00 0. -1.
         23    2    1    2    0    0  0.51381796097E+02 -0.14388441134E+03  0.20129465225E+03  0.26876266571E+03  0.91493282030E+02 0.  0.
        -11    1    1    2    0    0 -0.16320774485E+03  0.54844620066E+02  0.22402149293E+03  0.28254261559E+03  0.00000000000E+00 0.  1.
         11    1    1    2    0    0  0.11182594876E+03  0.89039791278E+02 -0.42531614518E+03  0.44869471870E+03  0.00000000000E+00 0. -1.
        -15    1    3    3    0    0  0.62686568980E+02 -0.13249874382E+03  0.13086044200E+03  0.19650225457E+03  0.17770000000E+01 0.  1.
         15    1    3    3    0    0 -0.11304772883E+02 -0.11385667528E+02  0.70434210246E+02  0.72260411132E+02  0.17770000000E+01 0. -1.
</event>
<event>
 7    1  0.6322078E-006  0.4066460E+03  0.7546771E-02  0.9636965E-01
        -11   -1    0    0    0    0  0.00000000000E+00  0.00000000000E+00  0.50000000000E+03  0.50000000000E+03  0.00000000000E+00 0.  1.
         11   -1    0    0    0    0 -0.00000000000E+00 -0.00000000000E+00 -0.50000000000E+03  0.50000000000E+03  0.00000000000E+00 0. -1.
         23    2    1    2    0    0  0.34053003196E+03 -0.22416307261E+03  0.13393936845E+03  0.44075569789E+03  0.10057855144E+03 0.  0.
        -11    1    1    2    0    0 -0.14833797544E+03 -0.41294179990E+01  0.10094408569E+03  0.17947399669E+03  0.00000000000E+00 0.  1.
         11    1    1    2    0    0 -0.19219205651E+03  0.22829249061E+03 -0.23488345414E+03  0.37977030543E+03  0.00000000000E+00 0. -1.
        -15    1    3    3    0    0  0.19949942424E+03 -0.18142437306E+03  0.11096323042E+03  0.29160044521E+03  0.17770000000E+01 0.  1.
         15    1    3    3    0    0  0.14103060772E+03 -0.42738699550E+02  0.22976138032E+02  0.14915525268E+03  0.17770000000E+01 0. -1.
</event>
<event>
 7    1  0.6322078E-006  0.4656829E+03  0.7546771E-02  0.9480051E-01
        -11   -1    0    0    0    0  0.00000000000E+00  0.00000000000E+00  0.50000000000E+03  0.50000000000E+03  0.00000000000E+00 0. -1.
         11   -1    0    0    0    0 -0.00000000000E+00 -0.00000000000E+00 -0.50000000000E+03  0.50000000000E+03  0.00000000000E+00 0.  1.
         23    2    1    2    0    0  0.58627284154E+02  0.29554305714E+03 -0.32414615333E+03  0.45051930825E+03  0.84344895020E+02 0.  0.
        -11    1    1    2    0    0 -0.10811141696E+03 -0.27405276164E+03  0.37394952574E+03  0.47605802424E+03  0.00000000000E+00 0. -1.
         11    1    1    2    0    0  0.49484132810E+02 -0.21490295498E+02 -0.49803372418E+02  0.73422667514E+02  0.00000000000E+00 0.  1.
        -15    1    3    3    0    0  0.55486628181E+02  0.27001547653E+03 -0.25045583534E+03  0.37244920010E+03  0.17770000000E+01 0.  1.
         15    1    3    3    0    0  0.31406559732E+01  0.25527580611E+02 -0.73690317985E+02  0.78070108143E+02  0.17770000000E+01 0. -1.
</event>
<event>
 7    1  0.6322078E-006  0.5365192E+03  0.7546771E-02  0.9321610E-01
        -11   -1    0    0    0    0  0.00000000000E+00  0.00000000000E+00  0.50000000000E+03  0.50000000000E+03  0.00000000000E+00 0. -1.
         11   -1    0    0    0    0 -0.00000000000E+00 -0.00000000000E+00 -0.50000000000E+03  0.50000000000E+03  0.00000000000E+00 0. -1.
         23    2    1    2    0    0 -0.40548985171E+02 -0.79519589396E+02  0.29778674603E+03  0.32433129468E+03  0.92445969651E+02 0.  0.
        -11    1    1    2    0    0  0.22729699185E+02 -0.19791151480E+03  0.73062199839E+02  0.21218786949E+03  0.00000000000E+00 0. -1.
         11    1    1    2    0    0  0.17819285986E+02  0.27743110420E+03 -0.37084894586E+03  0.46348083582E+03  0.00000000000E+00 0. -1.
        -15    1    3    3    0    0  0.28572618645E+02 -0.30820886310E+02  0.74356410973E+02  0.85430411160E+02  0.17770000000E+01 0.  1.
         15    1    3    3    0    0 -0.69121603816E+02 -0.48698703085E+02  0.22343033505E+03  0.23890088352E+03  0.17770000000E+01 0. -1.
</event>
<event>
 7    1  0.6322078E-006  0.4693834E+03  0.7546771E-02  0.9471049E-01
        -11   -1    0    0    0    0  0.00000000000E+00  0.00000000000E+00  0.50000000000E+03  0.50000000000E+03  0.00000000000E+00 0. -1.
         11   -1    0    0    0    0 -0.00000000000E+00 -0.00000000000E+00 -0.50000000000E+03  0.50000000000E+03  0.00000000000E+00 0.  1.
         23    2    1    2    0    0 -0.84987633772E+02 -0.43977668352E+02  0.44444031187E+03  0.46352938247E+03  0.90417721676E+02 0.  0.
        -11    1    1    2    0    0  0.32672315016E+01  0.65372732872E+02  0.16785816838E+02  0.67572425232E+02  0.00000000000E+00 0. -1.
         11    1    1    2    0    0  0.81720402270E+02 -0.21395064519E+02 -0.46122612871E+03  0.46889819229E+03  0.00000000000E+00 0.  1.
        -15    1    3    3    0    0 -0.92516711540E+02 -0.61663046792E+02  0.39787810421E+03  0.41312445679E+03  0.17770000000E+01 0. -1.
         15    1    3    3    0    0  0.75290777688E+01  0.17685378440E+02  0.46562207658E+02  0.50404925687E+02  0.17770000000E+01 0.  1.
</event>
<event>
 7    1  0.6322078E-006  0.5376843E+03  0.7546771E-02  0.9319224E-01
        -11   -1    0    0    0    0  0.00000000000E+00  0.00000000000E+00  0.50000000000E+03  0.50000000000E+03  0.00000000000E+00 0.  1.
         11   -1    0    0    0    0 -0.00000000000E+00 -0.00000000000E+00 -0.50000000000E+03  0.50000000000E+03  0.00000000000E+00 0.  1.
         23    2    1    2    0    0 -0.55759169372E+02 -0.85310951431E+02  0.32251171284E+03  0.35071579258E+03  0.92740060597E+02 0.  0.
        -11    1    1    2    0    0 -0.14115947508E+02  0.13150573229E+03  0.13215222948E+03  0.18696852504E+03  0.00000000000E+00 0.  1.
         11    1    1    2    0    0  0.69875116880E+02 -0.46194780860E+02 -0.45466394232E+03  0.46231568239E+03  0.00000000000E+00 0.  1.
        -15    1    3    3    0    0 -0.75523989071E+02 -0.36002366276E+02  0.21687656803E+03  0.23246214056E+03  0.17770000000E+01 0.  1.
         15    1    3    3    0    0  0.19764819699E+02 -0.49308585155E+02  0.10563514481E+03  0.11825365202E+03  0.17770000000E+01 0. -1.
</event>
<event>
 7    1  0.6322078E-006  0.3806271E+03  0.7546771E-02  0.9715440E-01
        -11   -1    0    0    0    0  0.00000000000E+00  0.00000000000E+00  0.50000000000E+03  0.50000000000E+03  0.00000000000E+00 0. -1.
         11   -1    0    0    0    0 -0.00000000000E+00 -0.00000000000E+00 -0.50000000000E+03  0.50000000000E+03  0.00000000000E+00 0.  1.
         23    2    1    2    0    0  0.13919700563E+03  0.12856018517E+03  0.42398858592E+02  0.21437339800E+03  0.90855726132E+02 0.  0.
        -11    1    1    2    0    0 -0.37868893067E+02 -0.68136640856E+02  0.35893990887E+03  0.36730711002E+03  0.00000000000E+00 0. -1.
         11    1    1    2    0    0 -0.10132811257E+03 -0.60423544318E+02 -0.40133876746E+03  0.41831949198E+03  0.00000000000E+00 0.  1.
        -15    1    3    3    0    0  0.10756233864E+03  0.13162420265E+03  0.57077403529E+02  0.17931975669E+03  0.17770000000E+01 0. -1.
         15    1    3    3    0    0  0.31634666992E+02 -0.30640174719E+01 -0.14678544937E+02  0.35053641312E+02  0.17770000000E+01 0.  1.
</event>
<event>
 7    1  0.6322078E-006  0.5215039E+03  0.7546771E-02  0.9352938E-01
        -11   -1    0    0    0    0  0.00000000000E+00  0.00000000000E+00  0.50000000000E+03  0.50000000000E+03  0.00000000000E+00 0.  1.
         11   -1    0    0    0    0 -0.00000000000E+00 -0.00000000000E+00 -0.50000000000E+03  0.50000000000E+03  0.00000000000E+00 0. -1.
         23    2    1    2    0    0 -0.16120002661E+03 -0.40823485668E+02  0.37127553667E+03  0.41695661922E+03  0.91407289783E+02 0.  0.
        -11    1    1    2    0    0  0.92476172006E+01 -0.80640231923E+02  0.65892102800E+02  0.10454728423E+03  0.00000000000E+00 0.  1.
         11    1    1    2    0    0  0.15195240941E+03  0.12146371759E+03 -0.43716763946E+03  0.47849609655E+03  0.00000000000E+00 0. -1.
        -15    1    3    3    0    0 -0.10866012446E+03 -0.60096677142E+01  0.14052018091E+03  0.17774199764E+03  0.17770000000E+01 0.  1.
         15    1    3    3    0    0 -0.52539902148E+02 -0.34813817954E+02  0.23075535576E+03  0.23921462158E+03  0.17770000000E+01 0. -1.
</event>
<event>
 7    1  0.6322078E-006  0.5110459E+03  0.7546771E-02  0.9375427E-01
        -11   -1    0    0    0    0  0.00000000000E+00  0.00000000000E+00  0.50000000000E+03  0.50000000000E+03  0.00000000000E+00 0.  1.
         11   -1    0    0    0    0 -0.00000000000E+00 -0.00000000000E+00 -0.50000000000E+03  0.50000000000E+03  0.00000000000E+00 0.  1.
         23    2    1    2    0    0 -0.89271173845E+02 -0.85027023199E+01  0.26644604579E+03  0.29569779845E+03  0.91662720162E+02 0.  0.
        -11    1    1    2    0    0 -0.13215388210E+03 -0.24622910802E+02  0.16823749563E+03  0.21534806993E+03  0.00000000000E+00 0.  1.
         11    1    1    2    0    0  0.22142505594E+03  0.33125613122E+02 -0.43468354142E+03  0.48895413161E+03  0.00000000000E+00 0.  1.
        -15    1    3    3    0    0 -0.55129533265E+02  0.35162936053E+02  0.19220097677E+03  0.20302726593E+03  0.17770000000E+01 0.  1.
         15    1    3    3    0    0 -0.34141640581E+02 -0.43665638372E+02  0.74245069018E+02  0.92670532525E+02  0.17770000000E+01 0. -1.
</event>
<event>
 7    1  0.6322078E-006  0.5083662E+03  0.7546771E-02  0.9381282E-01
        -11   -1    0    0    0    0  0.00000000000E+00  0.00000000000E+00  0.50000000000E+03  0.50000000000E+03  0.00000000000E+00 0. -1.
         11   -1    0    0    0    0 -0.00000000000E+00 -0.00000000000E+00 -0.50000000000E+03  0.50000000000E+03  0.00000000000E+00 0. -1.
         23    2    1    2    0    0  0.66645841659E+02 -0.98487819455E+01  0.31930677900E+03  0.34014118139E+03  0.95919432057E+02 0.  0.
        -11    1    1    2    0    0  0.68839356392E+02  0.80062441904E+01  0.15328628420E+03  0.16822497395E+03  0.00000000000E+00 0. -1.
         11    1    1    2    0    0 -0.13548519805E+03  0.18425377551E+01 -0.47259306320E+03  0.49163384467E+03  0.00000000000E+00 0. -1.
        -15    1    3    3    0    0  0.89702766747E+01  0.39529496859E+02  0.12938415317E+03  0.13559669541E+03  0.17770000000E+01 0.  1.
         15    1    3    3    0    0  0.57675564984E+02 -0.49378278804E+02  0.18992262583E+03  0.20454448598E+03  0.17770000000E+01 0. -1.
</event>
<event>
 7    1  0.6322078E-006  0.5173145E+03  0.7546771E-02  0.9361879E-01
        -11   -1    0    0    0    0  0.00000000000E+00  0.00000000000E+00  0.50000000000E+03  0.50000000000E+03  0.00000000000E+00 0. -1.
         11   -1    0    0    0    0 -0.00000000000E+00 -0.00000000000E+00 -0.50000000000E+03  0.50000000000E+03  0.00000000000E+00 0.  1.
         23    2    1    2    0    0  0.16423674732E+02  0.92836873175E+01  0.19368967810E+03  0.21478722352E+03  0.90895192641E+02 0.  0.
        -11    1    1    2    0    0 -0.12055235060E+03  0.41034851614E+01  0.27744014605E+03  0.30252725905E+03  0.00000000000E+00 0. -1.
         11    1    1    2    0    0  0.10412867587E+03 -0.13387172479E+02 -0.47112982415E+03  0.48268551742E+03  0.00000000000E+00 0.  1.
        -15    1    3    3    0    0  0.50011346515E+02  0.15867670659E+02  0.77190246699E+02  0.93351002495E+02  0.17770000000E+01 0.  1.
         15    1    3    3    0    0 -0.33587671783E+02 -0.65839833415E+01  0.11649943140E+03  0.12143622103E+03  0.17770000000E+01 0. -1.
</event>
<event>
 7    1  0.6322078E-006  0.5301745E+03  0.7546771E-02  0.9334713E-01
        -11   -1    0    0    0    0  0.00000000000E+00  0.00000000000E+00  0.50000000000E+03  0.50000000000E+03  0.00000000000E+00 0. -1.
         11   -1    0    0    0    0 -0.00000000000E+00 -0.00000000000E+00 -0.50000000000E+03  0.50000000000E+03  0.00000000000E+00 0.  1.
         23    2    1    2    0    0 -0.79751261869E+02  0.31728974192E+02  0.19088790545E+03  0.22878464011E+03  0.92397118613E+02 0.  0.
        -11    1    1    2    0    0  0.93719564601E+02  0.15905843320E+03  0.23822868681E+03  0.30138986244E+03  0.00000000000E+00 0. -1.
         11    1    1    2    0    0 -0.13968302732E+02 -0.19078740739E+03 -0.42911659227E+03  0.46982549745E+03  0.00000000000E+00 0.  1.
        -15    1    3    3    0    0 -0.12084747227E+02  0.49766033703E+02  0.11271657375E+03  0.12381794278E+03  0.17770000000E+01 0.  1.
         15    1    3    3    0    0 -0.67666514642E+02 -0.18037059512E+02  0.78171331699E+02  0.10496669733E+03  0.17770000000E+01 0. -1.
</event>
<event>
 7    1  0.6322078E-006  0.5322388E+03  0.7546771E-02  0.9330429E-01
        -11   -1    0    0    0    0  0.00000000000E+00  0.00000000000E+00  0.50000000000E+03  0.50000000000E+03  0.00000000000E+00 0. -1.
         11   -1    0    0    0    0 -0.00000000000E+00 -0.00000000000E+00 -0.50000000000E+03  0.50000000000E+03  0.00000000000E+00 0. -1.
         23    2    1    2    0    0 -0.26322765085E+02 -0.37444405654E+02  0.11999688939E+03  0.15842845980E+03  0.92765036166E+02 0.  0.
        -11    1    1    2    0    0 -0.17308828661E+03  0.17920558214E+03  0.27867536154E+03  0.37381031655E+03  0.00000000000E+00 0. -1.
         11    1    1    2    0    0  0.19941105169E+03 -0.14176117649E+03 -0.39867225092E+03  0.46776122365E+03  0.00000000000E+00 0. -1.
        -15    1    3    3    0    0  0.25511860467E+01 -0.55190884935E+02  0.31446163779E+02  0.63596865297E+02  0.17770000000E+01 0.  1.
         15    1    3    3    0    0 -0.28873951132E+02  0.17746479282E+02  0.88550725608E+02  0.94831594501E+02  0.17770000000E+01 0. -1.
</event>
<event>
 7    1  0.6322078E-006  0.5122054E+03  0.7546771E-02  0.9372906E-01
        -11   -1    0    0    0    0  0.00000000000E+00  0.00000000000E+00  0.50000000000E+03  0.50000000000E+03  0.00000000000E+00 0.  1.
         11   -1    0    0    0    0 -0.00000000000E+00 -0.00000000000E+00 -0.50000000000E+03  0.50000000000E+03  0.00000000000E+00 0. -1.
         23    2    1    2    0    0  0.24260235774E+02 -0.57691250331E+02 -0.12325192794E+03  0.15943718685E+03  0.79450232266E+02 0.  0.
        -11    1    1    2    0    0  0.27490669804E+01  0.21483777413E+03  0.43792777317E+03  0.48779458902E+03  0.00000000000E+00 0.  1.
         11    1    1    2    0    0 -0.27009302754E+02 -0.15714652380E+03 -0.31467584524E+03  0.35276822412E+03  0.00000000000E+00 0. -1.
        -15    1    3    3    0    0  0.40714721616E+02 -0.30763483158E+02 -0.26245406086E+02  0.57411318762E+02  0.17770000000E+01 0. -1.
         15    1    3    3    0    0 -0.16454485843E+02 -0.26927767172E+02 -0.97006521852E+02  0.10202586809E+03  0.17770000000E+01 0.  1.
</event>
<event>
 7    1  0.6322078E-006  0.5066717E+03  0.7546771E-02  0.9385004E-01
        -11   -1    0    0    0    0  0.00000000000E+00  0.00000000000E+00  0.50000000000E+03  0.50000000000E+03  0.00000000000E+00 0. -1.
         11   -1    0    0    0    0 -0.00000000000E+00 -0.00000000000E+00 -0.50000000000E+03  0.50000000000E+03  0.00000000000E+00 0.  1.
         23    2    1    2    0    0 -0.68848120769E+02 -0.59460314478E+02  0.38647549278E+03  0.40727638070E+03  0.90747732864E+02 0.  0.
        -11    1    1    2    0    0 -0.36340854960E+02 -0.32295413095E+02  0.86693586719E+02  0.99395318926E+02  0.00000000000E+00 0. -1.
         11    1    1    2    0    0  0.10518897573E+03  0.91755727573E+02 -0.47316907950E+03  0.49332830038E+03  0.00000000000E+00 0.  1.
        -15    1    3    3    0    0  0.94441187899E+00 -0.54682922936E+02  0.21975188970E+03  0.22646228103E+03  0.17770000000E+01 0. -1.
         15    1    3    3    0    0 -0.69792532648E+02 -0.47773915421E+01  0.16672360309E+03  0.18081409967E+03  0.17770000000E+01 0.  1.
</event>
<event>
 7    1  0.6322078E-006  0.5312274E+03  0.7546771E-02  0.9332525E-01
        -11   -1    0    0    0    0  0.00000000000E+00  0.00000000000E+00  0.50000000000E+03  0.50000000000E+03  0.00000000000E+00 0.  1.
         11   -1    0    0    0    0 -0.00000000000E+00 -0.00000000000E+00 -0.50000000000E+03  0.50000000000E+03  0.00000000000E+00 0. -1.
         23    2    1    2    0    0 -0.14585075416E+01 -0.39567618659E+02  0.20495411211E+03  0.22846816805E+03  0.92864374514E+02 0.  0.
        -11    1    1    2    0    0  0.10821702370E+03  0.15455822880E+03  0.23677832142E+03  0.30275921754E+03  0.00000000000E+00 0.  1.
         11    1    1    2    0    0 -0.10675851616E+03 -0.11499061015E+03 -0.44173243352E+03  0.46877261441E+03  0.00000000000E+00 0. -1.
        -15    1    3    3    0    0  0.44673077731E+02 -0.90993097977E+01  0.94565009943E+02  0.10499609587E+03  0.17770000000E+01 0.  1.
         15    1    3    3    0    0 -0.46131585273E+02 -0.30468308861E+02  0.11038910216E+03  0.12347207219E+03  0.17770000000E+01 0. -1.
</event>
<event>
 7    1  0.6322078E-006  0.3423256E+03  0.7546771E-02  0.9844065E-01
        -11   -1    0    0    0    0  0.00000000000E+00  0.00000000000E+00  0.50000000000E+03  0.50000000000E+03  0.00000000000E+00 0.  1.
         11   -1    0    0    0    0 -0.00000000000E+00 -0.00000000000E+00 -0.50000000000E+03  0.50000000000E+03  0.00000000000E+00 0. -1.
         23    2    1    2    0    0  0.20150678342E+03  0.96300565796E+02  0.12211969118E+03  0.26956222994E+03  0.88723131727E+02 0.  0.
        -11    1    1    2    0    0 -0.11230957381E+03 -0.15315304643E+02  0.28455124511E+03  0.30629627816E+03  0.00000000000E+00 0.  1.
         11    1    1    2    0    0 -0.89197209603E+02 -0.80985261153E+02 -0.40667093628E+03  0.42414149189E+03  0.00000000000E+00 0. -1.
        -15    1    3    3    0    0  0.17180698025E+03  0.88677284878E+02  0.63722391089E+02  0.20358045135E+03  0.17770000000E+01 0.  1.
         15    1    3    3    0    0  0.29699803169E+02  0.76232809174E+01  0.58397300090E+02  0.65981778599E+02  0.17770000000E+01 0. -1.
</event>
<event>
 7    1  0.6322078E-006  0.5124894E+03  0.7546771E-02  0.9372289E-01
        -11   -1    0    0    0    0  0.00000000000E+00  0.00000000000E+00  0.50000000000E+03  0.50000000000E+03  0.00000000000E+00 0. -1.
         11   -1    0    0    0    0 -0.00000000000E+00 -0.00000000000E+00 -0.50000000000E+03  0.50000000000E+03  0.00000000000E+00 0.  1.
         23    2    1    2    0    0 -0.25331555589E+01  0.11947584941E+02  0.31425442023E+03  0.32748554467E+03  0.91333343703E+02 0.  0.
        -11    1    1    2    0    0 -0.68403885819E+02  0.52161386969E+02  0.16378802567E+03  0.18500383574E+03  0.00000000000E+00 0. -1.
         11    1    1    2    0    0  0.70937041378E+02 -0.64108971910E+02 -0.47804244591E+03  0.48751061958E+03  0.00000000000E+00 0.  1.
        -15    1    3    3    0    0  0.40925934772E+02  0.18886571239E+02  0.20026705639E+03  0.20528440348E+03  0.17770000000E+01 0. -1.
         15    1    3    3    0    0 -0.43459090330E+02 -0.69389862978E+01  0.11398736384E+03  0.12220114119E+03  0.17770000000E+01 0.  1.
</event>
<event>
 7    1  0.6322078E-006  0.5255407E+03  0.7546771E-02  0.9344407E-01
        -11   -1    0    0    0    0  0.00000000000E+00  0.00000000000E+00  0.50000000000E+03  0.50000000000E+03  0.00000000000E+00 0. -1.
         11   -1    0    0    0    0 -0.00000000000E+00 -0.00000000000E+00 -0.50000000000E+03  0.50000000000E+03  0.00000000000E+00 0. -1.
         23    2    1    2    0    0 -0.25314926957E+02  0.74926700752E+02  0.37057273767E+03  0.39471632375E+03  0.11055300228E+03 0.  0.
        -11    1    1    2    0    0  0.93409690936E+02  0.13016441668E+02  0.90665482929E+02  0.13082441633E+03  0.00000000000E+00 0. -1.
         11    1    1    2    0    0 -0.68094763980E+02 -0.87943142420E+02 -0.46123822060E+03  0.47445925992E+03  0.00000000000E+00 0. -1.
        -15    1    3    3    0    0 -0.56611753360E+02  0.33040350809E+02  0.29873507630E+03  0.30584695346E+03  0.17770000000E+01 0. -1.
         15    1    3    3    0    0  0.31296826403E+02  0.41886349943E+02  0.71837661372E+02  0.88869370285E+02  0.17770000000E+01 0.  1.
</event>
<event>
 7    1  0.6322078E-006  0.5213323E+03  0.7546771E-02  0.9353303E-01
        -11   -1    0    0    0    0  0.00000000000E+00  0.00000000000E+00  0.50000000000E+03  0.50000000000E+03  0.00000000000E+00 0. -1.
         11   -1    0    0    0    0 -0.00000000000E+00 -0.00000000000E+00 -0.50000000000E+03  0.50000000000E+03  0.00000000000E+00 0.  1.
         23    2    1    2    0    0 -0.24210271643E+02 -0.12301090361E+03 -0.65452834095E+02  0.16867263511E+03  0.91916074136E+02 0.  0.
        -11    1    1    2    0    0  0.10540189420E+03  0.29284200843E+03  0.36367118190E+03  0.47866766106E+03  0.00000000000E+00 0. -1.
         11    1    1    2    0    0 -0.81191622558E+02 -0.16983110482E+03 -0.29821834780E+03  0.35265970383E+03  0.00000000000E+00 0.  1.
        -15    1    3    3    0    0  0.95127328253E+01 -0.67656974885E+02 -0.76841428913E+02  0.10283832585E+03  0.17770000000E+01 0.  1.
         15    1    3    3    0    0 -0.33723004468E+02 -0.55353928725E+02  0.11388594817E+02  0.65834309267E+02  0.17770000000E+01 0. -1.
</event>
<event>
 7    1  0.6322078E-006  0.4248196E+03  0.7546771E-02  0.9585782E-01
        -11   -1    0    0    0    0  0.00000000000E+00  0.00000000000E+00  0.50000000000E+03  0.50000000000E+03  0.00000000000E+00 0.  1.
         11   -1    0    0    0    0 -0.00000000000E+00 -0.00000000000E+00 -0.50000000000E+03  0.50000000000E+03  0.00000000000E+00 0. -1.
         23    2    1    2    0    0 -0.54956989428E+01  0.83349317891E+02  0.39225257895E+03  0.41133084767E+03  0.91398408401E+02 0.  0.
        -11    1    1    2    0    0 -0.38101593896E+02  0.14163586393E+03 -0.15229121208E+02  0.14745974211E+03  0.00000000000E+00 0.  1.
         11    1    1    2    0    0  0.43597292839E+02 -0.22498518182E+03 -0.37702345774E+03  0.44120941022E+03  0.00000000000E+00 0. -1.
        -15    1    3    3    0    0 -0.31376984273E+02  0.64050085044E+02  0.35457488289E+03  0.36168139825E+03  0.17770000000E+01 0.  1.
         15    1    3    3    0    0  0.25881285330E+02  0.19299232847E+02  0.37677696059E+02  0.49649449424E+02  0.17770000000E+01 0. -1.
</event>
<event>
 7    1  0.6322078E-006  0.4328745E+03  0.7546771E-02  0.9563963E-01
        -11   -1    0    0    0    0  0.00000000000E+00  0.00000000000E+00  0.50000000000E+03  0.50000000000E+03  0.00000000000E+00 0.  1.
         11   -1    0    0    0    0 -0.00000000000E+00 -0.00000000000E+00 -0.50000000000E+03  0.50000000000E+03  0.00000000000E+00 0. -1.
         23    2    1    2    0    0 -0.11686848965E+03 -0.63039312066E+02  0.37373131176E+03  0.40711443406E+03  0.91841549909E+02 0.  0.
        -11    1    1    2    0    0  0.47048534661E+02  0.97255915203E+02  0.78800341849E+02  0.13372274126E+03  0.00000000000E+00 0.  1.
         11    1    1    2    0    0  0.69819954988E+02 -0.34216603137E+02 -0.45253165361E+03  0.45916282468E+03  0.00000000000E+00 0. -1.
        -15    1    3    3    0    0 -0.58986691343E+02 -0.15105830606E+02  0.63858171977E+02  0.88253270371E+02  0.17770000000E+01 0. -1.
         15    1    3    3    0    0 -0.57881798306E+02 -0.47933481459E+02  0.30987313978E+03  0.31886116369E+03  0.17770000000E+01 0.  1.
</event>
<event>
 7    1  0.6322078E-006  0.4695496E+03  0.7546771E-02  0.9470647E-01
        -11   -1    0    0    0    0  0.00000000000E+00  0.00000000000E+00  0.50000000000E+03  0.50000000000E+03  0.00000000000E+00 0.  1.
         11   -1    0    0    0    0 -0.00000000000E+00 -0.00000000000E+00 -0.50000000000E+03  0.50000000000E+03  0.00000000000E+00 0.  1.
         23    2    1    2    0    0 -0.68862133469E+02 -0.64230607993E+02  0.43422801422E+03  0.45339821637E+03  0.90268542927E+02 0.  0.
        -11    1    1    2    0    0  0.19537451617E+02 -0.58620902814E+02  0.26498480291E+02  0.67233114759E+02  0.00000000000E+00 0.  1.
         11    1    1    2    0    0  0.49324681851E+02  0.12285151081E+03 -0.46072649451E+03  0.47936866887E+03  0.00000000000E+00 0.  1.
        -15    1    3    3    0    0 -0.71268188825E+02 -0.29671242152E+02  0.38796345645E+03  0.39557343012E+03  0.17770000000E+01 0.  1.
         15    1    3    3    0    0  0.24060553568E+01 -0.34559365840E+02  0.46264557777E+02  0.57824786251E+02  0.17770000000E+01 0. -1.
</event>
<event>
 7    1  0.6322078E-006  0.4442731E+03  0.7546771E-02  0.9533936E-01
        -11   -1    0    0    0    0  0.00000000000E+00  0.00000000000E+00  0.50000000000E+03  0.50000000000E+03  0.00000000000E+00 0. -1.
         11   -1    0    0    0    0 -0.00000000000E+00 -0.00000000000E+00 -0.50000000000E+03  0.50000000000E+03  0.00000000000E+00 0.  1.
         23    2    1    2    0    0  0.60651714144E+02  0.46714165834E+02  0.25997443432E+01  0.10815811961E+03  0.76358211401E+02 0.  0.
        -11    1    1    2    0    0  0.35515697570E+03 -0.14213318884E+03  0.18603861971E+03  0.42538063988E+03  0.00000000000E+00 0. -1.
         11    1    1    2    0    0 -0.41580868985E+03  0.95419023005E+02 -0.18863836406E+03  0.46646124051E+03  0.00000000000E+00 0.  1.
        -15    1    3    3    0    0  0.85195133524E+01 -0.14286885478E+02 -0.18726786119E+02  0.25110703928E+02  0.17770000000E+01 0.  1.
         15    1    3    3    0    0  0.52132200791E+02  0.61001051312E+02  0.21326530462E+02  0.83047415680E+02  0.17770000000E+01 0. -1.
</event>
<event>
 7    1  0.6322078E-006  0.5290816E+03  0.7546771E-02  0.9336990E-01
        -11   -1    0    0    0    0  0.00000000000E+00  0.00000000000E+00  0.50000000000E+03  0.50000000000E+03  0.00000000000E+00 0.  1.
         11   -1    0    0    0    0 -0.00000000000E+00 -0.00000000000E+00 -0.50000000000E+03  0.50000000000E+03  0.00000000000E+00 0.  1.
         23    2    1    2    0    0  0.35647610165E+02 -0.56789043922E+02  0.18464441787E+03  0.21453738168E+03  0.86237923620E+02 0.  0.
        -11    1    1    2    0    0 -0.18655731053E+03 -0.93385235531E+02  0.23540095970E+03  0.31454418474E+03  0.00000000000E+00 0.  1.
         11    1    1    2    0    0  0.15090970036E+03  0.15017427945E+03 -0.42004537756E+03  0.47091843358E+03  0.00000000000E+00 0.  1.
        -15    1    3    3    0    0  0.39579995773E+02 -0.75527594936E+02  0.17058060214E+03  0.19071416627E+03  0.17770000000E+01 0.  1.
         15    1    3    3    0    0 -0.39323856079E+01  0.18738551015E+02  0.14063815730E+02  0.23823215412E+02  0.17770000000E+01 0. -1.
</event>
<event>
 7    1  0.6322078E-006  0.5201357E+03  0.7546771E-02  0.9355848E-01
        -11   -1    0    0    0    0  0.00000000000E+00  0.00000000000E+00  0.50000000000E+03  0.50000000000E+03  0.00000000000E+00 0. -1.
         11   -1    0    0    0    0 -0.00000000000E+00 -0.00000000000E+00 -0.50000000000E+03  0.50000000000E+03  0.00000000000E+00 0.  1.
         23    2    1    2    0    0  0.19093248641E+03 -0.50773662456E+02 -0.27759426285E+03  0.35224702811E+03  0.89365624731E+02 0.  0.
        -11    1    1    2    0    0 -0.17012964804E+03  0.73518836607E+02  0.44262917197E+03  0.47986425201E+03  0.00000000000E+00 0. -1.
         11    1    1    2    0    0 -0.20802838371E+02 -0.22745174151E+02 -0.16503490913E+03  0.16788871988E+03  0.00000000000E+00 0.  1.
        -15    1    3    3    0    0  0.11138589228E+03 -0.73046938403E+02 -0.18746528578E+03  0.22997622336E+03  0.17770000000E+01 0.  1.
         15    1    3    3    0    0  0.79546594130E+02  0.22273275947E+02 -0.90128977066E+02  0.12227080475E+03  0.17770000000E+01 0. -1.
</event>
<event>
 7    1  0.6322078E-006  0.5113152E+03  0.7546771E-02  0.9374841E-01
        -11   -1    0    0    0    0  0.00000000000E+00  0.00000000000E+00  0.50000000000E+03  0.50000000000E+03  0.00000000000E+00 0. -1.
         11   -1    0    0    0    0 -0.00000000000E+00 -0.00000000000E+00 -0.50000000000E+03  0.50000000000E+03  0.00000000000E+00 0. -1.
         23    2    1    2    0    0  0.54665529217E+02  0.20952054711E+01  0.25078253386E+03  0.27434860655E+03  0.96863660147E+02 0.  0.
        -11    1    1    2    0    0  0.79450935690E+01  0.53807844217E+02  0.23063991107E+03  0.23696661619E+03  0.00000000000E+00 0. -1.
         11    1    1    2    0    0 -0.62610622786E+02 -0.55903049688E+02 -0.48142244492E+03  0.48868477726E+03  0.00000000000E+00 0. -1.
        -15    1    3    3    0    0  0.64010988578E+02  0.13052960372E+02  0.25146818747E+03  0.25982146461E+03  0.17770000000E+01 0. -1.
         15    1    3    3    0    0 -0.93454593611E+01 -0.10957754901E+02 -0.68565361057E+00  0.14527141942E+02  0.17770000000E+01 0.  1.
</event>
<event>
 7    1  0.6322078E-006  0.5144947E+03  0.7546771E-02  0.9367948E-01
        -11   -1    0    0    0    0  0.00000000000E+00  0.00000000000E+00  0.50000000000E+03  0.50000000000E+03  0.00000000000E+00 0. -1.
         11   -1    0    0    0    0 -0.00000000000E+00 -0.00000000000E+00 -0.50000000000E+03  0.50000000000E+03  0.00000000000E+00 0.  1.
         23    2    1    2    0    0 -0.29211981487E+02  0.13610914054E+03 -0.33401266414E+03  0.37421379081E+03  0.95354409572E+02 0.  0.
        -11    1    1    2    0    0  0.11221221924E+02 -0.11507800038E+03  0.47153633988E+03  0.48550528506E+03  0.00000000000E+00 0. -1.
         11    1    1    2    0    0  0.17990759562E+02 -0.21031140156E+02 -0.13752367574E+03  0.14028092413E+03  0.00000000000E+00 0.  1.
        -15    1    3    3    0    0  0.33846493950E+02  0.67482704765E+02 -0.14826899317E+03  0.16639216526E+03  0.17770000000E+01 0. -1.
         15    1    3    3    0    0 -0.63058475436E+02  0.68626435772E+02 -0.18574367097E+03  0.20782162555E+03  0.17770000000E+01 0.  1.
</event>
<event>
 7    1  0.6322078E-006  0.4769448E+03  0.7546771E-02  0.9452929E-01
        -11   -1    0    0    0    0  0.00000000000E+00  0.00000000000E+00  0.50000000000E+03  0.50000000000E+03  0.00000000000E+00 0.  1.
         11   -1    0    0    0    0 -0.00000000000E+00 -0.00000000000E+00 -0.50000000000E+03  0.50000000000E+03  0.00000000000E+00 0. -1.
         23    2    1    2    0    0 -0.15283261811E+03 -0.78236941878E+02 -0.41890012548E+03  0.46184408401E+03  0.91344482990E+02 0.  0.
        -11    1    1    2    0    0  0.14130716660E+03  0.47711650594E+02  0.46121030952E+03  0.48472576426E+03  0.00000000000E+00 0.  1.
         11    1    1    2    0    0  0.11525451508E+02  0.30525291284E+02 -0.42310184035E+02  0.53430151727E+02  0.00000000000E+00 0. -1.
        -15    1    3    3    0    0 -0.12815759940E+03 -0.29811142031E+02 -0.22695621284E+03  0.26234586855E+03  0.17770000000E+01 0. -1.
         15    1    3    3    0    0 -0.24675018708E+02 -0.48425799847E+02 -0.19194391265E+03  0.19949821546E+03  0.17770000000E+01 0.  1.
</event>
<event>
 7    1  0.6322078E-006  0.3604116E+03  0.7546771E-02  0.9781195E-01
        -11   -1    0    0    0    0  0.00000000000E+00  0.00000000000E+00  0.50000000000E+03  0.50000000000E+03  0.00000000000E+00 0.  1.
         11   -1    0    0    0    0 -0.00000000000E+00 -0.00000000000E+00 -0.50000000000E+03  0.50000000000E+03  0.00000000000E+00 0.  1.
         23    2    1    2    0    0  0.96210433632E+01 -0.17854188162E+03  0.24243596308E+03  0.31481470380E+03  0.91451263318E+02 0.  0.
        -11    1    1    2    0    0  0.10499932557E+03  0.13954720220E+03  0.17698446968E+03  0.24863986510E+03  0.00000000000E+00 0.  1.
         11    1    1    2    0    0 -0.11462036893E+03  0.38994679421E+02 -0.41942043276E+03  0.43654543110E+03  0.00000000000E+00 0.  1.
        -15    1    3    3    0    0 -0.21160727383E+02 -0.16371954989E+03  0.18490756810E+03  0.24788270184E+03  0.17770000000E+01 0.  1.
         15    1    3    3    0    0  0.30781770746E+02 -0.14822331730E+02  0.57528394982E+02  0.66932001960E+02  0.17770000000E+01 0. -1.
</event>
<event>
 7    1  0.6322078E-006  0.5241720E+03  0.7546771E-02  0.9347290E-01
        -11   -1    0    0    0    0  0.00000000000E+00  0.00000000000E+00  0.50000000000E+03  0.50000000000E+03  0.00000000000E+00 0. -1.
         11   -1    0    0    0    0 -0.00000000000E+00 -0.00000000000E+00 -0.50000000000E+03  0.50000000000E+03  0.00000000000E+00 0.  1.
         23    2    1    2    0    0 -0.66820713743E+01 -0.30783273547E+02  0.15888962722E+03  0.18591435142E+03  0.91246766612E+02 0.  0.
        -11    1    1    2    0    0 -0.13678262963E+03  0.11636051887E+03  0.28665129868E+03  0.33825763133E+03  0.00000000000E+00 0. -1.
         11    1    1    2    0    0  0.14346470101E+03 -0.85577245325E+02 -0.44554092589E+03  0.47582801725E+03  0.00000000000E+00 0.  1.
        -15    1    3    3    0    0  0.17040283860E+02 -0.55181467979E+02  0.70305389123E+02  0.91002039268E+02  0.17770000000E+01 0. -1.
         15    1    3    3    0    0 -0.23722355234E+02  0.24398194432E+02  0.88584238095E+02  0.94912312148E+02  0.17770000000E+01 0.  1.
</event>
<event>
 7    1  0.6322078E-006  0.5261479E+03  0.7546771E-02  0.9343131E-01
        -11   -1    0    0    0    0  0.00000000000E+00  0.00000000000E+00  0.50000000000E+03  0.50000000000E+03  0.00000000000E+00 0.  1.
         11   -1    0    0    0    0 -0.00000000000E+00 -0.00000000000E+00 -0.50000000000E+03  0.50000000000E+03  0.00000000000E+00 0. -1.
         23    2    1    2    0    0 -0.58105407797E+02  0.12709273564E+03  0.25442956165E+03  0.30078728415E+03  0.78802199198E+02 0.  0.
        -11    1    1    2    0    0  0.65594164406E+02 -0.41509703631E+02  0.21156970252E+03  0.22536057536E+03  0.00000000000E+00 0.  1.
         11    1    1    2    0    0 -0.74887566097E+01 -0.85583032010E+02 -0.46599926417E+03  0.47385214049E+03  0.00000000000E+00 0. -1.
        -15    1    3    3    0    0  0.14786512343E+02  0.58160912853E+02  0.99105535834E+02  0.11587233360E+03  0.17770000000E+01 0.  1.
         15    1    3    3    0    0 -0.72891920139E+02  0.68931822789E+02  0.15532402581E+03  0.18491495055E+03  0.17770000000E+01 0. -1.
</event>
<event>
 7    1  0.6322078E-006  0.4128381E+03  0.7546771E-02  0.9619211E-01
        -11   -1    0    0    0    0  0.00000000000E+00  0.00000000000E+00  0.50000000000E+03  0.50000000000E+03  0.00000000000E+00 0. -1.
         11   -1    0    0    0    0 -0.00000000000E+00 -0.00000000000E+00 -0.50000000000E+03  0.50000000000E+03  0.00000000000E+00 0. -1.
         23    2    1    2    0    0  0.10149205166E+03 -0.30442448137E+02  0.85147896933E+02  0.16320925959E+03  0.90331162197E+02 0.  0.
        -11    1    1    2    0    0 -0.17850863171E+03  0.49554758926E+02  0.34917552030E+03  0.39527781332E+03  0.00000000000E+00 0. -1.
         11    1    1    2    0    0  0.77016580052E+02 -0.19112310789E+02 -0.43432341724E+03  0.44151292709E+03  0.00000000000E+00 0. -1.
        -15    1    3    3    0    0  0.64681852597E+02  0.20212363805E+02  0.15508134277E+02  0.69540935166E+02  0.17770000000E+01 0.  1.
         15    1    3    3    0    0  0.36810199063E+02 -0.50654811942E+02  0.69639762656E+02  0.93668324420E+02  0.17770000000E+01 0. -1.
</event>
<event>
 7    1  0.6322078E-006  0.5075657E+03  0.7546771E-02  0.9383038E-01
        -11   -1    0    0    0    0  0.00000000000E+00  0.00000000000E+00  0.50000000000E+03  0.50000000000E+03  0.00000000000E+00 0. -1.
         11   -1    0    0    0    0 -0.00000000000E+00 -0.00000000000E+00 -0.50000000000E+03  0.50000000000E+03  0.00000000000E+00 0.  1.
         23    2    1    2    0    0  0.96200029960E+01 -0.23554997560E+03 -0.32496064919E+03  0.41192727183E+03  0.92240545835E+02 0.  0.
        -11    1    1    2    0    0  0.22218501691E+01  0.26457307334E+03  0.41531632298E+03  0.49243425539E+03  0.00000000000E+00 0. -1.
         11    1    1    2    0    0 -0.11841853165E+02 -0.29023097737E+02 -0.90355673789E+02  0.95638472774E+02  0.00000000000E+00 0.  1.
        -15    1    3    3    0    0 -0.26556092952E+02 -0.26913244107E+02 -0.27476185896E+02  0.46772292029E+02  0.17770000000E+01 0. -1.
         15    1    3    3    0    0  0.36176095949E+02 -0.20863673150E+03 -0.29748446329E+03  0.36515497980E+03  0.17770000000E+01 0.  1.
</event>
<event>
 7    1  0.6322078E-006  0.4717664E+03  0.7546771E-02  0.9465300E-01
        -11   -1    0    0    0    0  0.00000000000E+00  0.00000000000E+00  0.50000000000E+03  0.50000000000E+03  0.00000000000E+00 0. -1.
         11   -1    0    0    0    0 -0.00000000000E+00 -0.00000000000E+00 -0.50000000000E+03  0.50000000000E+03  0.00000000000E+00 0.  1.
         23    2    1    2    0    0 -0.11743592344E+03  0.21996666578E+03  0.40547674470E+03  0.48613546089E+03  0.98690251161E+02 0.  0.
        -11    1    1    2    0    0  0.23018527998E+02 -0.60321872994E+02  0.36408592396E+01  0.64667123399E+02  0.00000000000E+00 0. -1.
         11    1    1    2    0    0  0.94417395447E+02 -0.15964479279E+03 -0.40911760394E+03  0.44919741571E+03  0.00000000000E+00 0.  1.
        -15    1    3    3    0    0 -0.10201692294E+03  0.22392432121E+03  0.39916428621E+03  0.46891879820E+03  0.17770000000E+01 0. -1.
         15    1    3    3    0    0 -0.15419000500E+02 -0.39576554269E+01  0.63124584901E+01  0.17216662687E+02  0.17770000000E+01 0.  1.
</event>
<event>
 7    1  0.6322078E-006  0.5215685E+03  0.7546771E-02  0.9352801E-01
        -11   -1    0    0    0    0  0.00000000000E+00  0.00000000000E+00  0.50000000000E+03  0.50000000000E+03  0.00000000000E+00 0.  1.
         11   -1    0    0    0    0 -0.00000000000E+00 -0.00000000000E+00 -0.50000000000E+03  0.50000000000E+03  0.00000000000E+00 0. -1.
         23    2    1    2    0    0 -0.84970620662E+02 -0.44473689906E+02  0.34754552281E+03  0.37466010598E+03  0.10190382289E+03 0.  0.
        -11    1    1    2    0    0 -0.95603529199E+01  0.84581204316E+02  0.11973595076E+03  0.14690840131E+03  0.00000000000E+00 0.  1.
         11    1    1    2    0    0  0.94530973582E+02 -0.40107514411E+02 -0.46728147357E+03  0.47843149271E+03  0.00000000000E+00 0. -1.
        -15    1    3    3    0    0 -0.74841734322E+02  0.15326195177E+01  0.29369724019E+03  0.30309216542E+03  0.17770000000E+01 0.  1.
         15    1    3    3    0    0 -0.10128886340E+02 -0.46006309423E+02  0.53848282621E+02  0.71567940556E+02  0.17770000000E+01 0. -1.
</event>
<event>
 7    1  0.6322078E-006  0.4033703E+03  0.7546771E-02  0.9646495E-01
        -11   -1    0    0    0    0  0.00000000000E+00  0.00000000000E+00  0.50000000000E+03  0.50000000000E+03  0.00000000000E+00 0. -1.
         11   -1    0    0    0    0 -0.00000000000E+00 -0.00000000000E+00 -0.50000000000E+03  0.50000000000E+03  0.00000000000E+00 0.  1.
         23    2    1    2    0    0  0.12213039759E+03  0.10905814102E+03  0.37657665438E+03  0.41973323836E+03  0.86928146329E+02 0.  0.
        -11    1    1    2    0    0 -0.18000823562E+03  0.27188875922E+02 -0.70430917373E+01  0.18218618226E+03  0.00000000000E+00 0. -1.
         11    1    1    2    0    0  0.57877838036E+02 -0.13624701694E+03 -0.36953356264E+03  0.39808057938E+03  0.00000000000E+00 0.  1.
        -15    1    3    3    0    0 -0.49265458059E+00  0.43086037150E+02  0.60076700915E+02  0.73952802703E+02  0.17770000000E+01 0.  1.
         15    1    3    3    0    0  0.12262305217E+03  0.65972103868E+02  0.31649995346E+03  0.34578043566E+03  0.17770000000E+01 0. -1.
</event>
<event>
 7    1  0.6322078E-006  0.4274141E+03  0.7546771E-02  0.9578698E-01
        -11   -1    0    0    0    0  0.00000000000E+00  0.00000000000E+00  0.50000000000E+03  0.50000000000E+03  0.00000000000E+00 0.  1.
         11   -1    0    0    0    0 -0.00000000000E+00 -0.00000000000E+00 -0.50000000000E+03  0.50000000000E+03  0.00000000000E+00 0. -1.
         23    2    1    2    0    0  0.42100529393E+02  0.57385251478E+02  0.38081807575E+03  0.39787697049E+03  0.90654041101E+02 0.  0.
        -11    1    1    2    0    0 -0.41099967964E+02  0.13155717633E+03  0.37733900422E+02  0.14289977345E+03  0.00000000000E+00 0.  1.
         11    1    1    2    0    0 -0.10005614287E+01 -0.18894242781E+03 -0.41855197617E+03  0.45922325606E+03  0.00000000000E+00 0. -1.
        -15    1    3    3    0    0 -0.22952441914E+02  0.87009395446E+01  0.35984551232E+02  0.43595488243E+02  0.17770000000E+01 0. -1.
         15    1    3    3    0    0  0.65052971307E+02  0.48684311933E+02  0.34483352452E+03  0.35428148225E+03  0.17770000000E+01 0.  1.
</event>
<event>
 7    1  0.6322078E-006  0.3763675E+03  0.7546771E-02  0.9728926E-01
        -11   -1    0    0    0    0  0.00000000000E+00  0.00000000000E+00  0.50000000000E+03  0.50000000000E+03  0.00000000000E+00 0.  1.
         11   -1    0    0    0    0 -0.00000000000E+00 -0.00000000000E+00 -0.50000000000E+03  0.50000000000E+03  0.00000000000E+00 0.  1.
         23    2    1    2    0    0  0.15915289384E+03  0.54101675693E+01  0.29244694428E+03  0.34541550707E+03  0.91802743804E+02 0.  0.
        -11    1    1    2    0    0 -0.10850811604E+03  0.17304948283E+03  0.94811534472E+02  0.22518739268E+03  0.00000000000E+00 0.  1.
         11    1    1    2    0    0 -0.50644777802E+02 -0.17845965040E+03 -0.38725847875E+03  0.42939710025E+03  0.00000000000E+00 0.  1.
        -15    1    3    3    0    0  0.72426278630E+02 -0.26671048413E+02  0.68838961762E+02  0.10343534717E+03  0.17770000000E+01 0. -1.
         15    1    3    3    0    0  0.86726615211E+02  0.32081215982E+02  0.22360798252E+03  0.24198015989E+03  0.17770000000E+01 0.  1.
</event>
<event>
 7    1  0.6322078E-006  0.5110551E+03  0.7546771E-02  0.9375407E-01
        -11   -1    0    0    0    0  0.00000000000E+00  0.00000000000E+00  0.50000000000E+03  0.50000000000E+03  0.00000000000E+00 0. -1.
         11   -1    0    0    0    0 -0.00000000000E+00 -0.00000000000E+00 -0.50000000000E+03  0.50000000000E+03  0.00000000000E+00 0.  1.
         23    2    1    2    0    0 -0.97848744247E+02 -0.18181890890E+02 -0.18762680659E+03  0.22917546092E+03  0.86096547158E+02 0.  0.
        -11    1    1    2    0    0  0.18848808407E+03  0.11584509380E+03  0.43602672615E+03  0.48894493505E+03  0.00000000000E+00 0. -1.
         11    1    1    2    0    0 -0.90639339818E+02 -0.97663202907E+02 -0.24839991957E+03  0.28187960402E+03  0.00000000000E+00 0.  1.
        -15    1    3    3    0    0 -0.85637312563E+02  0.22407921522E+02 -0.13705000230E+03  0.16316165330E+03  0.17770000000E+01 0.  1.
         15    1    3    3    0    0 -0.12211431684E+02 -0.40589812411E+02 -0.50576804289E+02  0.66013807620E+02  0.17770000000E+01 0. -1.
</event>
<event>
 7    1  0.6322078E-006  0.4767420E+03  0.7546771E-02  0.9453410E-01
        -11   -1    0    0    0    0  0.00000000000E+00  0.00000000000E+00  0.50000000000E+03  0.50000000000E+03  0.00000000000E+00 0.  1.
         11   -1    0    0    0    0 -0.00000000000E+00 -0.00000000000E+00 -0.50000000000E+03  0.50000000000E+03  0.00000000000E+00 0.  1.
         23    2    1    2    0    0 -0.32029844889E+02  0.11211398453E+03 -0.42777587945E+03  0.45277368627E+03  0.91740674991E+02 0.  0.
        -11    1    1    2    0    0  0.48183022790E+02 -0.10776830723E+03  0.47900415308E+03  0.49333618396E+03  0.00000000000E+00 0.  1.
         11    1    1    2    0    0 -0.16153177901E+02 -0.43456773067E+01 -0.51228273636E+02  0.53890129776E+02  0.00000000000E+00 0.  1.
        -15    1    3    3    0    0 -0.43287612739E+02  0.10627785731E+03 -0.42423979247E+03  0.43948988568E+03  0.17770000000E+01 0.  1.
         15    1    3    3    0    0  0.11257767850E+02  0.58361272271E+01 -0.35360869788E+01  0.13283800590E+02  0.17770000000E+01 0. -1.
</event>
<event>
 7    1  0.6322078E-006  0.3601626E+03  0.7546771E-02  0.9782033E-01
        -11   -1    0    0    0    0  0.00000000000E+00  0.00000000000E+00  0.50000000000E+03  0.50000000000E+03  0.00000000000E+00 0. -1.
         11   -1    0    0    0    0 -0.00000000000E+00 -0.00000000000E+00 -0.50000000000E+03  0.50000000000E+03  0.00000000000E+00 0.  1.
         23    2    1    2    0    0  0.78979451728E+02  0.18841573706E+03  0.21887417328E+03  0.31135595498E+03  0.85430575349E+02 0.  0.
        -11    1    1    2    0    0 -0.17451379780E+03 -0.16085738593E+02  0.17535402164E+03  0.24791702143E+03  0.00000000000E+00 0. -1.
         11    1    1    2    0    0  0.95534346076E+02 -0.17232999847E+03 -0.39422819492E+03  0.44072702359E+03  0.00000000000E+00 0.  1.
        -15    1    3    3    0    0  0.38612073458E+02  0.11700645491E+03  0.70926112816E+02  0.14217972399E+03  0.17770000000E+01 0. -1.
         15    1    3    3    0    0  0.40367378270E+02  0.71409282152E+02  0.14794806047E+03  0.16917623099E+03  0.17770000000E+01 0.  1.
</event>
<event>
 7    1  0.6322078E-006  0.4113851E+03  0.7546771E-02  0.9623347E-01
        -11   -1    0    0    0    0  0.00000000000E+00  0.00000000000E+00  0.50000000000E+03  0.50000000000E+03  0.00000000000E+00 0.  1.
         11   -1    0    0    0    0 -0.00000000000E+00 -0.00000000000E+00 -0.50000000000E+03  0.50000000000E+03  0.00000000000E+00 0.  1.
         23    2    1    2    0    0  0.13377333798E+02 -0.26740055490E+02 -0.13578967835E+03  0.16556395362E+03  0.89881045626E+02 0.  0.
        -11    1    1    2    0    0 -0.21588125667E+03  0.36216511555E+03  0.59438893802E+01  0.42166766265E+03  0.00000000000E+00 0.  1.
         11    1    1    2    0    0  0.20250392287E+03 -0.33542506006E+03  0.12984578897E+03  0.41276838373E+03  0.00000000000E+00 0.  1.
        -15    1    3    3    0    0  0.46199616663E+02  0.74023708052E+01 -0.76044320149E+02  0.89303393157E+02  0.17770000000E+01 0. -1.
         15    1    3    3    0    0 -0.32822282865E+02 -0.34142426295E+02 -0.59745358204E+02  0.76260560460E+02  0.17770000000E+01 0.  1.
</event>
<event>
 7    1  0.6322078E-006  0.4819209E+03  0.7546771E-02  0.9441197E-01
        -11   -1    0    0    0    0  0.00000000000E+00  0.00000000000E+00  0.50000000000E+03  0.50000000000E+03  0.00000000000E+00 0.  1.
         11   -1    0    0    0    0 -0.00000000000E+00 -0.00000000000E+00 -0.50000000000E+03  0.50000000000E+03  0.00000000000E+00 0. -1.
         23    2    1    2    0    0  0.57912592709E+02 -0.32955319922E+03 -0.32078812638E+03  0.47242089459E+03  0.91199233020E+02 0.  0.
        -11    1    1    2    0    0 -0.48257656868E+02  0.31740806423E+03  0.36181186601E+03  0.48371945079E+03  0.00000000000E+00 0.  1.
         11    1    1    2    0    0 -0.96549358414E+01  0.12145134995E+02 -0.41023739634E+02  0.43859654624E+02  0.00000000000E+00 0. -1.
        -15    1    3    3    0    0  0.21828825558E+02 -0.28898939701E+03 -0.28995037691E+03  0.40995822715E+03  0.17770000000E+01 0. -1.
         15    1    3    3    0    0  0.36083767151E+02 -0.40563802217E+02 -0.30837749468E+02  0.62462667437E+02  0.17770000000E+01 0.  1.
</event>
<event>
 7    1  0.6322078E-006  0.5171253E+03  0.7546771E-02  0.9362285E-01
        -11   -1    0    0    0    0  0.00000000000E+00  0.00000000000E+00  0.50000000000E+03  0.50000000000E+03  0.00000000000E+00 0.  1.
         11   -1    0    0    0    0 -0.00000000000E+00 -0.00000000000E+00 -0.50000000000E+03  0.50000000000E+03  0.00000000000E+00 0. -1.
         23    2    1    2    0    0 -0.20331535269E+02 -0.27002710209E+02  0.25417766480E+03  0.27207473123E+03  0.90971734102E+02 0.  0.
        -11    1    1    2    0    0 -0.81116131883E+02  0.87548365829E+02  0.21402160254E+03  0.24505058573E+03  0.00000000000E+00 0.  1.
         11    1    1    2    0    0  0.10144766715E+03 -0.60545655620E+02 -0.46819926734E+03  0.48287468304E+03  0.00000000000E+00 0. -1.
        -15    1    3    3    0    0 -0.87062972710E+01 -0.43191391483E+02  0.24686273800E+03  0.25077014386E+03  0.17770000000E+01 0.  1.
         15    1    3    3    0    0 -0.11625237998E+02  0.16188681273E+02  0.73149268014E+01  0.21304587370E+02  0.17770000000E+01 0. -1.
</event>
<event>
 7    1  0.6322078E-006  0.5189278E+03  0.7546771E-02  0.9358426E-01
        -11   -1    0    0    0    0  0.00000000000E+00  0.00000000000E+00  0.50000000000E+03  0.50000000000E+03  0.00000000000E+00 0.  1.
         11   -1    0    0    0    0 -0.00000000000E+00 -0.00000000000E+00 -0.50000000000E+03  0.50000000000E+03  0.00000000000E+00 0. -1.
         23    2    1    2    0    0 -0.24977326429E+02  0.48414223575E+02 -0.12058335833E+03  0.16043884889E+03  0.90732982121E+02 0.  0.
        -11    1    1    2    0    0  0.11980561448E+03 -0.22836002980E+02  0.46535531092E+03  0.48107217099E+03  0.00000000000E+00 0.  1.
         11    1    1    2    0    0 -0.94828288050E+02 -0.25578220595E+02 -0.34477195259E+03  0.35848898013E+03  0.00000000000E+00 0. -1.
        -15    1    3    3    0    0 -0.29778517056E+01  0.45422462820E+02 -0.87225842424E+01  0.46382204931E+02  0.17770000000E+01 0.  1.
         15    1    3    3    0    0 -0.21999474724E+02  0.29917607549E+01 -0.11186077409E+03  0.11405664395E+03  0.17770000000E+01 0. -1.
</event>
<event>
 7    1  0.6322078E-006  0.3621918E+03  0.7546771E-02  0.9775221E-01
        -11   -1    0    0    0    0  0.00000000000E+00  0.00000000000E+00  0.50000000000E+03  0.50000000000E+03  0.00000000000E+00 0.  1.
         11   -1    0    0    0    0 -0.00000000000E+00 -0.00000000000E+00 -0.50000000000E+03  0.50000000000E+03  0.00000000000E+00 0. -1.
         23    2    1    2    0    0  0.17811405174E+03 -0.92068985402E+02  0.10016529046E+03  0.24173479208E+03  0.90561088709E+02 0.  0.
        -11    1    1    2    0    0 -0.21574812175E+03  0.17650700889E+03  0.26316971378E+03  0.38335398065E+03  0.00000000000E+00 0.  1.
         11    1    1    2    0    0  0.37634070013E+02 -0.84438023491E+02 -0.36333500424E+03  0.37491122728E+03  0.00000000000E+00 0. -1.
        -15    1    3    3    0    0  0.13319559326E+03 -0.21841523680E+02  0.47436779701E+02  0.14307873363E+03  0.17770000000E+01 0. -1.
         15    1    3    3    0    0  0.44918458477E+02 -0.70227461722E+02  0.52728510756E+02  0.98656058443E+02  0.17770000000E+01 0.  1.
</event>
<event>
 7    1  0.6322078E-006  0.5301970E+03  0.7546771E-02  0.9334666E-01
        -11   -1    0    0    0    0  0.00000000000E+00  0.00000000000E+00  0.50000000000E+03  0.50000000000E+03  0.00000000000E+00 0.  1.
         11   -1    0    0    0    0 -0.00000000000E+00 -0.00000000000E+00 -0.50000000000E+03  0.50000000000E+03  0.00000000000E+00 0. -1.
         23    2    1    2    0    0  0.21800934126E+02  0.19726379028E+02 -0.35727499272E+02  0.10108805005E+03  0.89877299138E+02 0.  0.
        -11    1    1    2    0    0 -0.74041280056E+02 -0.68619117120E+02  0.45882909547E+03  0.46980297278E+03  0.00000000000E+00 0.  1.
         11    1    1    2    0    0  0.52240345930E+02  0.48892738092E+02 -0.42310159620E+03  0.42910897717E+03  0.00000000000E+00 0. -1.
        -15    1    3    3    0    0  0.26686807407E+02  0.52397724512E+02 -0.34029062791E+02  0.67962063440E+02  0.17770000000E+01 0.  1.
         15    1    3    3    0    0 -0.48858732817E+01 -0.32671345483E+02 -0.16984364818E+01  0.33125986610E+02  0.17770000000E+01 0. -1.
</event>
<event>
 7    1  0.6322078E-006  0.4341641E+03  0.7546771E-02  0.9560516E-01
        -11   -1    0    0    0    0  0.00000000000E+00  0.00000000000E+00  0.50000000000E+03  0.50000000000E+03  0.00000000000E+00 0. -1.
         11   -1    0    0    0    0 -0.00000000000E+00 -0.00000000000E+00 -0.50000000000E+03  0.50000000000E+03  0.00000000000E+00 0.  1.
         23    2    1    2    0    0 -0.10989733705E+03  0.18962308133E+03  0.38210051225E+03  0.44961179591E+03  0.90086779791E+02 0.  0.
        -11    1    1    2    0    0  0.88405402834E+02 -0.93507144556E+02  0.25391034444E+02  0.13116327978E+03  0.00000000000E+00 0. -1.
         11    1    1    2    0    0  0.21491934218E+02 -0.96115936778E+02 -0.40749154669E+03  0.41922492431E+03  0.00000000000E+00 0.  1.
        -15    1    3    3    0    0 -0.82654901072E+02  0.80048090553E+02  0.13149391041E+03  0.17473790566E+03  0.17770000000E+01 0.  1.
         15    1    3    3    0    0 -0.27242435980E+02  0.10957499078E+03  0.25060660184E+03  0.27487389024E+03  0.17770000000E+01 0. -1.
</event>
<event>
 7    1  0.6322078E-006  0.5139440E+03  0.7546771E-02  0.9369138E-01
        -11   -1    0    0    0    0  0.00000000000E+00  0.00000000000E+00  0.50000000000E+03  0.50000000000E+03  0.00000000000E+00 0. -1.
         11   -1    0    0    0    0 -0.00000000000E+00 -0.00000000000E+00 -0.50000000000E+03  0.50000000000E+03  0.00000000000E+00 0.  1.
         23    2    1    2    0    0  0.21187591537E+03  0.68682160056E+02 -0.30448309236E+03  0.38822026038E+03  0.91631732546E+02 0.  0.
        -11    1    1    2    0    0 -0.29964024928E+03 -0.22945532562E+02  0.38202047378E+03  0.48605598324E+03  0.00000000000E+00 0. -1.
         11    1    1    2    0    0  0.87764333909E+02 -0.45736627494E+02 -0.77537381425E+02  0.12572375638E+03  0.00000000000E+00 0.  1.
        -15    1    3    3    0    0  0.18379017457E+03  0.61642857676E+02 -0.30231222269E+03  0.35913021021E+03  0.17770000000E+01 0.  1.
         15    1    3    3    0    0  0.28085740800E+02  0.70393023802E+01 -0.21708696685E+01  0.29090050162E+02  0.17770000000E+01 0. -1.
</event>
<event>
 7    1  0.8708793E-006  0.5245992E+03  0.7546771E-02  0.9346389E-01
        -11   -1    0    0    0    0  0.00000000000E+00  0.00000000000E+00  0.50000000000E+03  0.50000000000E+03  0.00000000000E+00 0.  1.
         11   -1    0    0    0    0 -0.00000000000E+00 -0.00000000000E+00 -0.50000000000E+03  0.50000000000E+03  0.00000000000E+00 0. -1.
         23    2    1    2    0    0 -0.55276859372E+02 -0.74001844223E+02 -0.19095293285E+03  0.24126733630E+03  0.11495695226E+03 0.  0.
        -11    1    1    2    0    0 -0.10762730809E+01  0.80407885738E+02  0.46855021413E+03  0.47540076737E+03  0.00000000000E+00 0.  1.
         11    1    1    2    0    0  0.56353132453E+02 -0.64060415150E+01 -0.27759728128E+03  0.28333189633E+03  0.00000000000E+00 0. -1.
        -15    1    3    3    0    0 -0.22924968694E+02 -0.10166876314E+03 -0.12512227250E+03  0.16285217958E+03  0.17770000000E+01 0. -1.
         15    1    3    3    0    0 -0.32351890677E+02  0.27666918921E+02 -0.65830660347E+02  0.78415156722E+02  0.17770000000E+01 0.  1.
</event>
<event>
 7    1  0.6322078E-006  0.5066831E+03  0.7546771E-02  0.9384979E-01
        -11   -1    0    0    0    0  0.00000000000E+00  0.00000000000E+00  0.50000000000E+03  0.50000000000E+03  0.00000000000E+00 0.  1.
         11   -1    0    0    0    0 -0.00000000000E+00 -0.00000000000E+00 -0.50000000000E+03  0.50000000000E+03  0.00000000000E+00 0. -1.
         23    2    1    2    0    0  0.36125283118E+02 -0.15089410592E+03 -0.36096323730E+03  0.40383765682E+03  0.93361271942E+02 0.  0.
        -11    1    1    2    0    0 -0.49674574066E+02  0.16647365106E+03  0.46171478859E+03  0.49331692228E+03  0.00000000000E+00 0.  1.
         11    1    1    2    0    0  0.13549290947E+02 -0.15579545133E+02 -0.10075155129E+03  0.10284542090E+03  0.00000000000E+00 0. -1.
        -15    1    3    3    0    0 -0.27708403442E+02 -0.17005566810E+02 -0.72208520162E+02  0.79209677672E+02  0.17770000000E+01 0.  1.
         15    1    3    3    0    0  0.63833686560E+02 -0.13388853911E+03 -0.28875471714E+03  0.32462797915E+03  0.17770000000E+01 0. -1.
</event>
<event>
 7    1  0.6322078E-006  0.5128009E+03  0.7546771E-02  0.9371614E-01
        -11   -1    0    0    0    0  0.00000000000E+00  0.00000000000E+00  0.50000000000E+03  0.50000000000E+03  0.00000000000E+00 0.  1.
         11   -1    0    0    0    0 -0.00000000000E+00 -0.00000000000E+00 -0.50000000000E+03  0.50000000000E+03  0.00000000000E+00 0. -1.
         23    2    1    2    0    0  0.27939262294E+01 -0.26649703374E+02  0.30339530849E+03  0.31938912086E+03  0.96138881802E+02 0.  0.
        -11    1    1    2    0    0  0.81154900073E+02 -0.26154113795E+02  0.17360290456E+03  0.19341179888E+03  0.00000000000E+00 0.  1.
         11    1    1    2    0    0 -0.83948826302E+02  0.52803817169E+02 -0.47699821306E+03  0.48719908026E+03  0.00000000000E+00 0. -1.
        -15    1    3    3    0    0  0.10143475624E+02 -0.52186133525E+02  0.27638486808E+03  0.28145698723E+03  0.17770000000E+01 0.  1.
         15    1    3    3    0    0 -0.73495493947E+01  0.25536430152E+02  0.27010440419E+02  0.37932133631E+02  0.17770000000E+01 0. -1.
</event>
<event>
 7    1  0.6322078E-006  0.5039533E+03  0.7546771E-02  0.9391007E-01
        -11   -1    0    0    0    0  0.00000000000E+00  0.00000000000E+00  0.50000000000E+03  0.50000000000E+03  0.00000000000E+00 0.  1.
         11   -1    0    0    0    0 -0.00000000000E+00 -0.00000000000E+00 -0.50000000000E+03  0.50000000000E+03  0.00000000000E+00 0.  1.
         23    2    1    2    0    0  0.62572155715E+01 -0.44296249924E+02  0.48536511016E+03  0.49604674738E+03  0.92096552189E+02 0.  0.
        -11    1    1    2    0    0 -0.57279541051E+02  0.59274674940E+02 -0.29304894397E+03  0.30442095275E+03  0.00000000000E+00 0.  1.
         11    1    1    2    0    0  0.51022325480E+02 -0.14978425016E+02 -0.19231616619E+03  0.19953229987E+03  0.00000000000E+00 0.  1.
        -15    1    3    3    0    0  0.31691817725E+02 -0.62863746587E+02  0.31362256399E+03  0.32143194041E+03  0.17770000000E+01 0. -1.
         15    1    3    3    0    0 -0.25434602153E+02  0.18567496663E+02  0.17174254617E+03  0.17461480697E+03  0.17770000000E+01 0.  1.
</event>
<event>
 7    1  0.6322078E-006  0.3810682E+03  0.7546771E-02  0.9714054E-01
        -11   -1    0    0    0    0  0.00000000000E+00  0.00000000000E+00  0.50000000000E+03  0.50000000000E+03  0.00000000000E+00 0.  1.
         11   -1    0    0    0    0 -0.00000000000E+00 -0.00000000000E+00 -0.50000000000E+03  0.50000000000E+03  0.00000000000E+00 0.  1.
         23    2    1    2    0    0 -0.16413060989E+03 -0.75776070275E+02  0.70376895474E+02  0.21356137913E+03  0.89301093557E+02 0.  0.
        -11    1    1    2    0    0  0.11052505679E+03 -0.41149754097E+01  0.34384249556E+03  0.36119299959E+03  0.00000000000E+00 0.  1.
         11    1    1    2    0    0  0.53605553099E+02  0.79891045684E+02 -0.41421939104E+03  0.42524562128E+03  0.00000000000E+00 0.  1.
        -15    1    3    3    0    0 -0.79724620492E+02  0.11055541195E+02  0.26759453349E+02  0.84837881729E+02  0.17770000000E+01 0. -1.
         15    1    3    3    0    0 -0.84405989394E+02 -0.86831611470E+02  0.43617442125E+02  0.12872349740E+03  0.17770000000E+01 0.  1.
</event>
<event>
 7    1  0.6322078E-006  0.4645314E+03  0.7546771E-02  0.9482870E-01
        -11   -1    0    0    0    0  0.00000000000E+00  0.00000000000E+00  0.50000000000E+03  0.50000000000E+03  0.00000000000E+00 0.  1.
         11   -1    0    0    0    0 -0.00000000000E+00 -0.00000000000E+00 -0.50000000000E+03  0.50000000000E+03  0.00000000000E+00 0.  1.
         23    2    1    2    0    0 -0.18012550233E+02 -0.18348915245E+02  0.45919362132E+03  0.46875596060E+03  0.90621377622E+02 0.  0.
        -11    1    1    2    0    0 -0.15837507141E+02 -0.73447793894E+02 -0.15276792168E+02  0.76673238090E+02  0.00000000000E+00 0.  1.
         11    1    1    2    0    0  0.33850057374E+02  0.91796709139E+02 -0.44391682915E+03  0.45457080131E+03  0.00000000000E+00 0.  1.
        -15    1    3    3    0    0 -0.37995614318E+02  0.25351832814E+02  0.20222851574E+03  0.20733044263E+03  0.17770000000E+01 0.  1.
         15    1    3    3    0    0  0.19983064086E+02 -0.43700748059E+02  0.25696510558E+03  0.26142551797E+03  0.17770000000E+01 0. -1.
</event>
<event>
 7    1  0.6322078E-006  0.5143679E+03  0.7546771E-02  0.9368222E-01
        -11   -1    0    0    0    0  0.00000000000E+00  0.00000000000E+00  0.50000000000E+03  0.50000000000E+03  0.00000000000E+00 0.  1.
         11   -1    0    0    0    0 -0.00000000000E+00 -0.00000000000E+00 -0.50000000000E+03  0.50000000000E+03  0.00000000000E+00 0. -1.
         23    2    1    2    0    0 -0.11487519360E+03 -0.54841134984E+02  0.19542639674E+03  0.25073827628E+03  0.92056213568E+02 0.  0.
        -11    1    1    2    0    0 -0.17589207210E+03  0.35849061098E+02  0.19307357580E+03  0.26362963013E+03  0.00000000000E+00 0.  1.
         11    1    1    2    0    0  0.29076726570E+03  0.18992073887E+02 -0.38849997254E+03  0.48563209360E+03  0.00000000000E+00 0. -1.
        -15    1    3    3    0    0 -0.82299053719E+02 -0.18254439857E+02  0.18094165922E+03  0.19962314643E+03  0.17770000000E+01 0.  1.
         15    1    3    3    0    0 -0.32576139876E+02 -0.36586695127E+02  0.14484737518E+02  0.51115129850E+02  0.17770000000E+01 0. -1.
</event>
<event>
 7    1  0.6322078E-006  0.5133905E+03  0.7546771E-02  0.9370336E-01
        -11   -1    0    0    0    0  0.00000000000E+00  0.00000000000E+00  0.50000000000E+03  0.50000000000E+03  0.00000000000E+00 0. -1.
         11   -1    0    0    0    0 -0.00000000000E+00 -0.00000000000E+00 -0.50000000000E+03  0.50000000000E+03  0.00000000000E+00 0.  1.
         23    2    1    2    0    0 -0.47855251321E+01  0.84241714064E+01  0.25386663765E+03  0.26920167428E+03  0.89035969189E+02 0.  0.
        -11    1    1    2    0    0  0.98241121320E+02  0.44522504054E+01  0.22351067318E+03  0.24418878246E+03  0.00000000000E+00 0. -1.
         11    1    1    2    0    0 -0.93455596188E+02 -0.12876421812E+02 -0.47737731083E+03  0.48660954326E+03  0.00000000000E+00 0.  1.
        -15    1    3    3    0    0  0.38381399606E+02  0.53722404329E+01  0.17476013183E+03  0.17901467596E+03  0.17770000000E+01 0. -1.
         15    1    3    3    0    0 -0.43166924738E+02  0.30519309736E+01  0.79106505818E+02  0.90186998318E+02  0.17770000000E+01 0.  1.
</event>
<event>
 7    1  0.6322078E-006  0.3864929E+03  0.7546771E-02  0.9697174E-01
        -11   -1    0    0    0    0  0.00000000000E+00  0.00000000000E+00  0.50000000000E+03  0.50000000000E+03  0.00000000000E+00 0.  1.
         11   -1    0    0    0    0 -0.00000000000E+00 -0.00000000000E+00 -0.50000000000E+03  0.50000000000E+03  0.00000000000E+00 0.  1.
         23    2    1    2    0    0 -0.74340737287E+02 -0.16952711358E+03 -0.29620550626E+01  0.20515292257E+03  0.88390952063E+02 0.  0.
        -11    1    1    2    0    0  0.13792144387E+03  0.16044075162E+02  0.36824878061E+03  0.39355673218E+03  0.00000000000E+00 0.  1.
         11    1    1    2    0    0 -0.63580706586E+02  0.15348303842E+03 -0.36528672554E+03  0.40129034525E+03  0.00000000000E+00 0.  1.
        -15    1    3    3    0    0 -0.72150737262E+02 -0.76574890907E+02 -0.27919184560E+02  0.10886726505E+03  0.17770000000E+01 0. -1.
         15    1    3    3    0    0 -0.21900000249E+01 -0.92952222677E+02  0.24957129497E+02  0.96285657511E+02  0.17770000000E+01 0.  1.
</event>
<event>
 7    1  0.6322078E-006  0.5304793E+03  0.7546771E-02  0.9334079E-01
        -11   -1    0    0    0    0  0.00000000000E+00  0.00000000000E+00  0.50000000000E+03  0.50000000000E+03  0.00000000000E+00 0. -1.
         11   -1    0    0    0    0 -0.00000000000E+00 -0.00000000000E+00 -0.50000000000E+03  0.50000000000E+03  0.00000000000E+00 0.  1.
         23    2    1    2    0    0  0.70948254559E+02  0.83246752145E+02  0.14330062536E+03  0.20246831513E+03  0.92166549448E+02 0.  0.
        -11    1    1    2    0    0  0.39470088421E+02 -0.89784502492E+02  0.31300489670E+03  0.32801099086E+03  0.00000000000E+00 0. -1.
         11    1    1    2    0    0 -0.11041834298E+03  0.65377503471E+01 -0.45630552205E+03  0.46952069401E+03  0.00000000000E+00 0.  1.
        -15    1    3    3    0    0  0.45443312956E+02  0.87134473446E+02  0.14649328743E+03  0.17641131524E+03  0.17770000000E+01 0. -1.
         15    1    3    3    0    0  0.25504941603E+02 -0.38877213008E+01 -0.31926620729E+01  0.26056999888E+02  0.17770000000E+01 0.  1.
</event>
<event>
 6    1  0.6322078E-006  0.3518258E+03  0.7546771E-02  0.9810535E-01
        -11   -1    0    0    0    0  0.00000000000E+00  0.00000000000E+00  0.50000000000E+03  0.50000000000E+03  0.00000000000E+00 0. -1.
         11   -1    0    0    0    0 -0.00000000000E+00 -0.00000000000E+00 -0.50000000000E+03  0.50000000000E+03  0.00000000000E+00 0. -1.
        -11    1    1    2    0    0 -0.18187075141E+03  0.42203633758E+01  0.40381238491E+03  0.44289866097E+03  0.00000000000E+00 0. -1.
         11    1    1    2    0    0 -0.41295751438E+02  0.33387862032E+02 -0.29897045768E+03  0.30365016546E+03  0.00000000000E+00 0. -1.
        -15    1    1    2    0    0  0.20827948430E+03 -0.42838126584E+02 -0.87520914405E+02  0.22995329277E+03  0.17770000000E+01 0. -1.
         15    1    1    2    0    0  0.14887018544E+02  0.52299011770E+01 -0.17321012826E+02  0.23497880793E+02  0.17770000000E+01 0.  1.
</event>
<event>
 7    1  0.6322078E-006  0.5332980E+03  0.7546771E-02  0.9328238E-01
        -11   -1    0    0    0    0  0.00000000000E+00  0.00000000000E+00  0.50000000000E+03  0.50000000000E+03  0.00000000000E+00 0. -1.
         11   -1    0    0    0    0 -0.00000000000E+00 -0.00000000000E+00 -0.50000000000E+03  0.50000000000E+03  0.00000000000E+00 0.  1.
         23    2    1    2    0    0  0.11494735607E+03 -0.18353777001E+02  0.11064304782E+03  0.18015870459E+03  0.81642629860E+02 0.  0.
        -11    1    1    2    0    0 -0.46205286706E+02 -0.99386935023E+02  0.33570029874E+03  0.35313932371E+03  0.00000000000E+00 0. -1.
         11    1    1    2    0    0 -0.68742069363E+02  0.11774071202E+03 -0.44634334656E+03  0.46670197170E+03  0.00000000000E+00 0.  1.
        -15    1    3    3    0    0  0.10268007201E+03 -0.48280171280E+01  0.12124803414E+03  0.15896776544E+03  0.17770000000E+01 0. -1.
         15    1    3    3    0    0  0.12267284059E+02 -0.13525759873E+02 -0.10604986315E+02  0.21190939151E+02  0.17770000000E+01 0.  1.
</event>
<event>
 7    1  0.6322078E-006  0.4556141E+03  0.7546771E-02  0.9505000E-01
        -11   -1    0    0    0    0  0.00000000000E+00  0.00000000000E+00  0.50000000000E+03  0.50000000000E+03  0.00000000000E+00 0. -1.
         11   -1    0    0    0    0 -0.00000000000E+00 -0.00000000000E+00 -0.50000000000E+03  0.50000000000E+03  0.00000000000E+00 0. -1.
         23    2    1    2    0    0 -0.29015475818E+03  0.21912523623E+03 -0.20688899422E+03  0.42869729373E+03  0.93662483795E+02 0.  0.
        -11    1    1    2    0    0  0.28578350775E+03 -0.24007804486E+03  0.29806188610E+03  0.47765109533E+03  0.00000000000E+00 0. -1.
         11    1    1    2    0    0  0.43712504339E+01  0.20952808632E+02 -0.91172891876E+02  0.93651610947E+02  0.00000000000E+00 0. -1.
        -15    1    3    3    0    0 -0.19395066562E+03  0.88416649878E+02 -0.11643146326E+03  0.24288640974E+03  0.17770000000E+01 0. -1.
         15    1    3    3    0    0 -0.96204092558E+02  0.13070858635E+03 -0.90457530960E+02  0.18581088398E+03  0.17770000000E+01 0.  1.
</event>
<event>
 7    1  0.6322078E-006  0.5336546E+03  0.7546771E-02  0.9327502E-01
        -11   -1    0    0    0    0  0.00000000000E+00  0.00000000000E+00  0.50000000000E+03  0.50000000000E+03  0.00000000000E+00 0.  1.
         11   -1    0    0    0    0 -0.00000000000E+00 -0.00000000000E+00 -0.50000000000E+03  0.50000000000E+03  0.00000000000E+00 0. -1.
         23    2    1    2    0    0 -0.14032373330E+03 -0.36809059866E+02  0.13542980634E+03  0.21827644578E+03  0.90871983140E+02 0.  0.
        -11    1    1    2    0    0 -0.31360073091E+03  0.93528332583E+01 -0.32101500306E+02  0.31537818605E+03  0.00000000000E+00 0.  1.
         11    1    1    2    0    0  0.45392446421E+03  0.27456226608E+02 -0.10332830603E+03  0.46634536817E+03  0.00000000000E+00 0. -1.
        -15    1    3    3    0    0 -0.26672275356E+02  0.12033801587E+02 -0.64679207792E+01  0.30020232869E+02  0.17770000000E+01 0. -1.
         15    1    3    3    0    0 -0.11365145795E+03 -0.48842861452E+02  0.14189772712E+03  0.18825621291E+03  0.17770000000E+01 0.  1.
</event>
<event>
 7    1  0.6322078E-006  0.5314185E+03  0.7546771E-02  0.9332129E-01
        -11   -1    0    0    0    0  0.00000000000E+00  0.00000000000E+00  0.50000000000E+03  0.50000000000E+03  0.00000000000E+00 0.  1.
         11   -1    0    0    0    0 -0.00000000000E+00 -0.00000000000E+00 -0.50000000000E+03  0.50000000000E+03  0.00000000000E+00 0. -1.
         23    2    1    2    0    0  0.44326495178E+02  0.35194620867E+01  0.33363765513E+03  0.34826906583E+03  0.89442900788E+02 0.  0.
        -11    1    1    2    0    0  0.25333424450E+02 -0.14633752325E+03  0.10717872133E+03  0.18314947833E+03  0.00000000000E+00 0.  1.
         11    1    1    2    0    0 -0.69659919627E+02  0.14281806116E+03 -0.44081637647E+03  0.46858145584E+03  0.00000000000E+00 0. -1.
        -15    1    3    3    0    0 -0.54815841057E+01 -0.33690743983E+02  0.77761525080E+02  0.84941900769E+02  0.17770000000E+01 0. -1.
         15    1    3    3    0    0  0.49808079283E+02  0.37210206070E+02  0.25587613005E+03  0.26332716506E+03  0.17770000000E+01 0.  1.
</event>
<event>
 7    1  0.6322078E-006  0.2995353E+03  0.7546771E-02  0.1001103E+00
        -11   -1    0    0    0    0  0.00000000000E+00  0.00000000000E+00  0.50000000000E+03  0.50000000000E+03  0.00000000000E+00 0.  1.
         11   -1    0    0    0    0 -0.00000000000E+00 -0.00000000000E+00 -0.50000000000E+03  0.50000000000E+03  0.00000000000E+00 0.  1.
         23    2    1    2    0    0 -0.89471281065E+02  0.52972882245E+02  0.30872321717E+03  0.33815376570E+03  0.90701202050E+02 0.  0.
        -11    1    1    2    0    0 -0.22844107702E+03 -0.79569598243E+02 -0.22879692727E+03  0.33296348233E+03  0.00000000000E+00 0.  1.
         11    1    1    2    0    0  0.31791235809E+03  0.26596715998E+02 -0.79926289897E+02  0.32888275197E+03  0.00000000000E+00 0.  1.
        -15    1    3    3    0    0  0.72901302573E+01  0.39165166024E+02  0.78957211169E+02  0.88455950356E+02  0.17770000000E+01 0.  1.
         15    1    3    3    0    0 -0.96761411322E+02  0.13807716221E+02  0.22976600600E+03  0.24969781535E+03  0.17770000000E+01 0. -1.
</event>
<event>
 7    1  0.6322078E-006  0.5095080E+03  0.7546771E-02  0.9378783E-01
        -11   -1    0    0    0    0  0.00000000000E+00  0.00000000000E+00  0.50000000000E+03  0.50000000000E+03  0.00000000000E+00 0.  1.
         11   -1    0    0    0    0 -0.00000000000E+00 -0.00000000000E+00 -0.50000000000E+03  0.50000000000E+03  0.00000000000E+00 0. -1.
         23    2    1    2    0    0 -0.20718155129E+02  0.26042768768E+02  0.21720258371E+03  0.23798909355E+03  0.91402289471E+02 0.  0.
        -11    1    1    2    0    0 -0.47917186808E+02  0.51929491852E+02  0.26216362239E+03  0.27151886458E+03  0.00000000000E+00 0.  1.
         11    1    1    2    0    0  0.68635341937E+02 -0.77972260620E+02 -0.47936620610E+03  0.49049204187E+03  0.00000000000E+00 0. -1.
        -15    1    3    3    0    0  0.33239253567E+02  0.21417693380E+02  0.61585858125E+02  0.73208887557E+02  0.17770000000E+01 0.  1.
         15    1    3    3    0    0 -0.53957408696E+02  0.46250753879E+01  0.15561672559E+03  0.16478020599E+03  0.17770000000E+01 0. -1.
</event>
<event>
 7    1  0.6322078E-006  0.5187775E+03  0.7546771E-02  0.9358747E-01
        -11   -1    0    0    0    0  0.00000000000E+00  0.00000000000E+00  0.50000000000E+03  0.50000000000E+03  0.00000000000E+00 0. -1.
         11   -1    0    0    0    0 -0.00000000000E+00 -0.00000000000E+00 -0.50000000000E+03  0.50000000000E+03  0.00000000000E+00 0. -1.
         23    2    1    2    0    0  0.74040741472E+02 -0.12420456333E+02  0.20496490910E+03  0.23683992450E+03  0.91903409831E+02 0.  0.
        -11    1    1    2    0    0 -0.48467285853E+02 -0.73548142503E+02  0.26782525043E+03  0.28193753179E+03  0.00000000000E+00 0. -1.
         11    1    1    2    0    0 -0.25573455619E+02  0.85968598835E+02 -0.47279015954E+03  0.48122254371E+03  0.00000000000E+00 0. -1.
        -15    1    3    3    0    0  0.37968877024E+02  0.94419499782E+01  0.14517890765E+02  0.41769760869E+02  0.17770000000E+01 0. -1.
         15    1    3    3    0    0  0.36071864449E+02 -0.21862406311E+02  0.19044701834E+03  0.19507016363E+03  0.17770000000E+01 0.  1.
</event>
<event>
 7    1  0.6322078E-006  0.5143828E+03  0.7546771E-02  0.9368190E-01
        -11   -1    0    0    0    0  0.00000000000E+00  0.00000000000E+00  0.50000000000E+03  0.50000000000E+03  0.00000000000E+00 0.  1.
         11   -1    0    0    0    0 -0.00000000000E+00 -0.00000000000E+00 -0.50000000000E+03  0.50000000000E+03  0.00000000000E+00 0.  1.
         23    2    1    2    0    0 -0.53638293956E+02  0.32956820453E+02  0.25909093216E+03  0.28076967251E+03  0.87978857019E+02 0.  0.
        -11    1    1    2    0    0 -0.57181777064E+02 -0.81933406288E+02  0.21116882180E+03  0.23361316315E+03  0.00000000000E+00 0.  1.
         11    1    1    2    0    0  0.11082007102E+03  0.48976585835E+02 -0.47025975396E+03  0.48561716434E+03  0.00000000000E+00 0.  1.
        -15    1    3    3    0    0 -0.31484675873E+02  0.50235257829E+02  0.23883153336E+03  0.24608641775E+03  0.17770000000E+01 0.  1.
         15    1    3    3    0    0 -0.22153618083E+02 -0.17278437377E+02  0.20259398801E+02  0.34683254765E+02  0.17770000000E+01 0. -1.
</event>
<event>
 7    1  0.6322078E-006  0.5140652E+03  0.7546771E-02  0.9368876E-01
        -11   -1    0    0    0    0  0.00000000000E+00  0.00000000000E+00  0.50000000000E+03  0.50000000000E+03  0.00000000000E+00 0. -1.
         11   -1    0    0    0    0 -0.00000000000E+00 -0.00000000000E+00 -0.50000000000E+03  0.50000000000E+03  0.00000000000E+00 0. -1.
         23    2    1    2    0    0 -0.20420585602E+03  0.38524925694E+03  0.18811273221E+03  0.48593477270E+03  0.10309792283E+03 0.  0.
        -11    1    1    2    0    0  0.17227678951E+03 -0.29423626416E+03 -0.48525376042E+02  0.34439654973E+03  0.00000000000E+00 0. -1.
         11    1    1    2    0    0  0.31929066508E+02 -0.91012992782E+02 -0.13958735617E+03  0.16966867757E+03  0.00000000000E+00 0. -1.
        -15    1    3    3    0    0 -0.19879009709E+03  0.35468092601E+03  0.19939646114E+03  0.45285557125E+03  0.17770000000E+01 0. -1.
         15    1    3    3    0    0 -0.54157589344E+01  0.30568330932E+02 -0.11283728925E+02  0.33079201445E+02  0.17770000000E+01 0.  1.
</event>
<event>
 6    1  0.6322078E-006  0.4265741E+03  0.7546771E-02  0.9580985E-01
        -11   -1    0    0    0    0  0.00000000000E+00  0.00000000000E+00  0.50000000000E+03  0.50000000000E+03  0.00000000000E+00 0.  1.
         11   -1    0    0    0    0 -0.00000000000E+00 -0.00000000000E+00 -0.50000000000E+03  0.50000000000E+03  0.00000000000E+00 0. -1.
        -11    1    1    2    0    0  0.13859657082E+03 -0.12508803772E+03  0.10678424432E+03  0.21507882615E+03  0.00000000000E+00 0.  1.
         11    1    1    2    0    0 -0.18909584664E+03 -0.70814158652E+02 -0.32421397800E+03  0.38195102802E+03  0.00000000000E+00 0. -1.
        -15    1    1    2    0    0  0.47962431601E+01  0.14180241183E+03  0.27646592073E+03  0.31075310297E+03  0.17770000000E+01 0.  1.
         15    1    1    2    0    0  0.45703032655E+02  0.54099784546E+02 -0.59036187055E+02  0.92217042854E+02  0.17770000000E+01 0. -1.
</event>
<event>
 7    1  0.6322078E-006  0.4751751E+03  0.7546771E-02  0.9457137E-01
        -11   -1    0    0    0    0  0.00000000000E+00  0.00000000000E+00  0.50000000000E+03  0.50000000000E+03  0.00000000000E+00 0.  1.
         11   -1    0    0    0    0 -0.00000000000E+00 -0.00000000000E+00 -0.50000000000E+03  0.50000000000E+03  0.00000000000E+00 0. -1.
         23    2    1    2    0    0 -0.12556497488E+03  0.18644244605E+03 -0.38438872396E+03  0.45442921820E+03  0.90685581190E+02 0.  0.
        -11    1    1    2    0    0  0.14793806817E+03 -0.17007264627E+03  0.43382557802E+03  0.48889161290E+03  0.00000000000E+00 0.  1.
         11    1    1    2    0    0 -0.22373093292E+02 -0.16369799779E+02 -0.49436854057E+02  0.56679168901E+02  0.00000000000E+00 0. -1.
        -15    1    3    3    0    0 -0.13694033201E+03  0.14577093923E+03 -0.32228061543E+03  0.37930169268E+03  0.17770000000E+01 0. -1.
         15    1    3    3    0    0  0.11375357126E+02  0.40671506822E+02 -0.62108108527E+02  0.75127525519E+02  0.17770000000E+01 0.  1.
</event>
<event>
 7    1  0.6322078E-006  0.3631314E+03  0.7546771E-02  0.9772083E-01
        -11   -1    0    0    0    0  0.00000000000E+00  0.00000000000E+00  0.50000000000E+03  0.50000000000E+03  0.00000000000E+00 0. -1.
         11   -1    0    0    0    0 -0.00000000000E+00 -0.00000000000E+00 -0.50000000000E+03  0.50000000000E+03  0.00000000000E+00 0. -1.
         23    2    1    2    0    0  0.13805010054E+03 -0.10681138977E+03  0.26247520044E+03  0.32821950293E+03  0.91478456544E+02 0.  0.
        -11    1    1    2    0    0 -0.18140118760E+03  0.45200876809E+02  0.15790042039E+03  0.24470809730E+03  0.00000000000E+00 0. -1.
         11    1    1    2    0    0  0.43351087061E+02  0.61610512959E+02 -0.42037562083E+03  0.42707239977E+03  0.00000000000E+00 0. -1.
        -15    1    3    3    0    0 -0.82574480261E+01 -0.71687939260E+01 -0.63883064265E+00  0.11096976518E+02  0.17770000000E+01 0.  1.
         15    1    3    3    0    0  0.14630754857E+03 -0.99642595842E+02  0.26311403108E+03  0.31712252641E+03  0.17770000000E+01 0. -1.
</event>
<event>
 7    1  0.6322078E-006  0.5151882E+03  0.7546771E-02  0.9366452E-01
        -11   -1    0    0    0    0  0.00000000000E+00  0.00000000000E+00  0.50000000000E+03  0.50000000000E+03  0.00000000000E+00 0. -1.
         11   -1    0    0    0    0 -0.00000000000E+00 -0.00000000000E+00 -0.50000000000E+03  0.50000000000E+03  0.00000000000E+00 0.  1.
         23    2    1    2    0    0  0.60366564429E+02 -0.82535389084E+01  0.32606850061E+03  0.34401802243E+03  0.91189306738E+02 0.  0.
        -11    1    1    2    0    0  0.52278883082E+02 -0.91676056619E+02  0.13476509994E+03  0.17117012921E+03  0.00000000000E+00 0. -1.
         11    1    1    2    0    0 -0.11264544751E+03  0.99929595528E+02 -0.46083360055E+03  0.48481184835E+03  0.00000000000E+00 0.  1.
        -15    1    3    3    0    0  0.21856280098E+02  0.41274472290E+02  0.14871440748E+03  0.15588589341E+03  0.17770000000E+01 0. -1.
         15    1    3    3    0    0  0.38510284331E+02 -0.49528011198E+02  0.17735409313E+03  0.18813212903E+03  0.17770000000E+01 0.  1.
</event>
<event>
 7    1  0.6322078E-006  0.3449735E+03  0.7546771E-02  0.9834603E-01
        -11   -1    0    0    0    0  0.00000000000E+00  0.00000000000E+00  0.50000000000E+03  0.50000000000E+03  0.00000000000E+00 0.  1.
         11   -1    0    0    0    0 -0.00000000000E+00 -0.00000000000E+00 -0.50000000000E+03  0.50000000000E+03  0.00000000000E+00 0. -1.
         23    2    1    2    0    0  0.14452459329E+03  0.14128036321E+02  0.24855692249E+03  0.30058803893E+03  0.86519743150E+02 0.  0.
        -11    1    1    2    0    0 -0.19025254831E+03  0.97815558137E+02  0.16396391292E+03  0.26953307829E+03  0.00000000000E+00 0.  1.
         11    1    1    2    0    0  0.45727955016E+02 -0.11194359446E+03 -0.41252083541E+03  0.42987888278E+03  0.00000000000E+00 0. -1.
        -15    1    3    3    0    0 -0.24145533108E+01  0.16524862405E+02  0.78005673748E+01  0.18517767835E+02  0.17770000000E+01 0. -1.
         15    1    3    3    0    0  0.14693914660E+03 -0.23968260840E+01  0.24075635511E+03  0.28207027110E+03  0.17770000000E+01 0.  1.
</event>
<event>
 7    1  0.6322078E-006  0.5045853E+03  0.7546771E-02  0.9389608E-01
        -11   -1    0    0    0    0  0.00000000000E+00  0.00000000000E+00  0.50000000000E+03  0.50000000000E+03  0.00000000000E+00 0.  1.
         11   -1    0    0    0    0 -0.00000000000E+00 -0.00000000000E+00 -0.50000000000E+03  0.50000000000E+03  0.00000000000E+00 0.  1.
         23    2    1    2    0    0  0.84158732984E+02  0.11370783169E+02  0.47955392783E+03  0.49541469678E+03  0.90839226314E+02 0.  0.
        -11    1    1    2    0    0 -0.27613666674E+01 -0.61342185397E+02 -0.19298351375E+03  0.20251697567E+03  0.00000000000E+00 0.  1.
         11    1    1    2    0    0 -0.81397366317E+02  0.49971402228E+02 -0.28657041408E+03  0.30206832755E+03  0.00000000000E+00 0.  1.
        -15    1    3    3    0    0  0.10011507629E+03  0.14677365838E+02  0.45333382061E+03  0.46449237261E+03  0.17770000000E+01 0.  1.
         15    1    3    3    0    0 -0.15956343306E+02 -0.33065826685E+01  0.26220107218E+02  0.30922324172E+02  0.17770000000E+01 0. -1.
</event>
<event>
 7    1  0.6322078E-006  0.5237842E+03  0.7546771E-02  0.9348109E-01
        -11   -1    0    0    0    0  0.00000000000E+00  0.00000000000E+00  0.50000000000E+03  0.50000000000E+03  0.00000000000E+00 0.  1.
         11   -1    0    0    0    0 -0.00000000000E+00 -0.00000000000E+00 -0.50000000000E+03  0.50000000000E+03  0.00000000000E+00 0. -1.
         23    2    1    2    0    0 -0.28880404769E+02  0.91348104613E+02  0.31854468645E+03  0.34523062246E+03  0.92384584359E+02 0.  0.
        -11    1    1    2    0    0  0.75872363103E+02  0.12412422540E+03  0.10352748787E+03  0.17855357616E+03  0.00000000000E+00 0.  1.
         11    1    1    2    0    0 -0.46991958335E+02 -0.21547233001E+03 -0.42207217432E+03  0.47621580138E+03  0.00000000000E+00 0. -1.
        -15    1    3    3    0    0 -0.36646162155E+02  0.10810673187E+02  0.40756032645E+02  0.55892967191E+02  0.17770000000E+01 0. -1.
         15    1    3    3    0    0  0.77657573867E+01  0.80537431426E+02  0.27778865380E+03  0.28933765527E+03  0.17770000000E+01 0.  1.
</event>
<event>
 7    1  0.6322078E-006  0.5217311E+03  0.7546771E-02  0.9352456E-01
        -11   -1    0    0    0    0  0.00000000000E+00  0.00000000000E+00  0.50000000000E+03  0.50000000000E+03  0.00000000000E+00 0.  1.
         11   -1    0    0    0    0 -0.00000000000E+00 -0.00000000000E+00 -0.50000000000E+03  0.50000000000E+03  0.00000000000E+00 0. -1.
         23    2    1    2    0    0  0.84961497283E+01 -0.77112677373E+02  0.24019059292E+03  0.26884870179E+03  0.92571885324E+02 0.  0.
        -11    1    1    2    0    0  0.10948278188E+03  0.49639927988E+02  0.22248352241E+03  0.25288242272E+03  0.00000000000E+00 0.  1.
         11    1    1    2    0    0 -0.11797893160E+03  0.27472749385E+02 -0.46267411533E+03  0.47826887549E+03  0.00000000000E+00 0. -1.
        -15    1    3    3    0    0  0.28764260248E+02 -0.64516565488E+02  0.23356420156E+03  0.24401877770E+03  0.17770000000E+01 0.  1.
         15    1    3    3    0    0 -0.20268110520E+02 -0.12596111885E+02  0.66263913594E+01  0.24829924086E+02  0.17770000000E+01 0. -1.
</event>
<event>
 7    1  0.6322078E-006  0.5104584E+03  0.7546771E-02  0.9376708E-01
        -11   -1    0    0    0    0  0.00000000000E+00  0.00000000000E+00  0.50000000000E+03  0.50000000000E+03  0.00000000000E+00 0.  1.
         11   -1    0    0    0    0 -0.00000000000E+00 -0.00000000000E+00 -0.50000000000E+03  0.50000000000E+03  0.00000000000E+00 0.  1.
         23    2    1    2    0    0 -0.65347651440E+02 -0.42443999059E+01  0.31014466621E+03  0.33049265747E+03  0.93527280427E+02 0.  0.
        -11    1    1    2    0    0 -0.54670950117E+02  0.57796636917E+02  0.16142580496E+03  0.17996570377E+03  0.00000000000E+00 0.  1.
         11    1    1    2    0    0  0.12001860156E+03 -0.53552237011E+02 -0.47157047117E+03  0.48954163877E+03  0.00000000000E+00 0.  1.
        -15    1    3    3    0    0 -0.61105957576E+02  0.34703002366E+02  0.24052655900E+03  0.25058814764E+03  0.17770000000E+01 0.  1.
         15    1    3    3    0    0 -0.42416938641E+01 -0.38947402272E+02  0.69618107202E+02  0.79904509822E+02  0.17770000000E+01 0. -1.
</event>
<event>
 7    1  0.6322078E-006  0.5355904E+03  0.7546771E-02  0.9323516E-01
        -11   -1    0    0    0    0  0.00000000000E+00  0.00000000000E+00  0.50000000000E+03  0.50000000000E+03  0.00000000000E+00 0. -1.
         11   -1    0    0    0    0 -0.00000000000E+00 -0.00000000000E+00 -0.50000000000E+03  0.50000000000E+03  0.00000000000E+00 0.  1.
         23    2    1    2    0    0 -0.10153670743E+03 -0.21075920148E+02  0.15827937563E+03  0.21040401338E+03  0.91997775689E+02 0.  0.
        -11    1    1    2    0    0  0.55680645694E+02  0.13945014799E+03  0.28844321237E+03  0.32518635403E+03  0.00000000000E+00 0. -1.
         11    1    1    2    0    0  0.45856061738E+02 -0.11837422784E+03 -0.44672258800E+03  0.46440963259E+03  0.00000000000E+00 0.  1.
        -15    1    3    3    0    0 -0.74902546500E+02  0.24438398158E+02  0.12579272576E+03  0.14844054150E+03  0.17770000000E+01 0. -1.
         15    1    3    3    0    0 -0.26634160933E+02 -0.45514318306E+02  0.32486649869E+02  0.61963471886E+02  0.17770000000E+01 0.  1.
</event>
<event>
 7    1  0.6322078E-006  0.5333263E+03  0.7546771E-02  0.9328180E-01
        -11   -1    0    0    0    0  0.00000000000E+00  0.00000000000E+00  0.50000000000E+03  0.50000000000E+03  0.00000000000E+00 0.  1.
         11   -1    0    0    0    0 -0.00000000000E+00 -0.00000000000E+00 -0.50000000000E+03  0.50000000000E+03  0.00000000000E+00 0. -1.
         23    2    1    2    0    0  0.61574846067E+02 -0.91962371515E+02 -0.34528459049E+02  0.14782111656E+03  0.91707843582E+02 0.  0.
        -11    1    1    2    0    0 -0.36554571931E+03  0.10250048349E+03  0.27139324305E+03  0.46667367013E+03  0.00000000000E+00 0.  1.
         11    1    1    2    0    0  0.30397087325E+03 -0.10538111976E+02 -0.23686478400E+03  0.38550521330E+03  0.00000000000E+00 0. -1.
        -15    1    3    3    0    0 -0.10022790251E+02 -0.66898404805E+02 -0.20020104700E+02  0.70567805769E+02  0.17770000000E+01 0. -1.
         15    1    3    3    0    0  0.71597636318E+02 -0.25063966711E+02 -0.14508354350E+02  0.77253310794E+02  0.17770000000E+01 0.  1.
</event>
<event>
 7    1  0.6322078E-006  0.4931186E+03  0.7546771E-02  0.9415340E-01
        -11   -1    0    0    0    0  0.00000000000E+00  0.00000000000E+00  0.50000000000E+03  0.50000000000E+03  0.00000000000E+00 0.  1.
         11   -1    0    0    0    0 -0.00000000000E+00 -0.00000000000E+00 -0.50000000000E+03  0.50000000000E+03  0.00000000000E+00 0. -1.
         23    2    1    2    0    0  0.58269401852E+02  0.90172424196E+02  0.47657662469E+03  0.49708758642E+03  0.91893417047E+02 0.  0.
        -11    1    1    2    0    0  0.18811057465E+02 -0.69805197337E+01 -0.93824542003E+01  0.22149807799E+02  0.00000000000E+00 0.  1.
         11    1    1    2    0    0 -0.77080459317E+02 -0.83191904462E+02 -0.46719417049E+03  0.48076260578E+03  0.00000000000E+00 0. -1.
        -15    1    3    3    0    0  0.56640426141E+02  0.49694072816E+02  0.42422380199E+03  0.43086730052E+03  0.17770000000E+01 0.  1.
         15    1    3    3    0    0  0.16289757115E+01  0.40478351380E+02  0.52352822696E+02  0.66220285906E+02  0.17770000000E+01 0. -1.
</event>
<event>
 7    1  0.6322078E-006  0.4792194E+03  0.7546771E-02  0.9447547E-01
        -11   -1    0    0    0    0  0.00000000000E+00  0.00000000000E+00  0.50000000000E+03  0.50000000000E+03  0.00000000000E+00 0. -1.
         11   -1    0    0    0    0 -0.00000000000E+00 -0.00000000000E+00 -0.50000000000E+03  0.50000000000E+03  0.00000000000E+00 0. -1.
         23    2    1    2    0    0 -0.99541073434E+02 -0.15890740183E+03 -0.42378843454E+03  0.47259799209E+03  0.92694321393E+02 0.  0.
        -11    1    1    2    0    0  0.55531019402E+02  0.16816866118E+03  0.44405826715E+03  0.47807126806E+03  0.00000000000E+00 0. -1.
         11    1    1    2    0    0  0.44010054032E+02 -0.92612593503E+01 -0.20269832603E+02  0.49330739852E+02  0.00000000000E+00 0. -1.
        -15    1    3    3    0    0 -0.38571701400E+02 -0.52949404508E+01 -0.46351391975E+02  0.60559242154E+02  0.17770000000E+01 0.  1.
         15    1    3    3    0    0 -0.60969372034E+02 -0.15361246138E+03 -0.37743704257E+03  0.41203874994E+03  0.17770000000E+01 0. -1.
</event>
<event>
 7    1  0.6322078E-006  0.5095862E+03  0.7546771E-02  0.9378612E-01
        -11   -1    0    0    0    0  0.00000000000E+00  0.00000000000E+00  0.50000000000E+03  0.50000000000E+03  0.00000000000E+00 0.  1.
         11   -1    0    0    0    0 -0.00000000000E+00 -0.00000000000E+00 -0.50000000000E+03  0.50000000000E+03  0.00000000000E+00 0.  1.
         23    2    1    2    0    0 -0.15951323510E+02 -0.63933026610E+01  0.48193124816E+03  0.49041382979E+03  0.89177785649E+02 0.  0.
        -11    1    1    2    0    0 -0.68843310763E+02 -0.18460084512E+01 -0.31181507753E+03  0.31932969132E+03  0.00000000000E+00 0.  1.
         11    1    1    2    0    0  0.84794634273E+02  0.82393111123E+01 -0.17011617063E+03  0.19025647889E+03  0.00000000000E+00 0.  1.
        -15    1    3    3    0    0 -0.52186503276E+02 -0.13259922513E+02  0.28068030103E+03  0.28580385894E+03  0.17770000000E+01 0.  1.
         15    1    3    3    0    0  0.36235179766E+02  0.68666198521E+01  0.20125094713E+03  0.20460997085E+03  0.17770000000E+01 0. -1.
</event>
<event>
 7    1  0.6322078E-006  0.4127462E+03  0.7546771E-02  0.9619472E-01
        -11   -1    0    0    0    0  0.00000000000E+00  0.00000000000E+00  0.50000000000E+03  0.50000000000E+03  0.00000000000E+00 0.  1.
         11   -1    0    0    0    0 -0.00000000000E+00 -0.00000000000E+00 -0.50000000000E+03  0.50000000000E+03  0.00000000000E+00 0. -1.
         23    2    1    2    0    0 -0.13254474391E+03  0.31308067092E+02 -0.17045550617E+02  0.16317472863E+03  0.88244756586E+02 0.  0.
        -11    1    1    2    0    0  0.18689614853E+03 -0.15032497579E+03  0.38092017513E+03  0.45014214256E+03  0.00000000000E+00 0.  1.
         11    1    1    2    0    0 -0.54351404617E+02  0.11901690870E+03 -0.36387462452E+03  0.38668312881E+03  0.00000000000E+00 0. -1.
        -15    1    3    3    0    0 -0.64302708160E+02  0.52386041324E+02 -0.34145258805E+02  0.89711716237E+02  0.17770000000E+01 0. -1.
         15    1    3    3    0    0 -0.68242035752E+02 -0.21077974232E+02  0.17099708187E+02  0.73463012396E+02  0.17770000000E+01 0.  1.
</event>
<event>
 7    1  0.6322078E-006  0.4765251E+03  0.7546771E-02  0.9453925E-01
        -11   -1    0    0    0    0  0.00000000000E+00  0.00000000000E+00  0.50000000000E+03  0.50000000000E+03  0.00000000000E+00 0.  1.
         11   -1    0    0    0    0 -0.00000000000E+00 -0.00000000000E+00 -0.50000000000E+03  0.50000000000E+03  0.00000000000E+00 0. -1.
         23    2    1    2    0    0 -0.15896327738E+03  0.44643367434E+03  0.58689771176E+02  0.48584430954E+03  0.89598296466E+02 0.  0.
        -11    1    1    2    0    0  0.12883020107E+03 -0.44161576013E+03 -0.14246067964E+02  0.46024412083E+03  0.00000000000E+00 0.  1.
         11    1    1    2    0    0  0.30133076310E+02 -0.48179142047E+01 -0.44443703211E+02  0.53911569633E+02  0.00000000000E+00 0. -1.
        -15    1    3    3    0    0 -0.73191711184E+02  0.12324783401E+03  0.48413512689E+02  0.15130790169E+03  0.17770000000E+01 0.  1.
         15    1    3    3    0    0 -0.85771566200E+02  0.32318584033E+03  0.10276258486E+02  0.33453640785E+03  0.17770000000E+01 0. -1.
</event>
<event>
 7    1  0.6322078E-006  0.5115980E+03  0.7546771E-02  0.9374226E-01
        -11   -1    0    0    0    0  0.00000000000E+00  0.00000000000E+00  0.50000000000E+03  0.50000000000E+03  0.00000000000E+00 0. -1.
         11   -1    0    0    0    0 -0.00000000000E+00 -0.00000000000E+00 -0.50000000000E+03  0.50000000000E+03  0.00000000000E+00 0.  1.
         23    2    1    2    0    0  0.23090112911E+02  0.19859510691E+02  0.17033695125E+03  0.19028565702E+03  0.79160601473E+02 0.  0.
        -11    1    1    2    0    0 -0.53331698893E+02  0.75916945295E+02  0.30762630238E+03  0.32131230074E+03  0.00000000000E+00 0. -1.
         11    1    1    2    0    0  0.30241585982E+02 -0.95776455986E+02 -0.47796325363E+03  0.48840204224E+03  0.00000000000E+00 0.  1.
        -15    1    3    3    0    0 -0.15927124752E+02 -0.14915134161E+02  0.15414499432E+02  0.26774970619E+02  0.17770000000E+01 0.  1.
         15    1    3    3    0    0  0.39017237663E+02  0.34774644853E+02  0.15492245182E+03  0.16351068640E+03  0.17770000000E+01 0. -1.
</event>
<event>
 7    1  0.6322078E-006  0.4566184E+03  0.7546771E-02  0.9502480E-01
        -11   -1    0    0    0    0  0.00000000000E+00  0.00000000000E+00  0.50000000000E+03  0.50000000000E+03  0.00000000000E+00 0.  1.
         11   -1    0    0    0    0 -0.00000000000E+00 -0.00000000000E+00 -0.50000000000E+03  0.50000000000E+03  0.00000000000E+00 0.  1.
         23    2    1    2    0    0 -0.53923823427E+02 -0.62103104226E+02  0.39524540041E+03  0.41404307664E+03  0.91913918871E+02 0.  0.
        -11    1    1    2    0    0 -0.22207363195E+02 -0.21413779367E+02  0.86133167307E+02  0.91491198687E+02  0.00000000000E+00 0.  1.
         11    1    1    2    0    0  0.76131186622E+02  0.83516883593E+02 -0.48137856771E+03  0.49446572467E+03  0.00000000000E+00 0.  1.
        -15    1    3    3    0    0 -0.50065791657E+02  0.89149098378E+01  0.13581363521E+03  0.14503296298E+03  0.17770000000E+01 0.  1.
         15    1    3    3    0    0 -0.38580317696E+01 -0.71018014064E+02  0.25943176519E+03  0.26901011366E+03  0.17770000000E+01 0. -1.
</event>
<event>
 7    1  0.6322078E-006  0.3469996E+03  0.7546771E-02  0.9827425E-01
        -11   -1    0    0    0    0  0.00000000000E+00  0.00000000000E+00  0.50000000000E+03  0.50000000000E+03  0.00000000000E+00 0.  1.
         11   -1    0    0    0    0 -0.00000000000E+00 -0.00000000000E+00 -0.50000000000E+03  0.50000000000E+03  0.00000000000E+00 0. -1.
         23    2    1    2    0    0 -0.24208893875E+03  0.21055142027E+03  0.13614120978E+03  0.36134459010E+03  0.95375725181E+02 0.  0.
        -11    1    1    2    0    0  0.35777817742E+03  0.27432188830E+02 -0.91404075384E+02  0.37028698900E+03  0.00000000000E+00 0.  1.
         11    1    1    2    0    0 -0.11568923867E+03 -0.23798360910E+03 -0.44737134395E+02  0.26836842090E+03  0.00000000000E+00 0. -1.
        -15    1    3    3    0    0 -0.86493047348E+02  0.82508183120E+02  0.10160211395E+03  0.15689102846E+03  0.17770000000E+01 0. -1.
         15    1    3    3    0    0 -0.15559589140E+03  0.12804323715E+03  0.34539095828E+02  0.20445356165E+03  0.17770000000E+01 0.  1.
</event>
<event>
 7    1  0.6322078E-006  0.3919773E+03  0.7546771E-02  0.9680407E-01
        -11   -1    0    0    0    0  0.00000000000E+00  0.00000000000E+00  0.50000000000E+03  0.50000000000E+03  0.00000000000E+00 0.  1.
         11   -1    0    0    0    0 -0.00000000000E+00 -0.00000000000E+00 -0.50000000000E+03  0.50000000000E+03  0.00000000000E+00 0.  1.
         23    2    1    2    0    0  0.20671147255E+02  0.20137486503E+01  0.38271624624E+03  0.39404182437E+03  0.91465199432E+02 0.  0.
        -11    1    1    2    0    0 -0.22316527243E+02  0.19754947468E+03 -0.30500379474E+02  0.20113203495E+03  0.00000000000E+00 0.  1.
         11    1    1    2    0    0  0.16453799879E+01 -0.19956322333E+03 -0.35221586676E+03  0.40482614068E+03  0.00000000000E+00 0.  1.
        -15    1    3    3    0    0  0.36163706780E+02 -0.36409817259E+02  0.18308925367E+03  0.19015341443E+03  0.17770000000E+01 0.  1.
         15    1    3    3    0    0 -0.15492559526E+02  0.38423565909E+02  0.19962699257E+03  0.20388840994E+03  0.17770000000E+01 0. -1.
</event>
<event>
 7    1  0.6322078E-006  0.5345133E+03  0.7546771E-02  0.9325731E-01
        -11   -1    0    0    0    0  0.00000000000E+00  0.00000000000E+00  0.50000000000E+03  0.50000000000E+03  0.00000000000E+00 0.  1.
         11   -1    0    0    0    0 -0.00000000000E+00 -0.00000000000E+00 -0.50000000000E+03  0.50000000000E+03  0.00000000000E+00 0.  1.
         23    2    1    2    0    0 -0.30195503442E+02 -0.60082065542E+01  0.30769039556E+03  0.32234838636E+03  0.91034255597E+02 0.  0.
        -11    1    1    2    0    0  0.69351294548E+02  0.14978407320E+03  0.13330073612E+03  0.21216492851E+03  0.00000000000E+00 0.  1.
         11    1    1    2    0    0 -0.39155791106E+02 -0.14377586665E+03 -0.44099113168E+03  0.46548668513E+03  0.00000000000E+00 0.  1.
        -15    1    3    3    0    0 -0.32365947576E+02 -0.38462742072E+02  0.25850835520E+03  0.26335653500E+03  0.17770000000E+01 0. -1.
         15    1    3    3    0    0  0.21704441344E+01  0.32454535518E+02  0.49182040366E+02  0.58991851361E+02  0.17770000000E+01 0.  1.
</event>
<event>
 7    1  0.6322078E-006  0.3886038E+03  0.7546771E-02  0.9690686E-01
        -11   -1    0    0    0    0  0.00000000000E+00  0.00000000000E+00  0.50000000000E+03  0.50000000000E+03  0.00000000000E+00 0. -1.
         11   -1    0    0    0    0 -0.00000000000E+00 -0.00000000000E+00 -0.50000000000E+03  0.50000000000E+03  0.00000000000E+00 0.  1.
         23    2    1    2    0    0 -0.18683077230E+03  0.15695146145E+03  0.25119166610E+03  0.36186031074E+03  0.91137986786E+02 0.  0.
        -11    1    1    2    0    0  0.36527800476E+03 -0.17535784826E+03 -0.14924256678E+03  0.43180057833E+03  0.00000000000E+00 0. -1.
         11    1    1    2    0    0 -0.17844723246E+03  0.18406386807E+02 -0.10194909932E+03  0.20633911093E+03  0.00000000000E+00 0.  1.
        -15    1    3    3    0    0 -0.63897045391E+01 -0.11565676586E+02  0.96492764008E+01  0.16457808574E+02  0.17770000000E+01 0. -1.
         15    1    3    3    0    0 -0.18044106776E+03  0.16851713804E+03  0.24154238970E+03  0.34540250216E+03  0.17770000000E+01 0.  1.
</event>
<event>
 7    1  0.6322078E-006  0.3422251E+03  0.7546771E-02  0.9844426E-01
        -11   -1    0    0    0    0  0.00000000000E+00  0.00000000000E+00  0.50000000000E+03  0.50000000000E+03  0.00000000000E+00 0.  1.
         11   -1    0    0    0    0 -0.00000000000E+00 -0.00000000000E+00 -0.50000000000E+03  0.50000000000E+03  0.00000000000E+00 0. -1.
         23    2    1    2    0    0  0.10860796499E+03  0.21017262828E+03  0.92500498200E+02  0.26993389760E+03  0.91322194294E+02 0.  0.
        -11    1    1    2    0    0  0.24597957022E+03 -0.53758924169E+02  0.12980976265E+03  0.28327821196E+03  0.00000000000E+00 0.  1.
         11    1    1    2    0    0 -0.35458753521E+03 -0.15641370411E+03 -0.22231026085E+03  0.44678789043E+03  0.00000000000E+00 0. -1.
        -15    1    3    3    0    0  0.22202507819E+02  0.13978297336E+03  0.60797177703E+02  0.15405091866E+03  0.17770000000E+01 0.  1.
         15    1    3    3    0    0  0.86405457172E+02  0.70389654917E+02  0.31703320498E+02  0.11588297894E+03  0.17770000000E+01 0. -1.
</event>
<event>
 7    1  0.6322078E-006  0.4413855E+03  0.7546771E-02  0.9541451E-01
        -11   -1    0    0    0    0  0.00000000000E+00  0.00000000000E+00  0.50000000000E+03  0.50000000000E+03  0.00000000000E+00 0. -1.
         11   -1    0    0    0    0 -0.00000000000E+00 -0.00000000000E+00 -0.50000000000E+03  0.50000000000E+03  0.00000000000E+00 0.  1.
         23    2    1    2    0    0  0.35071558456E+03 -0.15391858834E+03 -0.17264306812E+03  0.43015388592E+03  0.92381727176E+02 0.  0.
        -11    1    1    2    0    0 -0.36046804345E+03  0.74327946580E+02  0.26048907062E+03  0.45090620965E+03  0.00000000000E+00 0. -1.
         11    1    1    2    0    0  0.97524588904E+01  0.79590641761E+02 -0.87846002494E+02  0.11893990442E+03  0.00000000000E+00 0.  1.
        -15    1    3    3    0    0  0.12139711449E+03 -0.11468348582E+02 -0.33653528093E+02  0.12650889340E+03  0.17770000000E+01 0. -1.
         15    1    3    3    0    0  0.22931847007E+03 -0.14245023976E+03 -0.13898954003E+03  0.30364499253E+03  0.17770000000E+01 0.  1.
</event>
<event>
 7    1  0.6322078E-006  0.4551862E+03  0.7546771E-02  0.9506075E-01
        -11   -1    0    0    0    0  0.00000000000E+00  0.00000000000E+00  0.50000000000E+03  0.50000000000E+03  0.00000000000E+00 0. -1.
         11   -1    0    0    0    0 -0.00000000000E+00 -0.00000000000E+00 -0.50000000000E+03  0.50000000000E+03  0.00000000000E+00 0.  1.
         23    2    1    2    0    0 -0.64667018091E+02  0.45863580442E+02  0.42444970876E+03  0.44142369914E+03  0.91717150312E+02 0.  0.
        -11    1    1    2    0    0 -0.75878542743E+02  0.55203928253E+02  0.65972069137E+01  0.94066732071E+02  0.00000000000E+00 0. -1.
         11    1    1    2    0    0  0.14054556083E+03 -0.10106750869E+03 -0.43104691567E+03  0.46450956879E+03  0.00000000000E+00 0.  1.
        -15    1    3    3    0    0 -0.19959334637E+02 -0.27382921711E+02  0.91508173833E+02  0.97596634408E+02  0.17770000000E+01 0.  1.
         15    1    3    3    0    0 -0.44707683455E+02  0.73246502153E+02  0.33294153492E+03  0.34382706474E+03  0.17770000000E+01 0. -1.
</event>
<event>
 7    1  0.6322078E-006  0.3393359E+03  0.7546771E-02  0.9854859E-01
        -11   -1    0    0    0    0  0.00000000000E+00  0.00000000000E+00  0.50000000000E+03  0.50000000000E+03  0.00000000000E+00 0.  1.
         11   -1    0    0    0    0 -0.00000000000E+00 -0.00000000000E+00 -0.50000000000E+03  0.50000000000E+03  0.00000000000E+00 0. -1.
         23    2    1    2    0    0  0.18786849426E+03  0.37758821159E+02  0.20673017257E+03  0.29759571263E+03  0.95422975305E+02 0.  0.
        -11    1    1    2    0    0 -0.14433499018E+03 -0.11963798516E+03  0.20649516638E+03  0.27890157873E+03  0.00000000000E+00 0.  1.
         11    1    1    2    0    0 -0.43533504090E+02  0.81879163998E+02 -0.41322533894E+03  0.42350270863E+03  0.00000000000E+00 0. -1.
        -15    1    3    3    0    0  0.11356837577E+03  0.15329526734E+02  0.18387339585E+03  0.21666876515E+03  0.17770000000E+01 0.  1.
         15    1    3    3    0    0  0.74300118499E+02  0.22429294424E+02  0.22856776718E+02  0.80926947479E+02  0.17770000000E+01 0. -1.
</event>
<event>
 7    1  0.6322078E-006  0.3980335E+03  0.7546771E-02  0.9662229E-01
        -11   -1    0    0    0    0  0.00000000000E+00  0.00000000000E+00  0.50000000000E+03  0.50000000000E+03  0.00000000000E+00 0.  1.
         11   -1    0    0    0    0 -0.00000000000E+00 -0.00000000000E+00 -0.50000000000E+03  0.50000000000E+03  0.00000000000E+00 0. -1.
         23    2    1    2    0    0 -0.56268615562E+02 -0.26775416878E+02  0.39042805067E+03  0.39960119983E+03  0.57999794051E+02 0.  0.
        -11    1    1    2    0    0 -0.35653255901E+02 -0.17802163003E+03 -0.42705309163E+02  0.18651165874E+03  0.00000000000E+00 0.  1.
         11    1    1    2    0    0  0.91921871463E+02  0.20479704691E+03 -0.34772274151E+03  0.41388714143E+03  0.00000000000E+00 0. -1.
        -15    1    3    3    0    0 -0.52247087429E+02 -0.37392859866E+02  0.37441272944E+03  0.37988950211E+03  0.17770000000E+01 0.  1.
         15    1    3    3    0    0 -0.40215281327E+01  0.10617442988E+02  0.16015321229E+02  0.19711697725E+02  0.17770000000E+01 0. -1.
</event>
<event>
 7    1  0.6322078E-006  0.5099273E+03  0.7546771E-02  0.9377867E-01
        -11   -1    0    0    0    0  0.00000000000E+00  0.00000000000E+00  0.50000000000E+03  0.50000000000E+03  0.00000000000E+00 0.  1.
         11   -1    0    0    0    0 -0.00000000000E+00 -0.00000000000E+00 -0.50000000000E+03  0.50000000000E+03  0.00000000000E+00 0. -1.
         23    2    1    2    0    0 -0.10384493326E+03 -0.50880092431E+02 -0.19202826522E+03  0.24199246517E+03  0.91175350774E+02 0.  0.
        -11    1    1    2    0    0  0.20167005911E+03  0.75212496575E+02  0.44027663851E+03  0.49007269950E+03  0.00000000000E+00 0.  1.
         11    1    1    2    0    0 -0.97825125852E+02 -0.24332404144E+02 -0.24824837329E+03  0.26793483532E+03  0.00000000000E+00 0. -1.
        -15    1    3    3    0    0 -0.86087772255E+02 -0.16812662445E+02 -0.64772574088E+02  0.10905234630E+03  0.17770000000E+01 0.  1.
         15    1    3    3    0    0 -0.17757161007E+02 -0.34067429986E+02 -0.12725569113E+03  0.13294011887E+03  0.17770000000E+01 0. -1.
</event>
<event>
 7    1  0.6322078E-006  0.3476040E+03  0.7546771E-02  0.9825294E-01
        -11   -1    0    0    0    0  0.00000000000E+00  0.00000000000E+00  0.50000000000E+03  0.50000000000E+03  0.00000000000E+00 0.  1.
         11   -1    0    0    0    0 -0.00000000000E+00 -0.00000000000E+00 -0.50000000000E+03  0.50000000000E+03  0.00000000000E+00 0.  1.
         23    2    1    2    0    0 -0.30538751063E+03 -0.53873943918E+00  0.33068597645E+03  0.45920509300E+03  0.90853071102E+02 0.  0.
        -11    1    1    2    0    0  0.25899686037E+03  0.17512306705E+02 -0.61048949251E+02  0.26667026226E+03  0.00000000000E+00 0.  1.
         11    1    1    2    0    0  0.46390650265E+02 -0.16973567266E+02 -0.26963702720E+03  0.27412464474E+03  0.00000000000E+00 0.  1.
        -15    1    3    3    0    0 -0.16789845135E+03  0.87941647087E+00  0.24556627374E+03  0.29748380774E+03  0.17770000000E+01 0.  1.
         15    1    3    3    0    0 -0.13748905929E+03 -0.14181559101E+01  0.85119702708E+02  0.16172128526E+03  0.17770000000E+01 0. -1.
</event>
<event>
 7    1  0.6322078E-006  0.4102380E+03  0.7546771E-02  0.9626625E-01
        -11   -1    0    0    0    0  0.00000000000E+00  0.00000000000E+00  0.50000000000E+03  0.50000000000E+03  0.00000000000E+00 0. -1.
         11   -1    0    0    0    0 -0.00000000000E+00 -0.00000000000E+00 -0.50000000000E+03  0.50000000000E+03  0.00000000000E+00 0.  1.
         23    2    1    2    0    0  0.63504873378E+02  0.95480455178E+02 -0.87185274924E+02  0.16697438496E+03  0.84438064911E+02 0.  0.
        -11    1    1    2    0    0 -0.78885637462E+02 -0.18767261539E+01  0.45058865668E+03  0.45744573823E+03  0.00000000000E+00 0. -1.
         11    1    1    2    0    0  0.15380764085E+02 -0.93603729025E+02 -0.36340338176E+03  0.37557987681E+03  0.00000000000E+00 0.  1.
        -15    1    3    3    0    0 -0.12301673412E+02  0.10097696512E+02 -0.40601113377E+02  0.43645191947E+02  0.17770000000E+01 0. -1.
         15    1    3    3    0    0  0.75806546790E+02  0.85382758666E+02 -0.46584161546E+02  0.12332919301E+03  0.17770000000E+01 0.  1.
</event>
<event>
 7    1  0.6322078E-006  0.3612123E+03  0.7546771E-02  0.9778503E-01
        -11   -1    0    0    0    0  0.00000000000E+00  0.00000000000E+00  0.50000000000E+03  0.50000000000E+03  0.00000000000E+00 0.  1.
         11   -1    0    0    0    0 -0.00000000000E+00 -0.00000000000E+00 -0.50000000000E+03  0.50000000000E+03  0.00000000000E+00 0.  1.
         23    2    1    2    0    0  0.93698485810E+02 -0.60593806638E+02 -0.19541911175E+03  0.24333821547E+03  0.92595044290E+02 0.  0.
        -11    1    1    2    0    0 -0.85939652244E+02 -0.18180087153E+03  0.39456659922E+03  0.44285435748E+03  0.00000000000E+00 0.  1.
         11    1    1    2    0    0 -0.77588335660E+01  0.24239467817E+03 -0.19914748748E+03  0.31380742705E+03  0.00000000000E+00 0.  1.
        -15    1    3    3    0    0  0.18856016872E+02  0.24947769849E+02 -0.42795508167E+02  0.53033516205E+02  0.17770000000E+01 0.  1.
         15    1    3    3    0    0  0.74842468938E+02 -0.85541576487E+02 -0.15262360358E+03  0.19030469927E+03  0.17770000000E+01 0. -1.
</event>
<event>
 7    1  0.6322078E-006  0.4882271E+03  0.7546771E-02  0.9426545E-01
        -11   -1    0    0    0    0  0.00000000000E+00  0.00000000000E+00  0.50000000000E+03  0.50000000000E+03  0.00000000000E+00 0. -1.
         11   -1    0    0    0    0 -0.00000000000E+00 -0.00000000000E+00 -0.50000000000E+03  0.50000000000E+03  0.00000000000E+00 0.  1.
         23    2    1    2    0    0 -0.25219127210E+03  0.27560588352E+03 -0.29298411789E+03  0.48328217785E+03  0.90348931044E+02 0.  0.
        -11    1    1    2    0    0  0.24449585128E+03 -0.26777127505E+03  0.32247267707E+03  0.48525076455E+03  0.00000000000E+00 0. -1.
         11    1    1    2    0    0  0.76954208211E+01 -0.78346084640E+01 -0.29488559184E+02  0.31467057602E+02  0.00000000000E+00 0.  1.
        -15    1    3    3    0    0 -0.10959321256E+02  0.47311838573E+02 -0.17121731704E+02  0.51525025154E+02  0.17770000000E+01 0. -1.
         15    1    3    3    0    0 -0.24123195084E+03  0.22829404495E+03 -0.27586238618E+03  0.43175715270E+03  0.17770000000E+01 0.  1.
</event>
<event>
 7    1  0.6322078E-006  0.5088880E+03  0.7546771E-02  0.9380139E-01
        -11   -1    0    0    0    0  0.00000000000E+00  0.00000000000E+00  0.50000000000E+03  0.50000000000E+03  0.00000000000E+00 0.  1.
         11   -1    0    0    0    0 -0.00000000000E+00 -0.00000000000E+00 -0.50000000000E+03  0.50000000000E+03  0.00000000000E+00 0.  1.
         23    2    1    2    0    0  0.13068873837E+02 -0.29553909875E+02  0.36863558207E+03  0.38222796920E+03  0.95717286921E+02 0.  0.
        -11    1    1    2    0    0  0.37283796607E+02 -0.36567449783E+02  0.11539286258E+03  0.12666006714E+03  0.00000000000E+00 0.  1.
         11    1    1    2    0    0 -0.50352670444E+02  0.66121359657E+02 -0.48402844465E+03  0.49111196366E+03  0.00000000000E+00 0.  1.
        -15    1    3    3    0    0 -0.52967189109E+01 -0.58857516384E+02  0.29486947505E+03  0.30073813777E+03  0.17770000000E+01 0.  1.
         15    1    3    3    0    0  0.18365592748E+02  0.29303606509E+02  0.73766107021E+02  0.81489831424E+02  0.17770000000E+01 0. -1.
</event>
<event>
 7    1  0.6322078E-006  0.3763525E+03  0.7546771E-02  0.9728974E-01
        -11   -1    0    0    0    0  0.00000000000E+00  0.00000000000E+00  0.50000000000E+03  0.50000000000E+03  0.00000000000E+00 0. -1.
         11   -1    0    0    0    0 -0.00000000000E+00 -0.00000000000E+00 -0.50000000000E+03  0.50000000000E+03  0.00000000000E+00 0. -1.
         23    2    1    2    0    0  0.53428984555E+02  0.10946989100E+01 -0.35600472292E+03  0.37132598106E+03  0.91037172151E+02 0.  0.
        -11    1    1    2    0    0 -0.26062977854E+03 -0.69090437460E+02  0.30032738130E+03  0.40360612727E+03  0.00000000000E+00 0. -1.
         11    1    1    2    0    0  0.20720079399E+03  0.67995738550E+02  0.55677341612E+02  0.22506789167E+03  0.00000000000E+00 0. -1.
        -15    1    3    3    0    0  0.15104780598E+02  0.43788574961E+02 -0.19373933203E+03  0.19920763088E+03  0.17770000000E+01 0. -1.
         15    1    3    3    0    0  0.38324203958E+02 -0.42693876052E+02 -0.16226539089E+03  0.17211835018E+03  0.17770000000E+01 0.  1.
</event>
<event>
 7    1  0.6322078E-006  0.3545209E+03  0.7546771E-02  0.9801229E-01
        -11   -1    0    0    0    0  0.00000000000E+00  0.00000000000E+00  0.50000000000E+03  0.50000000000E+03  0.00000000000E+00 0.  1.
         11   -1    0    0    0    0 -0.00000000000E+00 -0.00000000000E+00 -0.50000000000E+03  0.50000000000E+03  0.00000000000E+00 0. -1.
         23    2    1    2    0    0 -0.18842939529E+03 -0.11277414026E+03  0.17953660755E+03  0.29737273029E+03  0.89294476606E+02 0.  0.
        -11    1    1    2    0    0 -0.10014520655E+03  0.17935703683E+03  0.15388572867E+03  0.25666870971E+03  0.00000000000E+00 0.  1.
         11    1    1    2    0    0  0.28857460184E+03 -0.66582896576E+02 -0.33342233622E+03  0.44595856000E+03  0.00000000000E+00 0. -1.
        -15    1    3    3    0    0 -0.30707909538E+02 -0.31534398690E+02 -0.12490596629E+01  0.44069398543E+02  0.17770000000E+01 0. -1.
         15    1    3    3    0    0 -0.15772148575E+03 -0.81239741566E+02  0.18078566721E+03  0.25330333175E+03  0.17770000000E+01 0.  1.
</event>
<event>
 7    1  0.6322078E-006  0.5155004E+03  0.7546771E-02  0.9365779E-01
        -11   -1    0    0    0    0  0.00000000000E+00  0.00000000000E+00  0.50000000000E+03  0.50000000000E+03  0.00000000000E+00 0. -1.
         11   -1    0    0    0    0 -0.00000000000E+00 -0.00000000000E+00 -0.50000000000E+03  0.50000000000E+03  0.00000000000E+00 0.  1.
         23    2    1    2    0    0  0.10991903809E+03  0.22503098136E+02  0.11304073832E+03  0.18348198399E+03  0.91097999801E+02 0.  0.
        -11    1    1    2    0    0  0.13423590569E+03  0.28179727019E+02  0.30236208769E+03  0.33201838423E+03  0.00000000000E+00 0. -1.
         11    1    1    2    0    0 -0.24415494378E+03 -0.50682825156E+02 -0.41540282601E+03  0.48449963178E+03  0.00000000000E+00 0.  1.
        -15    1    3    3    0    0  0.20273449351E+02 -0.28251312747E+02  0.67796277294E+01  0.35472108785E+02  0.17770000000E+01 0. -1.
         15    1    3    3    0    0  0.89645588741E+02  0.50754410883E+02  0.10626111059E+03  0.14800987521E+03  0.17770000000E+01 0.  1.
</event>
<event>
 7    1  0.6322078E-006  0.5137765E+03  0.7546771E-02  0.9369501E-01
        -11   -1    0    0    0    0  0.00000000000E+00  0.00000000000E+00  0.50000000000E+03  0.50000000000E+03  0.00000000000E+00 0.  1.
         11   -1    0    0    0    0 -0.00000000000E+00 -0.00000000000E+00 -0.50000000000E+03  0.50000000000E+03  0.00000000000E+00 0. -1.
         23    2    1    2    0    0  0.11066457392E+03  0.32861759447E+02 -0.34398958669E+03  0.37404484537E+03  0.90852448744E+02 0.  0.
        -11    1    1    2    0    0 -0.74538529742E+02 -0.50430394130E+02  0.47782224554E+03  0.48622352411E+03  0.00000000000E+00 0.  1.
         11    1    1    2    0    0 -0.36126044174E+02  0.17568634683E+02 -0.13383265885E+03  0.13973163052E+03  0.00000000000E+00 0. -1.
        -15    1    3    3    0    0  0.73242622392E+02  0.50541491948E+02 -0.30286284381E+03  0.31567068922E+03  0.17770000000E+01 0.  1.
         15    1    3    3    0    0  0.37421951525E+02 -0.17679732501E+02 -0.41126742878E+02  0.58374156148E+02  0.17770000000E+01 0. -1.
</event>
<event>
 7    1  0.6322078E-006  0.5234959E+03  0.7546771E-02  0.9348718E-01
        -11   -1    0    0    0    0  0.00000000000E+00  0.00000000000E+00  0.50000000000E+03  0.50000000000E+03  0.00000000000E+00 0.  1.
         11   -1    0    0    0    0 -0.00000000000E+00 -0.00000000000E+00 -0.50000000000E+03  0.50000000000E+03  0.00000000000E+00 0. -1.
         23    2    1    2    0    0 -0.37975675918E+02 -0.90911021751E+01  0.11003874449E+03  0.14919086148E+03  0.92868658652E+02 0.  0.
        -11    1    1    2    0    0  0.42976342141E+02 -0.16221803589E+03  0.33457828287E+03  0.37430506879E+03  0.00000000000E+00 0.  1.
         11    1    1    2    0    0 -0.50006662234E+01  0.17130913807E+03 -0.44461702736E+03  0.47650406973E+03  0.00000000000E+00 0. -1.
        -15    1    3    3    0    0 -0.60041995113E+02 -0.29865357310E+02  0.92057573523E+02  0.11390669566E+03  0.17770000000E+01 0. -1.
         15    1    3    3    0    0  0.22066319195E+02  0.20774255135E+02  0.17981170972E+02  0.35284165822E+02  0.17770000000E+01 0.  1.
</event>
<event>
 7    1  0.6322078E-006  0.4589565E+03  0.7546771E-02  0.9496642E-01
        -11   -1    0    0    0    0  0.00000000000E+00  0.00000000000E+00  0.50000000000E+03  0.50000000000E+03  0.00000000000E+00 0. -1.
         11   -1    0    0    0    0 -0.00000000000E+00 -0.00000000000E+00 -0.50000000000E+03  0.50000000000E+03  0.00000000000E+00 0.  1.
         23    2    1    2    0    0 -0.13798030385E+03 -0.58572034031E+02  0.41855772338E+03  0.45397486709E+03  0.91833352987E+02 0.  0.
        -11    1    1    2    0    0 -0.13949165395E+02  0.84992912708E+02  0.13582367820E+02  0.87194352692E+02  0.00000000000E+00 0. -1.
         11    1    1    2    0    0  0.15192946925E+03 -0.26420878677E+02 -0.43214009120E+03  0.45883078022E+03  0.00000000000E+00 0.  1.
        -15    1    3    3    0    0 -0.42173026099E+02 -0.55676608586E+02  0.25493426598E+03  0.26433517847E+03  0.17770000000E+01 0. -1.
         15    1    3    3    0    0 -0.95807277754E+02 -0.28954254454E+01  0.16362345740E+03  0.18963968862E+03  0.17770000000E+01 0.  1.
</event>
<event>
 7    1  0.6322078E-006  0.5311549E+03  0.7546771E-02  0.9332676E-01
        -11   -1    0    0    0    0  0.00000000000E+00  0.00000000000E+00  0.50000000000E+03  0.50000000000E+03  0.00000000000E+00 0. -1.
         11   -1    0    0    0    0 -0.00000000000E+00 -0.00000000000E+00 -0.50000000000E+03  0.50000000000E+03  0.00000000000E+00 0. -1.
         23    2    1    2    0    0  0.21019511605E+03  0.46322186050E+02 -0.24055667961E+03  0.33434510678E+03  0.87128655384E+02 0.  0.
        -11    1    1    2    0    0 -0.17176257607E+03 -0.48298500702E+02  0.43356733692E+03  0.46884513792E+03  0.00000000000E+00 0. -1.
         11    1    1    2    0    0 -0.38432539982E+02  0.19763146527E+01 -0.19301065731E+03  0.19680975531E+03  0.00000000000E+00 0. -1.
        -15    1    3    3    0    0  0.19194350736E+03  0.33308561645E+02 -0.16433044197E+03  0.25487138362E+03  0.17770000000E+01 0. -1.
         15    1    3    3    0    0  0.18251608684E+02  0.13013624405E+02 -0.76226237636E+02  0.79473723160E+02  0.17770000000E+01 0.  1.
</event>
<event>
 7    1  0.6322078E-006  0.3843550E+03  0.7546771E-02  0.9703791E-01
        -11   -1    0    0    0    0  0.00000000000E+00  0.00000000000E+00  0.50000000000E+03  0.50000000000E+03  0.00000000000E+00 0.  1.
         11   -1    0    0    0    0 -0.00000000000E+00 -0.00000000000E+00 -0.50000000000E+03  0.50000000000E+03  0.00000000000E+00 0.  1.
         23    2    1    2    0    0 -0.10586529268E+03  0.10721784281E+03  0.40715516172E+03  0.44451423376E+03  0.95469640656E+02 0.  0.
        -11    1    1    2    0    0  0.17256990733E+03 -0.10352309137E+03 -0.71992181595E+02  0.21372944947E+03  0.00000000000E+00 0.  1.
         11    1    1    2    0    0 -0.66704614647E+02 -0.36947514402E+01 -0.33516298013E+03  0.34175631677E+03  0.00000000000E+00 0.  1.
        -15    1    3    3    0    0 -0.94432018342E+02  0.62370491719E+02  0.17957032799E+03  0.21226432755E+03  0.17770000000E+01 0. -1.
         15    1    3    3    0    0 -0.11433274337E+02  0.44847351092E+02  0.22758483373E+03  0.23224990621E+03  0.17770000000E+01 0.  1.
</event>
<event>
 7    1  0.6322078E-006  0.4728288E+03  0.7546771E-02  0.9462748E-01
        -11   -1    0    0    0    0  0.00000000000E+00  0.00000000000E+00  0.50000000000E+03  0.50000000000E+03  0.00000000000E+00 0. -1.
         11   -1    0    0    0    0 -0.00000000000E+00 -0.00000000000E+00 -0.50000000000E+03  0.50000000000E+03  0.00000000000E+00 0. -1.
         23    2    1    2    0    0  0.48550920147E+02 -0.11044101379E+02  0.44556927773E+03  0.45649848516E+03  0.85905306433E+02 0.  0.
        -11    1    1    2    0    0  0.11242077479E+02 -0.51118572055E+02  0.29895809381E+02  0.60276464176E+02  0.00000000000E+00 0. -1.
         11    1    1    2    0    0 -0.59792997627E+02  0.62162673434E+02 -0.47546508711E+03  0.48322505067E+03  0.00000000000E+00 0. -1.
        -15    1    3    3    0    0  0.32277454617E+02 -0.48422255161E+02  0.27816173529E+03  0.28418947479E+03  0.17770000000E+01 0.  1.
         15    1    3    3    0    0  0.16273465531E+02  0.37378153782E+02  0.16740754244E+03  0.17230901037E+03  0.17770000000E+01 0. -1.
</event>
<event>
 7    1  0.6322078E-006  0.5154992E+03  0.7546771E-02  0.9365782E-01
        -11   -1    0    0    0    0  0.00000000000E+00  0.00000000000E+00  0.50000000000E+03  0.50000000000E+03  0.00000000000E+00 0.  1.
         11   -1    0    0    0    0 -0.00000000000E+00 -0.00000000000E+00 -0.50000000000E+03  0.50000000000E+03  0.00000000000E+00 0. -1.
         23    2    1    2    0    0  0.44882249944E+02 -0.66149370435E+02  0.30753954017E+03  0.33069451284E+03  0.91586770248E+02 0.  0.
        -11    1    1    2    0    0  0.86363725336E+02  0.40961066544E+02  0.15816535224E+03  0.18480470956E+03  0.00000000000E+00 0.  1.
         11    1    1    2    0    0 -0.13124597528E+03  0.25188303891E+02 -0.46570489241E+03  0.48450077760E+03  0.00000000000E+00 0. -1.
        -15    1    3    3    0    0  0.70507310398E+02 -0.38405267892E+02  0.16936508827E+03  0.18744048729E+03  0.17770000000E+01 0. -1.
         15    1    3    3    0    0 -0.25625060454E+02 -0.27744102543E+02  0.13817445190E+03  0.14325402555E+03  0.17770000000E+01 0.  1.
</event>
<event>
 7    1  0.6322078E-006  0.5075663E+03  0.7546771E-02  0.9383037E-01
        -11   -1    0    0    0    0  0.00000000000E+00  0.00000000000E+00  0.50000000000E+03  0.50000000000E+03  0.00000000000E+00 0.  1.
         11   -1    0    0    0    0 -0.00000000000E+00 -0.00000000000E+00 -0.50000000000E+03  0.50000000000E+03  0.00000000000E+00 0. -1.
         23    2    1    2    0    0  0.45199452866E+02 -0.48997063776E+02  0.30454240536E+03  0.32639295137E+03  0.96657018586E+02 0.  0.
        -11    1    1    2    0    0  0.16384430232E+02 -0.41966790143E+02  0.17548254087E+03  0.18117335118E+03  0.00000000000E+00 0.  1.
         11    1    1    2    0    0 -0.61583883098E+02  0.90963853919E+02 -0.48002494623E+03  0.49243369745E+03  0.00000000000E+00 0. -1.
        -15    1    3    3    0    0  0.11536707792E+01 -0.49599683041E+02  0.25620613987E+03  0.26097165239E+03  0.17770000000E+01 0.  1.
         15    1    3    3    0    0  0.44045782087E+02  0.60261926536E+00  0.48336265490E+02  0.65421298979E+02  0.17770000000E+01 0. -1.
</event>
<event>
 7    1  0.6322078E-006  0.5205285E+03  0.7546771E-02  0.9355012E-01
        -11   -1    0    0    0    0  0.00000000000E+00  0.00000000000E+00  0.50000000000E+03  0.50000000000E+03  0.00000000000E+00 0.  1.
         11   -1    0    0    0    0 -0.00000000000E+00 -0.00000000000E+00 -0.50000000000E+03  0.50000000000E+03  0.00000000000E+00 0. -1.
         23    2    1    2    0    0 -0.41348628486E+02  0.41491191411E+02 -0.27742532352E+03  0.29720306473E+03  0.89070890376E+02 0.  0.
        -11    1    1    2    0    0 -0.68569031362E+02 -0.85575732853E+02  0.46676336473E+03  0.47947153906E+03  0.00000000000E+00 0.  1.
         11    1    1    2    0    0  0.10991765985E+03  0.44084541443E+02 -0.18933804121E+03  0.22332539621E+03  0.00000000000E+00 0. -1.
        -15    1    3    3    0    0 -0.56963105142E+02 -0.39159776282E+01 -0.17454185001E+03  0.18365224028E+03  0.17770000000E+01 0. -1.
         15    1    3    3    0    0  0.15614476656E+02  0.45407169039E+02 -0.10288347351E+03  0.11355082444E+03  0.17770000000E+01 0.  1.
</event>
<event>
 7    1  0.6322078E-006  0.5291725E+03  0.7546771E-02  0.9336800E-01
        -11   -1    0    0    0    0  0.00000000000E+00  0.00000000000E+00  0.50000000000E+03  0.50000000000E+03  0.00000000000E+00 0.  1.
         11   -1    0    0    0    0 -0.00000000000E+00 -0.00000000000E+00 -0.50000000000E+03  0.50000000000E+03  0.00000000000E+00 0. -1.
         23    2    1    2    0    0 -0.14159357374E+02 -0.62117610099E+02  0.96332730687E+02  0.14959907871E+03  0.95083145010E+02 0.  0.
        -11    1    1    2    0    0 -0.84809844846E+02  0.66484559922E+02  0.36395475877E+03  0.37957340914E+03  0.00000000000E+00 0.  1.
         11    1    1    2    0    0  0.98969202220E+02 -0.43669498229E+01 -0.46028748946E+03  0.47082751215E+03  0.00000000000E+00 0. -1.
        -15    1    3    3    0    0 -0.30765880782E+02  0.11499462666E+02  0.88756599834E+01  0.34069225571E+02  0.17770000000E+01 0.  1.
         15    1    3    3    0    0  0.16606523408E+02 -0.73617072766E+02  0.87457070704E+02  0.11552985314E+03  0.17770000000E+01 0. -1.
</event>
<event>
 7    1  0.6322078E-006  0.5167339E+03  0.7546771E-02  0.9363126E-01
        -11   -1    0    0    0    0  0.00000000000E+00  0.00000000000E+00  0.50000000000E+03  0.50000000000E+03  0.00000000000E+00 0. -1.
         11   -1    0    0    0    0 -0.00000000000E+00 -0.00000000000E+00 -0.50000000000E+03  0.50000000000E+03  0.00000000000E+00 0. -1.
         23    2    1    2    0    0  0.99974618571E+02  0.42249537527E+02 -0.23940714600E+03  0.27813975212E+03  0.90917503114E+02 0.  0.
        -11    1    1    2    0    0 -0.64153772511E+02 -0.85829628231E+02  0.47123637951E+03  0.48326613474E+03  0.00000000000E+00 0. -1.
         11    1    1    2    0    0 -0.35820846060E+02  0.43580090704E+02 -0.23182923351E+03  0.23859411315E+03  0.00000000000E+00 0. -1.
        -15    1    3    3    0    0  0.39849034734E+02  0.64708021860E+02 -0.11041828905E+03  0.13405383228E+03  0.17770000000E+01 0.  1.
         15    1    3    3    0    0  0.60125583836E+02 -0.22458484333E+02 -0.12898885695E+03  0.14408591984E+03  0.17770000000E+01 0. -1.
</event>
<event>
 7    1  0.6322078E-006  0.4260990E+03  0.7546771E-02  0.9582282E-01
        -11   -1    0    0    0    0  0.00000000000E+00  0.00000000000E+00  0.50000000000E+03  0.50000000000E+03  0.00000000000E+00 0.  1.
         11   -1    0    0    0    0 -0.00000000000E+00 -0.00000000000E+00 -0.50000000000E+03  0.50000000000E+03  0.00000000000E+00 0. -1.
         23    2    1    2    0    0 -0.10218615170E+03  0.41439541893E+01 -0.30399041170E+02  0.14114925044E+03  0.92411185695E+02 0.  0.
        -11    1    1    2    0    0  0.66750261936E+02 -0.84669122632E+02  0.43327117459E+03  0.44648445496E+03  0.00000000000E+00 0.  1.
         11    1    1    2    0    0  0.35435889760E+02  0.80525168443E+02 -0.40287213342E+03  0.41236629460E+03  0.00000000000E+00 0. -1.
        -15    1    3    3    0    0 -0.10698815226E+03 -0.67008513048E+01  0.13390687501E+01  0.10722087934E+03  0.17770000000E+01 0. -1.
         15    1    3    3    0    0  0.48020005609E+01  0.10844805494E+02 -0.31738109920E+02  0.33928371106E+02  0.17770000000E+01 0.  1.
</event>
<event>
 7    1  0.6322078E-006  0.5118152E+03  0.7546771E-02  0.9373754E-01
        -11   -1    0    0    0    0  0.00000000000E+00  0.00000000000E+00  0.50000000000E+03  0.50000000000E+03  0.00000000000E+00 0. -1.
         11   -1    0    0    0    0 -0.00000000000E+00 -0.00000000000E+00 -0.50000000000E+03  0.50000000000E+03  0.00000000000E+00 0. -1.
         23    2    1    2    0    0 -0.50921518005E+01 -0.14541496237E+02 -0.16827265290E+03  0.19166320566E+03  0.90452825097E+02 0.  0.
        -11    1    1    2    0    0  0.40019860851E+02  0.74777815056E+02  0.48076095218E+03  0.48818480520E+03  0.00000000000E+00 0. -1.
         11    1    1    2    0    0 -0.34927709051E+02 -0.60236318818E+02 -0.31248829928E+03  0.32015198914E+03  0.00000000000E+00 0. -1.
        -15    1    3    3    0    0  0.13909222720E+02  0.33880952164E+02 -0.94618969637E+02  0.10147557608E+03  0.17770000000E+01 0. -1.
         15    1    3    3    0    0 -0.19001374520E+02 -0.48422448401E+02 -0.73653683263E+02  0.90187629584E+02  0.17770000000E+01 0.  1.
</event>
<event>
 7    1  0.6322078E-006  0.5282886E+03  0.7546771E-02  0.9338646E-01
        -11   -1    0    0    0    0  0.00000000000E+00  0.00000000000E+00  0.50000000000E+03  0.50000000000E+03  0.00000000000E+00 0. -1.
         11   -1    0    0    0    0 -0.00000000000E+00 -0.00000000000E+00 -0.50000000000E+03  0.50000000000E+03  0.00000000000E+00 0.  1.
         23    2    1    2    0    0  0.14425277984E+03 -0.15218299077E+03 -0.24900043543E+03  0.33819156719E+03  0.91672199178E+02 0.  0.
        -11    1    1    2    0    0 -0.18346773405E+03  0.91493649955E+02  0.42482954424E+03  0.47171139384E+03  0.00000000000E+00 0. -1.
         11    1    1    2    0    0  0.39214954210E+02  0.60689340812E+02 -0.17582910881E+03  0.19009703898E+03  0.00000000000E+00 0.  1.
        -15    1    3    3    0    0  0.10576248539E+03 -0.14994377206E+03 -0.16944130442E+03  0.24976459210E+03  0.17770000000E+01 0.  1.
         15    1    3    3    0    0  0.38490294446E+02 -0.22392187117E+01 -0.79559131006E+02  0.88426975084E+02  0.17770000000E+01 0. -1.
</event>
<event>
 7    1  0.6322078E-006  0.4340342E+03  0.7546771E-02  0.9560863E-01
        -11   -1    0    0    0    0  0.00000000000E+00  0.00000000000E+00  0.50000000000E+03  0.50000000000E+03  0.00000000000E+00 0.  1.
         11   -1    0    0    0    0 -0.00000000000E+00 -0.00000000000E+00 -0.50000000000E+03  0.50000000000E+03  0.00000000000E+00 0.  1.
         23    2    1    2    0    0  0.99491589602E+02  0.22283674683E+02  0.40697935756E+03  0.42929504524E+03  0.90922493499E+02 0.  0.
        -11    1    1    2    0    0 -0.94873045105E+02  0.89376493181E+02  0.17726259484E+02  0.13154190396E+03  0.00000000000E+00 0.  1.
         11    1    1    2    0    0 -0.46185444965E+01 -0.11166016786E+03 -0.42470561705E+03  0.43916305081E+03  0.00000000000E+00 0.  1.
        -15    1    3    3    0    0  0.39798135412E+02  0.49207281912E+02  0.27183735433E+03  0.27911279640E+03  0.17770000000E+01 0.  1.
         15    1    3    3    0    0  0.59693454190E+02 -0.26923607229E+02  0.13514200323E+03  0.15018224884E+03  0.17770000000E+01 0. -1.
</event>
<event>
 7    1  0.6322078E-006  0.4201910E+03  0.7546771E-02  0.9598555E-01
        -11   -1    0    0    0    0  0.00000000000E+00  0.00000000000E+00  0.50000000000E+03  0.50000000000E+03  0.00000000000E+00 0. -1.
         11   -1    0    0    0    0 -0.00000000000E+00 -0.00000000000E+00 -0.50000000000E+03  0.50000000000E+03  0.00000000000E+00 0.  1.
         23    2    1    2    0    0 -0.18443914676E+03  0.97444301921E+02  0.40103173453E+03  0.46099545049E+03  0.90427664103E+02 0.  0.
        -11    1    1    2    0    0  0.14812966478E+03 -0.39684153880E+02 -0.23242755763E+02  0.15510465936E+03  0.00000000000E+00 0. -1.
         11    1    1    2    0    0  0.36309481980E+02 -0.57760148041E+02 -0.37778897877E+03  0.38389989016E+03  0.00000000000E+00 0.  1.
        -15    1    3    3    0    0 -0.10661520890E+03  0.74783154056E+02  0.15778909675E+03  0.20459687115E+03  0.17770000000E+01 0. -1.
         15    1    3    3    0    0 -0.77823937862E+02  0.22661147866E+02  0.24324263778E+03  0.25639857934E+03  0.17770000000E+01 0.  1.
</event>
<event>
 7    1  0.6322078E-006  0.3643577E+03  0.7546771E-02  0.9768002E-01
        -11   -1    0    0    0    0  0.00000000000E+00  0.00000000000E+00  0.50000000000E+03  0.50000000000E+03  0.00000000000E+00 0.  1.
         11   -1    0    0    0    0 -0.00000000000E+00 -0.00000000000E+00 -0.50000000000E+03  0.50000000000E+03  0.00000000000E+00 0.  1.
         23    2    1    2    0    0 -0.26230813856E+02  0.86524707548E+02 -0.20119068452E+03  0.23863385670E+03  0.91070551860E+02 0.  0.
        -11    1    1    2    0    0  0.30975098611E+02  0.11684511675E+03  0.43498003325E+03  0.45146413741E+03  0.00000000000E+00 0.  1.
         11    1    1    2    0    0 -0.47442847551E+01 -0.20336982430E+03 -0.23378934873E+03  0.30990200589E+03  0.00000000000E+00 0.  1.
        -15    1    3    3    0    0 -0.21935591114E+02  0.10192341149E+03 -0.13535438572E+03  0.17086111151E+03  0.17770000000E+01 0.  1.
         15    1    3    3    0    0 -0.42952227422E+01 -0.15398703937E+02 -0.65836298805E+02  0.67772745191E+02  0.17770000000E+01 0. -1.
</event>
<event>
 7    1  0.6322078E-006  0.4521815E+03  0.7546771E-02  0.9513662E-01
        -11   -1    0    0    0    0  0.00000000000E+00  0.00000000000E+00  0.50000000000E+03  0.50000000000E+03  0.00000000000E+00 0.  1.
         11   -1    0    0    0    0 -0.00000000000E+00 -0.00000000000E+00 -0.50000000000E+03  0.50000000000E+03  0.00000000000E+00 0. -1.
         23    2    1    2    0    0  0.21040949984E+02 -0.73944082794E+01 -0.19412796726E+02  0.95153850533E+02  0.90443351024E+02 0.  0.
        -11    1    1    2    0    0  0.13763636110E+03  0.84031805917E+02  0.42935219941E+03  0.45863757308E+03  0.00000000000E+00 0.  1.
         11    1    1    2    0    0 -0.15867731108E+03 -0.76637397637E+02 -0.40993940268E+03  0.44620857639E+03  0.00000000000E+00 0. -1.
        -15    1    3    3    0    0  0.33614770591E+02 -0.36349339028E+02  0.11582783770E+02  0.50877754063E+02  0.17770000000E+01 0. -1.
         15    1    3    3    0    0 -0.12573820607E+02  0.28954930748E+02 -0.30995580496E+02  0.44276096470E+02  0.17770000000E+01 0.  1.
</event>
<event>
 7    1  0.6322078E-006  0.3420840E+03  0.7546771E-02  0.9844933E-01
        -11   -1    0    0    0    0  0.00000000000E+00  0.00000000000E+00  0.50000000000E+03  0.50000000000E+03  0.00000000000E+00 0.  1.
         11   -1    0    0    0    0 -0.00000000000E+00 -0.00000000000E+00 -0.50000000000E+03  0.50000000000E+03  0.00000000000E+00 0. -1.
         23    2    1    2    0    0 -0.15154960537E+02 -0.10858113249E+03  0.39549683684E+03  0.42027074623E+03  0.90499817816E+02 0.  0.
        -11    1    1    2    0    0  0.14425725018E+03  0.19250922354E+03 -0.13163388435E+03  0.27422150697E+03  0.00000000000E+00 0.  1.
         11    1    1    2    0    0 -0.12910228964E+03 -0.83928091043E+02 -0.26386295249E+03  0.30550774680E+03  0.00000000000E+00 0. -1.
        -15    1    3    3    0    0 -0.22119167229E+02  0.41623774292E+01  0.28971729443E+02  0.36730120891E+02  0.17770000000E+01 0. -1.
         15    1    3    3    0    0  0.69642066916E+01 -0.11274350992E+03  0.36652510740E+03  0.38354062534E+03  0.17770000000E+01 0.  1.
</event>
<event>
 7    1  0.6322078E-006  0.5098452E+03  0.7546771E-02  0.9378046E-01
        -11   -1    0    0    0    0  0.00000000000E+00  0.00000000000E+00  0.50000000000E+03  0.50000000000E+03  0.00000000000E+00 0.  1.
         11   -1    0    0    0    0 -0.00000000000E+00 -0.00000000000E+00 -0.50000000000E+03  0.50000000000E+03  0.00000000000E+00 0. -1.
         23    2    1    2    0    0 -0.42573567972E+01  0.14823499035E+03  0.31842813683E+03  0.36351823949E+03  0.93580418187E+02 0.  0.
        -11    1    1    2    0    0 -0.48778652168E+02  0.32606607792E+02  0.13404862416E+03  0.14632696750E+03  0.00000000000E+00 0.  1.
         11    1    1    2    0    0  0.53036008965E+02 -0.18084159814E+03 -0.45247676099E+03  0.49015479300E+03  0.00000000000E+00 0. -1.
        -15    1    3    3    0    0  0.33213198408E+02  0.49042927734E+02  0.17760827016E+03  0.18723295828E+03  0.17770000000E+01 0.  1.
         15    1    3    3    0    0 -0.37470555205E+02  0.99192062613E+02  0.14081986667E+03  0.17628528121E+03  0.17770000000E+01 0. -1.
</event>
<event>
 7    1  0.6322078E-006  0.3463148E+03  0.7546771E-02  0.9829845E-01
        -11   -1    0    0    0    0  0.00000000000E+00  0.00000000000E+00  0.50000000000E+03  0.50000000000E+03  0.00000000000E+00 0.  1.
         11   -1    0    0    0    0 -0.00000000000E+00 -0.00000000000E+00 -0.50000000000E+03  0.50000000000E+03  0.00000000000E+00 0. -1.
         23    2    1    2    0    0  0.13249814650E+03  0.21191672859E+03 -0.15246840388E+03  0.30639482011E+03  0.90369867354E+02 0.  0.
        -11    1    1    2    0    0  0.22780218357E+02 -0.20605518894E+03  0.37127694335E+03  0.42523434469E+03  0.00000000000E+00 0.  1.
         11    1    1    2    0    0 -0.15527836486E+03 -0.58615396466E+01 -0.21880853948E+03  0.26837083521E+03  0.00000000000E+00 0. -1.
        -15    1    3    3    0    0  0.73365850112E+02  0.47997084471E+02 -0.76184811051E+02  0.11616174605E+03  0.17770000000E+01 0. -1.
         15    1    3    3    0    0  0.59132296391E+02  0.16391964411E+03 -0.76283592826E+02  0.19023307406E+03  0.17770000000E+01 0.  1.
</event>
<event>
 7    1  0.6322078E-006  0.4615566E+03  0.7546771E-02  0.9490193E-01
        -11   -1    0    0    0    0  0.00000000000E+00  0.00000000000E+00  0.50000000000E+03  0.50000000000E+03  0.00000000000E+00 0.  1.
         11   -1    0    0    0    0 -0.00000000000E+00 -0.00000000000E+00 -0.50000000000E+03  0.50000000000E+03  0.00000000000E+00 0. -1.
         23    2    1    2    0    0  0.31284195892E+01 -0.68303551404E+02  0.41712748315E+03  0.43261110571E+03  0.92097065328E+02 0.  0.
        -11    1    1    2    0    0 -0.17609869416E+01 -0.66527620613E+02  0.48682196540E+02  0.82455937563E+02  0.00000000000E+00 0.  1.
         11    1    1    2    0    0 -0.13674326476E+01  0.13483117202E+03 -0.46580967969E+03  0.48493295672E+03  0.00000000000E+00 0. -1.
        -15    1    3    3    0    0  0.31841451390E+02  0.81740323223E+01  0.11293381773E+03  0.11763459417E+03  0.17770000000E+01 0. -1.
         15    1    3    3    0    0 -0.28713031801E+02 -0.76477583726E+02  0.30419366543E+03  0.31497651154E+03  0.17770000000E+01 0.  1.
</event>
<event>
 7    1  0.6322078E-006  0.3214495E+03  0.7546771E-02  0.9922029E-01
        -11   -1    0    0    0    0  0.00000000000E+00  0.00000000000E+00  0.50000000000E+03  0.50000000000E+03  0.00000000000E+00 0. -1.
         11   -1    0    0    0    0 -0.00000000000E+00 -0.00000000000E+00 -0.50000000000E+03  0.50000000000E+03  0.00000000000E+00 0.  1.
         23    2    1    2    0    0 -0.63169771312E+01 -0.23691807287E+03  0.15518620493E+03  0.29745330616E+03  0.90695279322E+02 0.  0.
        -11    1    1    2    0    0 -0.75285559416E+02  0.22720328494E+03  0.21597990443E+03  0.32239194664E+03  0.00000000000E+00 0. -1.
         11    1    1    2    0    0  0.81602536547E+02  0.97147879291E+01 -0.37116610937E+03  0.38015474720E+03  0.00000000000E+00 0.  1.
        -15    1    3    3    0    0 -0.12298570717E+01 -0.20625124952E+03  0.16571369717E+03  0.26458510471E+03  0.17770000000E+01 0.  1.
         15    1    3    3    0    0 -0.50871200596E+01 -0.30666823346E+02 -0.10527492232E+02  0.32868201447E+02  0.17770000000E+01 0. -1.
</event>
<event>
 7    1  0.6322078E-006  0.5178905E+03  0.7546771E-02  0.9360645E-01
        -11   -1    0    0    0    0  0.00000000000E+00  0.00000000000E+00  0.50000000000E+03  0.50000000000E+03  0.00000000000E+00 0. -1.
         11   -1    0    0    0    0 -0.00000000000E+00 -0.00000000000E+00 -0.50000000000E+03  0.50000000000E+03  0.00000000000E+00 0.  1.
         23    2    1    2    0    0 -0.70193844592E+02  0.45778693038E+01 -0.18465385841E+03  0.21816517659E+03  0.92470882688E+02 0.  0.
        -11    1    1    2    0    0  0.99248981883E+02 -0.13962629596E+03  0.45064814810E+03  0.48210954804E+03  0.00000000000E+00 0. -1.
         11    1    1    2    0    0 -0.29055137291E+02  0.13504842666E+03 -0.26599428969E+03  0.29972527537E+03  0.00000000000E+00 0.  1.
        -15    1    3    3    0    0 -0.67308922022E+02 -0.24460476704E+02 -0.17197457277E+03  0.18629873138E+03  0.17770000000E+01 0.  1.
         15    1    3    3    0    0 -0.28849225700E+01  0.29038346008E+02 -0.12679285637E+02  0.31866445211E+02  0.17770000000E+01 0. -1.
</event>
<event>
 7    1  0.6322078E-006  0.3518058E+03  0.7546771E-02  0.9810604E-01
        -11   -1    0    0    0    0  0.00000000000E+00  0.00000000000E+00  0.50000000000E+03  0.50000000000E+03  0.00000000000E+00 0. -1.
         11   -1    0    0    0    0 -0.00000000000E+00 -0.00000000000E+00 -0.50000000000E+03  0.50000000000E+03  0.00000000000E+00 0.  1.
         23    2    1    2    0    0  0.19966299637E+03  0.37457468743E+02  0.12898969086E+03  0.25637640952E+03  0.88442913372E+02 0.  0.
        -11    1    1    2    0    0 -0.24469950969E+03 -0.13940522953E+03  0.23259230239E+03  0.36525449647E+03  0.00000000000E+00 0. -1.
         11    1    1    2    0    0  0.45036513326E+02  0.10194776079E+03 -0.36158199325E+03  0.37836909401E+03  0.00000000000E+00 0.  1.
        -15    1    3    3    0    0  0.17224012382E+03  0.42588158964E-02  0.11754342392E+03  0.20853362920E+03  0.17770000000E+01 0. -1.
         15    1    3    3    0    0  0.27422872552E+02  0.37453209927E+02  0.11446266937E+02  0.47842780319E+02  0.17770000000E+01 0.  1.
</event>
<event>
 7    1  0.6322078E-006  0.4289322E+03  0.7546771E-02  0.9574578E-01
        -11   -1    0    0    0    0  0.00000000000E+00  0.00000000000E+00  0.50000000000E+03  0.50000000000E+03  0.00000000000E+00 0.  1.
         11   -1    0    0    0    0 -0.00000000000E+00 -0.00000000000E+00 -0.50000000000E+03  0.50000000000E+03  0.00000000000E+00 0. -1.
         23    2    1    2    0    0  0.28184974973E+03 -0.32781574924E+02 -0.26922279549E+03  0.40185015539E+03  0.92134253652E+02 0.  0.
        -11    1    1    2    0    0 -0.23674186905E+03  0.11423285992E+03  0.37454039730E+03  0.45757662534E+03  0.00000000000E+00 0.  1.
         11    1    1    2    0    0 -0.45107880681E+02 -0.81451285001E+02 -0.10531760180E+03  0.14057321927E+03  0.00000000000E+00 0. -1.
        -15    1    3    3    0    0  0.26253485189E+03 -0.20493102353E+02 -0.20524279425E+03  0.33387464417E+03  0.17770000000E+01 0.  1.
         15    1    3    3    0    0  0.19314897836E+02 -0.12288472571E+02 -0.63980001247E+02  0.67975511216E+02  0.17770000000E+01 0. -1.
</event>
<event>
 7    1  0.6322078E-006  0.4247800E+03  0.7546771E-02  0.9585890E-01
        -11   -1    0    0    0    0  0.00000000000E+00  0.00000000000E+00  0.50000000000E+03  0.50000000000E+03  0.00000000000E+00 0. -1.
         11   -1    0    0    0    0 -0.00000000000E+00 -0.00000000000E+00 -0.50000000000E+03  0.50000000000E+03  0.00000000000E+00 0.  1.
         23    2    1    2    0    0  0.28995756007E+02 -0.49484573365E+02  0.41198558539E+03  0.42560147759E+03  0.90083396312E+02 0.  0.
        -11    1    1    2    0    0 -0.83756494779E+02  0.12102663514E+03  0.55170861783E+01  0.14728555622E+03  0.00000000000E+00 0. -1.
         11    1    1    2    0    0  0.54760738771E+02 -0.71542061776E+02 -0.41750267157E+03  0.42711296619E+03  0.00000000000E+00 0.  1.
        -15    1    3    3    0    0  0.11574480105E+01  0.25427290746E+02  0.13124154344E+03  0.13369886781E+03  0.17770000000E+01 0.  1.
         15    1    3    3    0    0  0.27838307997E+02 -0.74911864111E+02  0.28074404195E+03  0.29190260978E+03  0.17770000000E+01 0. -1.
</event>
<event>
 6    1  0.6322078E-006  0.4238100E+03  0.7546771E-02  0.9588553E-01
        -11   -1    0    0    0    0  0.00000000000E+00  0.00000000000E+00  0.50000000000E+03  0.50000000000E+03  0.00000000000E+00 0. -1.
         11   -1    0    0    0    0 -0.00000000000E+00 -0.00000000000E+00 -0.50000000000E+03  0.50000000000E+03  0.00000000000E+00 0.  1.
        -11    1    1    2    0    0  0.16401495054E+03 -0.71059915309E+02  0.10431102201E+03  0.20695701215E+03  0.00000000000E+00 0. -1.
         11    1    1    2    0    0 -0.65877393916E+02 -0.81375447370E+02 -0.37046010562E+03  0.38497075774E+03  0.00000000000E+00 0.  1.
        -15    1    1    2    0    0  0.59287952320E+01  0.94079252467E+02  0.27272921317E+03  0.28856617578E+03  0.17770000000E+01 0. -1.
         15    1    1    2    0    0 -0.10406635186E+03  0.58356110213E+02 -0.65801295576E+01  0.11950605433E+03  0.17770000000E+01 0.  1.
</event>
<event>
 7    1  0.6322078E-006  0.5210543E+03  0.7546771E-02  0.9353893E-01
        -11   -1    0    0    0    0  0.00000000000E+00  0.00000000000E+00  0.50000000000E+03  0.50000000000E+03  0.00000000000E+00 0. -1.
         11   -1    0    0    0    0 -0.00000000000E+00 -0.00000000000E+00 -0.50000000000E+03  0.50000000000E+03  0.00000000000E+00 0.  1.
         23    2    1    2    0    0  0.84794298946E+02 -0.10871481978E+03  0.34608494556E+03  0.38336322495E+03  0.90463183249E+02 0.  0.
        -11    1    1    2    0    0 -0.26721977852E+02  0.49598853177E+02  0.12563729016E+03  0.13769109999E+03  0.00000000000E+00 0. -1.
         11    1    1    2    0    0 -0.58072321094E+02  0.59115966607E+02 -0.47172223572E+03  0.47894567506E+03  0.00000000000E+00 0.  1.
        -15    1    3    3    0    0  0.61446924453E+02 -0.26642834945E+02  0.82343274401E+02  0.10615619505E+03  0.17770000000E+01 0.  1.
         15    1    3    3    0    0  0.23347374493E+02 -0.82071984839E+02  0.26374167116E+03  0.27720702990E+03  0.17770000000E+01 0. -1.
</event>
<event>
 7    1  0.6322078E-006  0.4464531E+03  0.7546771E-02  0.9528303E-01
        -11   -1    0    0    0    0  0.00000000000E+00  0.00000000000E+00  0.50000000000E+03  0.50000000000E+03  0.00000000000E+00 0. -1.
         11   -1    0    0    0    0 -0.00000000000E+00 -0.00000000000E+00 -0.50000000000E+03  0.50000000000E+03  0.00000000000E+00 0.  1.
         23    2    1    2    0    0  0.57110561978E+02  0.50108405046E+02  0.45040042213E+03  0.46631220685E+03  0.93883254374E+02 0.  0.
        -11    1    1    2    0    0 -0.67888427498E+02  0.73875874807E+02 -0.45636306131E+02  0.11022320946E+03  0.00000000000E+00 0. -1.
         11    1    1    2    0    0  0.10777865520E+02 -0.12398427985E+03 -0.40476411600E+03  0.42346458369E+03  0.00000000000E+00 0.  1.
        -15    1    3    3    0    0  0.54467745043E+02  0.65177772123E+02  0.43901130459E+03  0.44715652798E+03  0.17770000000E+01 0. -1.
         15    1    3    3    0    0  0.26428169356E+01 -0.15069367077E+02  0.11389117543E+02  0.19155678867E+02  0.17770000000E+01 0.  1.
</event>
<event>
 7    1  0.6322078E-006  0.5209049E+03  0.7546771E-02  0.9354211E-01
        -11   -1    0    0    0    0  0.00000000000E+00  0.00000000000E+00  0.50000000000E+03  0.50000000000E+03  0.00000000000E+00 0.  1.
         11   -1    0    0    0    0 -0.00000000000E+00 -0.00000000000E+00 -0.50000000000E+03  0.50000000000E+03  0.00000000000E+00 0. -1.
         23    2    1    2    0    0  0.32501645320E+02 -0.10294531079E+02  0.22437005651E+03  0.24462890177E+03  0.91318360712E+02 0.  0.
        -11    1    1    2    0    0 -0.92830131259E+02 -0.11184884037E+03  0.23494856151E+03  0.27627599048E+03  0.00000000000E+00 0.  1.
         11    1    1    2    0    0  0.60328485939E+02  0.12214337145E+03 -0.45931861802E+03  0.47909510775E+03  0.00000000000E+00 0. -1.
        -15    1    3    3    0    0  0.64471413192E+02 -0.95005593163E+01  0.15855370081E+03  0.17143295342E+03  0.17770000000E+01 0. -1.
         15    1    3    3    0    0 -0.31969767872E+02 -0.79397176304E+00  0.65816355701E+02  0.73195948356E+02  0.17770000000E+01 0.  1.
</event>
<event>
 7    1  0.6322078E-006  0.3139570E+03  0.7546771E-02  0.9951577E-01
        -11   -1    0    0    0    0  0.00000000000E+00  0.00000000000E+00  0.50000000000E+03  0.50000000000E+03  0.00000000000E+00 0. -1.
         11   -1    0    0    0    0 -0.00000000000E+00 -0.00000000000E+00 -0.50000000000E+03  0.50000000000E+03  0.00000000000E+00 0.  1.
         23    2    1    2    0    0  0.17862001162E+03  0.44103717416E+02  0.22633753334E+03  0.30764544391E+03  0.97809987837E+02 0.  0.
        -11    1    1    2    0    0 -0.27925266944E+03 -0.73207157550E+02  0.13314939922E+03  0.31791524628E+03  0.00000000000E+00 0. -1.
         11    1    1    2    0    0  0.10063265782E+03  0.29103440134E+02 -0.35948693256E+03  0.37443930981E+03  0.00000000000E+00 0.  1.
        -15    1    3    3    0    0  0.73441660252E+02 -0.30296450936E+02  0.89865395639E+02  0.11996040789E+03  0.17770000000E+01 0. -1.
         15    1    3    3    0    0  0.10517835137E+03  0.74400168352E+02  0.13647213770E+03  0.18768503602E+03  0.17770000000E+01 0.  1.
</event>
<event>
 7    1  0.7660633E-006  0.4620697E+03  0.7546771E-02  0.9488926E-01
        -11   -1    0    0    0    0  0.00000000000E+00  0.00000000000E+00  0.50000000000E+03  0.50000000000E+03  0.00000000000E+00 0.  1.
         11   -1    0    0    0    0 -0.00000000000E+00 -0.00000000000E+00 -0.50000000000E+03  0.50000000000E+03  0.00000000000E+00 0. -1.
         23    2    1    2    0    0 -0.10623765712E+02  0.75204823574E+02 -0.40939165850E+03  0.42617862767E+03  0.90873883727E+02 0.  0.
        -11    1    1    2    0    0  0.35395901964E+01 -0.11786323455E+03  0.47821628515E+03  0.49253942598E+03  0.00000000000E+00 0.  1.
         11    1    1    2    0    0  0.70841755154E+01  0.42658410977E+02 -0.68824626652E+02  0.81281946358E+02  0.00000000000E+00 0. -1.
        -15    1    3    3    0    0  0.23450795628E+02  0.75111943665E+02 -0.33812517250E+03  0.34716499521E+03  0.17770000000E+01 0. -1.
         15    1    3    3    0    0 -0.34074561339E+02  0.92879909596E-01 -0.71266486001E+02  0.79013632451E+02  0.17770000000E+01 0.  1.
</event>
<event>
 7    1  0.6322078E-006  0.3889787E+03  0.7546771E-02  0.9689538E-01
        -11   -1    0    0    0    0  0.00000000000E+00  0.00000000000E+00  0.50000000000E+03  0.50000000000E+03  0.00000000000E+00 0.  1.
         11   -1    0    0    0    0 -0.00000000000E+00 -0.00000000000E+00 -0.50000000000E+03  0.50000000000E+03  0.00000000000E+00 0. -1.
         23    2    1    2    0    0  0.35335258479E+02 -0.16284288876E+03  0.67808845728E+02  0.20151261538E+03  0.90790460339E+02 0.  0.
        -11    1    1    2    0    0  0.10519987742E+03  0.13693957200E+03  0.33182694407E+03  0.37407028938E+03  0.00000000000E+00 0.  1.
         11    1    1    2    0    0 -0.14053513590E+03  0.25903316756E+02 -0.39963578980E+03  0.42441709524E+03  0.00000000000E+00 0. -1.
        -15    1    3    3    0    0  0.24721752055E+02 -0.16438226810E+03  0.80580828066E+02  0.18474069035E+03  0.17770000000E+01 0. -1.
         15    1    3    3    0    0  0.10613506424E+02  0.15393793438E+01 -0.12771982338E+02  0.16771925031E+02  0.17770000000E+01 0.  1.
</event>
<event>
 7    1  0.6322078E-006  0.3603335E+03  0.7546771E-02  0.9781458E-01
        -11   -1    0    0    0    0  0.00000000000E+00  0.00000000000E+00  0.50000000000E+03  0.50000000000E+03  0.00000000000E+00 0.  1.
         11   -1    0    0    0    0 -0.00000000000E+00 -0.00000000000E+00 -0.50000000000E+03  0.50000000000E+03  0.00000000000E+00 0.  1.
         23    2    1    2    0    0 -0.61751134975E+02 -0.10243554750E+03  0.41680810872E+03  0.44337539831E+03  0.92447283744E+02 0.  0.
        -11    1    1    2    0    0  0.20410081978E+03  0.21698829854E+02 -0.22922177968E+03  0.30768589199E+03  0.00000000000E+00 0.  1.
         11    1    1    2    0    0 -0.14234968481E+03  0.80736717649E+02 -0.18758632904E+03  0.24893870970E+03  0.00000000000E+00 0.  1.
        -15    1    3    3    0    0 -0.51115661969E+02 -0.10344720582E+03  0.41686672808E+03  0.43254498263E+03  0.17770000000E+01 0.  1.
         15    1    3    3    0    0 -0.10635473006E+02  0.10116583163E+01 -0.58619360301E-01  0.10830415682E+02  0.17770000000E+01 0. -1.
</event>
<event>
 7    1  0.6322078E-006  0.5143678E+03  0.7546771E-02  0.9368222E-01
        -11   -1    0    0    0    0  0.00000000000E+00  0.00000000000E+00  0.50000000000E+03  0.50000000000E+03  0.00000000000E+00 0.  1.
         11   -1    0    0    0    0 -0.00000000000E+00 -0.00000000000E+00 -0.50000000000E+03  0.50000000000E+03  0.00000000000E+00 0. -1.
         23    2    1    2    0    0  0.10644244923E+02 -0.24725159033E+02 -0.13310830134E+03  0.16429421246E+03  0.92466939621E+02 0.  0.
        -11    1    1    2    0    0 -0.57372009602E+02  0.10306387137E+03  0.47108913497E+03  0.48563224991E+03  0.00000000000E+00 0.  1.
         11    1    1    2    0    0  0.46727764679E+02 -0.78338712335E+02 -0.33798083363E+03  0.35007353763E+03  0.00000000000E+00 0. -1.
        -15    1    3    3    0    0 -0.25383523164E+02  0.92095512280E+01 -0.57770649411E+01  0.27670765988E+02  0.17770000000E+01 0.  1.
         15    1    3    3    0    0  0.36027768087E+02 -0.33934710261E+02 -0.12733123640E+03  0.13662344647E+03  0.17770000000E+01 0. -1.
</event>
<event>
 7    1  0.6322078E-006  0.4449859E+03  0.7546771E-02  0.9532091E-01
        -11   -1    0    0    0    0  0.00000000000E+00  0.00000000000E+00  0.50000000000E+03  0.50000000000E+03  0.00000000000E+00 0. -1.
         11   -1    0    0    0    0 -0.00000000000E+00 -0.00000000000E+00 -0.50000000000E+03  0.50000000000E+03  0.00000000000E+00 0.  1.
         23    2    1    2    0    0 -0.17513760547E+03 -0.84626880474E+02  0.38147241910E+03  0.43744430142E+03  0.89450659933E+02 0.  0.
        -11    1    1    2    0    0  0.98529024355E+02 -0.14186800295E+02  0.51368689545E+02  0.11201774952E+03  0.00000000000E+00 0. -1.
         11    1    1    2    0    0  0.76608581110E+02  0.98813680769E+02 -0.43284110865E+03  0.45053794906E+03  0.00000000000E+00 0.  1.
        -15    1    3    3    0    0 -0.17833719552E+03 -0.58760197467E+02  0.34071280964E+03  0.38903122304E+03  0.17770000000E+01 0. -1.
         15    1    3    3    0    0  0.31995900575E+01 -0.25866683007E+02  0.40759609459E+02  0.48413078384E+02  0.17770000000E+01 0.  1.
</event>
<event>
 7    1  0.6322078E-006  0.5219871E+03  0.7546771E-02  0.9351913E-01
        -11   -1    0    0    0    0  0.00000000000E+00  0.00000000000E+00  0.50000000000E+03  0.50000000000E+03  0.00000000000E+00 0.  1.
         11   -1    0    0    0    0 -0.00000000000E+00 -0.00000000000E+00 -0.50000000000E+03  0.50000000000E+03  0.00000000000E+00 0.  1.
         23    2    1    2    0    0 -0.15217864816E+02  0.67347469561E+02  0.30336752568E+03  0.32338080809E+03  0.88181780076E+02 0.  0.
        -11    1    1    2    0    0  0.11016367953E+03 -0.25600820761E+02  0.16325747125E+03  0.19860624419E+03  0.00000000000E+00 0.  1.
         11    1    1    2    0    0 -0.94945814718E+02 -0.41746648800E+02 -0.46662499694E+03  0.47801294772E+03  0.00000000000E+00 0.  1.
        -15    1    3    3    0    0  0.30354234663E+02  0.53827058372E+02  0.20493795456E+03  0.21405946539E+03  0.17770000000E+01 0. -1.
         15    1    3    3    0    0 -0.45572099479E+02  0.13520411189E+02  0.98429571120E+02  0.10932134270E+03  0.17770000000E+01 0.  1.
</event>
<event>
 7    1  0.6322078E-006  0.4749955E+03  0.7546771E-02  0.9457566E-01
        -11   -1    0    0    0    0  0.00000000000E+00  0.00000000000E+00  0.50000000000E+03  0.50000000000E+03  0.00000000000E+00 0.  1.
         11   -1    0    0    0    0 -0.00000000000E+00 -0.00000000000E+00 -0.50000000000E+03  0.50000000000E+03  0.00000000000E+00 0.  1.
         23    2    1    2    0    0 -0.44333996306E+03 -0.20030570599E+02 -0.76737872187E+02  0.45981620615E+03  0.92686006563E+02 0.  0.
        -11    1    1    2    0    0  0.46454073456E+03  0.46700112058E+02  0.12292219975E+03  0.48279277307E+03  0.00000000000E+00 0.  1.
         11    1    1    2    0    0 -0.21200771507E+02 -0.26669541459E+02 -0.46184327559E+02  0.57391020780E+02  0.00000000000E+00 0.  1.
        -15    1    3    3    0    0 -0.60936865557E+02 -0.35147207117E+02 -0.59639006325E+01  0.70621197892E+02  0.17770000000E+01 0. -1.
         15    1    3    3    0    0 -0.38240309750E+03  0.15116636518E+02 -0.70773971554E+02  0.38919500826E+03  0.17770000000E+01 0.  1.
</event>
<event>
 7    1  0.6322078E-006  0.3651189E+03  0.7546771E-02  0.9765478E-01
        -11   -1    0    0    0    0  0.00000000000E+00  0.00000000000E+00  0.50000000000E+03  0.50000000000E+03  0.00000000000E+00 0.  1.
         11   -1    0    0    0    0 -0.00000000000E+00 -0.00000000000E+00 -0.50000000000E+03  0.50000000000E+03  0.00000000000E+00 0.  1.
         23    2    1    2    0    0 -0.79530429548E+02  0.57439449787E+02  0.28227258049E+03  0.31281129909E+03  0.92459285764E+02 0.  0.
        -11    1    1    2    0    0  0.18679367998E+03 -0.37048526593E+02  0.14932372967E+03  0.24199596783E+03  0.00000000000E+00 0.  1.
         11    1    1    2    0    0 -0.10726325043E+03 -0.20390923193E+02 -0.43159631016E+03  0.44519273308E+03  0.00000000000E+00 0.  1.
        -15    1    3    3    0    0  0.20264738673E+02  0.19046218179E+02  0.58408369861E+02  0.64715635354E+02  0.17770000000E+01 0.  1.
         15    1    3    3    0    0 -0.99795168221E+02  0.38393231607E+02  0.22386421063E+03  0.24809566374E+03  0.17770000000E+01 0. -1.
</event>
<event>
 7    1  0.6322078E-006  0.4273130E+03  0.7546771E-02  0.9578973E-01
        -11   -1    0    0    0    0  0.00000000000E+00  0.00000000000E+00  0.50000000000E+03  0.50000000000E+03  0.00000000000E+00 0.  1.
         11   -1    0    0    0    0 -0.00000000000E+00 -0.00000000000E+00 -0.50000000000E+03  0.50000000000E+03  0.00000000000E+00 0. -1.
         23    2    1    2    0    0 -0.27777963821E+01  0.24783541330E+03 -0.28891599805E+03  0.39165795572E+03  0.92159601318E+02 0.  0.
        -11    1    1    2    0    0 -0.33519405445E+02 -0.19924111577E+03  0.41880305450E+03  0.46499093670E+03  0.00000000000E+00 0.  1.
         11    1    1    2    0    0  0.36297201827E+02 -0.48594297529E+02 -0.12988705644E+03  0.14335110758E+03  0.00000000000E+00 0. -1.
        -15    1    3    3    0    0 -0.41424783357E+02  0.12358427509E+03 -0.17826075360E+03  0.22083736036E+03  0.17770000000E+01 0. -1.
         15    1    3    3    0    0  0.38646986975E+02  0.12425113821E+03 -0.11065524445E+03  0.17082059537E+03  0.17770000000E+01 0.  1.
</event>
<event>
 7    1  0.6322078E-006  0.4693702E+03  0.7546771E-02  0.9471081E-01
        -11   -1    0    0    0    0  0.00000000000E+00  0.00000000000E+00  0.50000000000E+03  0.50000000000E+03  0.00000000000E+00 0.  1.
         11   -1    0    0    0    0 -0.00000000000E+00 -0.00000000000E+00 -0.50000000000E+03  0.50000000000E+03  0.00000000000E+00 0. -1.
         23    2    1    2    0    0 -0.31692636268E+02 -0.13849490528E+03  0.45427402382E+03  0.48473666394E+03  0.91757739020E+02 0.  0.
        -11    1    1    2    0    0 -0.52815157867E+02 -0.11024207890E+02 -0.41131468494E+02  0.67843730445E+02  0.00000000000E+00 0.  1.
         11    1    1    2    0    0  0.84507794136E+02  0.14951911317E+03 -0.41314255532E+03  0.44741960562E+03  0.00000000000E+00 0. -1.
        -15    1    3    3    0    0 -0.57917913191E+02 -0.69837477031E+02  0.19219191299E+03  0.21253857771E+03  0.17770000000E+01 0. -1.
         15    1    3    3    0    0  0.26225276923E+02 -0.68657428252E+02  0.26208211083E+03  0.27219808623E+03  0.17770000000E+01 0.  1.
</event>
<event>
 7    1  0.6322078E-006  0.5274515E+03  0.7546771E-02  0.9340397E-01
        -11   -1    0    0    0    0  0.00000000000E+00  0.00000000000E+00  0.50000000000E+03  0.50000000000E+03  0.00000000000E+00 0.  1.
         11   -1    0    0    0    0 -0.00000000000E+00 -0.00000000000E+00 -0.50000000000E+03  0.50000000000E+03  0.00000000000E+00 0. -1.
         23    2    1    2    0    0  0.16588413640E+02 -0.20038450316E+03 -0.99497637359E+02  0.24293479135E+03  0.93211632521E+02 0.  0.
        -11    1    1    2    0    0 -0.16056988479E+02  0.29720518666E+03  0.36703313044E+03  0.47254848291E+03  0.00000000000E+00 0.  1.
         11    1    1    2    0    0 -0.53142516150E+00 -0.96820683503E+02 -0.26753549308E+03  0.28451672574E+03  0.00000000000E+00 0. -1.
        -15    1    3    3    0    0 -0.29370272223E+02 -0.50113096375E+02 -0.23103923840E+01  0.58158670555E+02  0.17770000000E+01 0.  1.
         15    1    3    3    0    0  0.45958685863E+02 -0.15027140678E+03 -0.97187244975E+02  0.18477612080E+03  0.17770000000E+01 0. -1.
</event>
<event>
 7    1  0.6322078E-006  0.5148832E+03  0.7546771E-02  0.9367110E-01
        -11   -1    0    0    0    0  0.00000000000E+00  0.00000000000E+00  0.50000000000E+03  0.50000000000E+03  0.00000000000E+00 0.  1.
         11   -1    0    0    0    0 -0.00000000000E+00 -0.00000000000E+00 -0.50000000000E+03  0.50000000000E+03  0.00000000000E+00 0. -1.
         23    2    1    2    0    0 -0.12422996874E+02  0.56814825288E+02  0.31487856306E+03  0.33293906215E+03  0.91201175466E+02 0.  0.
        -11    1    1    2    0    0 -0.93716149472E+01  0.12020064759E+03  0.13626313938E+03  0.18194412879E+03  0.00000000000E+00 0.  1.
         11    1    1    2    0    0  0.21794611821E+02 -0.17701547288E+03 -0.45114170244E+03  0.48511680905E+03  0.00000000000E+00 0. -1.
        -15    1    3    3    0    0  0.11453505113E+02  0.62438429213E+02  0.29368664710E+03  0.30047419962E+03  0.17770000000E+01 0.  1.
         15    1    3    3    0    0 -0.23876501988E+02 -0.56236039245E+01  0.21191915965E+02  0.32464862537E+02  0.17770000000E+01 0. -1.
</event>
<event>
 7    1  0.7951010E-006  0.5196307E+03  0.7546771E-02  0.9356925E-01
        -11   -1    0    0    0    0  0.00000000000E+00  0.00000000000E+00  0.50000000000E+03  0.50000000000E+03  0.00000000000E+00 0. -1.
         11   -1    0    0    0    0 -0.00000000000E+00 -0.00000000000E+00 -0.50000000000E+03  0.50000000000E+03  0.00000000000E+00 0. -1.
         23    2    1    2    0    0 -0.22626235803E+02 -0.30420488998E+02 -0.27197881546E+03  0.28960248364E+03  0.91977006772E+02 0.  0.
        -11    1    1    2    0    0  0.17142421817E+03  0.64021936486E+02  0.44415044736E+03  0.48036932752E+03  0.00000000000E+00 0. -1.
         11    1    1    2    0    0 -0.14879798237E+03 -0.33601447489E+02 -0.17217163191E+03  0.23002818884E+03  0.00000000000E+00 0. -1.
        -15    1    3    3    0    0  0.85497185964E+01  0.29109603741E+02 -0.11254741645E+03  0.11657849457E+03  0.17770000000E+01 0.  1.
         15    1    3    3    0    0 -0.31175954400E+02 -0.59530092739E+02 -0.15943139901E+03  0.17302398907E+03  0.17770000000E+01 0. -1.
</event>
<event>
 7    1  0.6322078E-006  0.4384032E+03  0.7546771E-02  0.9549278E-01
        -11   -1    0    0    0    0  0.00000000000E+00  0.00000000000E+00  0.50000000000E+03  0.50000000000E+03  0.00000000000E+00 0.  1.
         11   -1    0    0    0    0 -0.00000000000E+00 -0.00000000000E+00 -0.50000000000E+03  0.50000000000E+03  0.00000000000E+00 0. -1.
         23    2    1    2    0    0  0.26867887593E+02  0.52625906843E+02 -0.30934424006E+02  0.12066070220E+03  0.10055196175E+03 0.  0.
        -11    1    1    2    0    0 -0.33479098598E+02  0.78592717697E+02  0.44076325682E+03  0.44896538161E+03  0.00000000000E+00 0.  1.
         11    1    1    2    0    0  0.66112110043E+01 -0.13121862454E+03 -0.40982883281E+03  0.43037391620E+03  0.00000000000E+00 0. -1.
        -15    1    3    3    0    0 -0.36262576898E+02  0.33795081433E+02 -0.50522279607E+01  0.49857444266E+02  0.17770000000E+01 0.  1.
         15    1    3    3    0    0  0.63130464491E+02  0.18830825410E+02 -0.25882196045E+02  0.70803257931E+02  0.17770000000E+01 0. -1.
</event>
<event>
 7    1  0.6322078E-006  0.4646654E+03  0.7546771E-02  0.9482541E-01
        -11   -1    0    0    0    0  0.00000000000E+00  0.00000000000E+00  0.50000000000E+03  0.50000000000E+03  0.00000000000E+00 0.  1.
         11   -1    0    0    0    0 -0.00000000000E+00 -0.00000000000E+00 -0.50000000000E+03  0.50000000000E+03  0.00000000000E+00 0.  1.
         23    2    1    2    0    0 -0.37806706660E+02 -0.10067735756E+03  0.40834977341E+03  0.43392734459E+03  0.99890567856E+02 0.  0.
        -11    1    1    2    0    0  0.39174961472E+02 -0.83455582717E+01  0.67174036773E+02  0.78209188498E+02  0.00000000000E+00 0.  1.
         11    1    1    2    0    0 -0.13682548118E+01  0.10902291583E+03 -0.47552381018E+03  0.48786346691E+03  0.00000000000E+00 0.  1.
        -15    1    3    3    0    0 -0.66957000192E+02 -0.61327909822E+02  0.32285663746E+03  0.33538622285E+03  0.17770000000E+01 0.  1.
         15    1    3    3    0    0  0.29150293532E+02 -0.39349447736E+02  0.85493135952E+02  0.98541121741E+02  0.17770000000E+01 0. -1.
</event>
<event>
 7    1  0.6322078E-006  0.5381497E+03  0.7546771E-02  0.9318273E-01
        -11   -1    0    0    0    0  0.00000000000E+00  0.00000000000E+00  0.50000000000E+03  0.50000000000E+03  0.00000000000E+00 0. -1.
         11   -1    0    0    0    0 -0.00000000000E+00 -0.00000000000E+00 -0.50000000000E+03  0.50000000000E+03  0.00000000000E+00 0. -1.
         23    2    1    2    0    0  0.13182989226E+03  0.11102138996E+03  0.27380659976E+03  0.33567544230E+03  0.89459929438E+02 0.  0.
        -11    1    1    2    0    0 -0.44190539021E+01 -0.10970709392E+03  0.17011954972E+03  0.20247428402E+03  0.00000000000E+00 0. -1.
         11    1    1    2    0    0 -0.12741083836E+03 -0.13142960374E+01 -0.44392614948E+03  0.46185027367E+03  0.00000000000E+00 0. -1.
        -15    1    3    3    0    0  0.98746676357E+02  0.35157581577E+02  0.10891865556E+03  0.15117338685E+03  0.17770000000E+01 0.  1.
         15    1    3    3    0    0  0.33083215903E+02  0.75863808379E+02  0.16488794420E+03  0.18450205545E+03  0.17770000000E+01 0. -1.
</event>
<event>
 7    1  0.8089216E-006  0.5145681E+03  0.7546771E-02  0.9367790E-01
        -11   -1    0    0    0    0  0.00000000000E+00  0.00000000000E+00  0.50000000000E+03  0.50000000000E+03  0.00000000000E+00 0.  1.
         11   -1    0    0    0    0 -0.00000000000E+00 -0.00000000000E+00 -0.50000000000E+03  0.50000000000E+03  0.00000000000E+00 0.  1.
         23    2    1    2    0    0 -0.25293597496E+02  0.24334266806E+02 -0.18239611879E+03  0.20553529553E+03  0.88002789402E+02 0.  0.
        -11    1    1    2    0    0  0.85213341274E+02  0.56795764863E+02  0.47450712961E+03  0.48543185772E+03  0.00000000000E+00 0.  1.
         11    1    1    2    0    0 -0.59919743778E+02 -0.81130031669E+02 -0.29211101082E+03  0.30903284676E+03  0.00000000000E+00 0.  1.
        -15    1    3    3    0    0 -0.39033354971E+02  0.50448043259E+02 -0.10743870640E+03  0.12495935831E+03  0.17770000000E+01 0.  1.
         15    1    3    3    0    0  0.13739757475E+02 -0.26113776453E+02 -0.74957412392E+02  0.80575937212E+02  0.17770000000E+01 0. -1.
</event>
<event>
 7    1  0.6322078E-006  0.5063115E+03  0.7546771E-02  0.9385797E-01
        -11   -1    0    0    0    0  0.00000000000E+00  0.00000000000E+00  0.50000000000E+03  0.50000000000E+03  0.00000000000E+00 0.  1.
         11   -1    0    0    0    0 -0.00000000000E+00 -0.00000000000E+00 -0.50000000000E+03  0.50000000000E+03  0.00000000000E+00 0.  1.
         23    2    1    2    0    0 -0.62710340667E+02  0.73437246986E+01  0.35394202001E+03  0.37090433302E+03  0.91151267709E+02 0.  0.
        -11    1    1    2    0    0 -0.25217930584E+02 -0.18674885770E+02  0.13172096393E+03  0.13540719227E+03  0.00000000000E+00 0.  1.
         11    1    1    2    0    0  0.87928271251E+02  0.11331161071E+02 -0.48566298393E+03  0.49368847471E+03  0.00000000000E+00 0.  1.
        -15    1    3    3    0    0 -0.16506753144E+01  0.37613134693E+02  0.18355498724E+03  0.18738480115E+03  0.17770000000E+01 0.  1.
         15    1    3    3    0    0 -0.61059665352E+02 -0.30269409994E+02  0.17038703277E+03  0.18351953187E+03  0.17770000000E+01 0. -1.
</event>
<event>
 7    1  0.6322078E-006  0.4790884E+03  0.7546771E-02  0.9447856E-01
        -11   -1    0    0    0    0  0.00000000000E+00  0.00000000000E+00  0.50000000000E+03  0.50000000000E+03  0.00000000000E+00 0. -1.
         11   -1    0    0    0    0 -0.00000000000E+00 -0.00000000000E+00 -0.50000000000E+03  0.50000000000E+03  0.00000000000E+00 0.  1.
         23    2    1    2    0    0 -0.49166547215E+02  0.23604430602E+02  0.47268066077E+03  0.48438639421E+03  0.90711924908E+02 0.  0.
        -11    1    1    2    0    0 -0.43007050847E+02 -0.18216984080E+02 -0.15512395626E+02  0.49214828554E+02  0.00000000000E+00 0. -1.
         11    1    1    2    0    0  0.92173598062E+02 -0.53874465225E+01 -0.45716826514E+03  0.46639877724E+03  0.00000000000E+00 0.  1.
        -15    1    3    3    0    0 -0.62885765136E+02 -0.14478879917E+02  0.26119675838E+03  0.26905605687E+03  0.17770000000E+01 0.  1.
         15    1    3    3    0    0  0.13719217921E+02  0.38083310519E+02  0.21148390239E+03  0.21533033734E+03  0.17770000000E+01 0. -1.
</event>
<event>
 7    1  0.6322078E-006  0.5244822E+03  0.7546771E-02  0.9346636E-01
        -11   -1    0    0    0    0  0.00000000000E+00  0.00000000000E+00  0.50000000000E+03  0.50000000000E+03  0.00000000000E+00 0. -1.
         11   -1    0    0    0    0 -0.00000000000E+00 -0.00000000000E+00 -0.50000000000E+03  0.50000000000E+03  0.00000000000E+00 0.  1.
         23    2    1    2    0    0  0.33308914779E+02 -0.43333924866E+02  0.20041089638E+03  0.22665374921E+03  0.90664666732E+02 0.  0.
        -11    1    1    2    0    0 -0.15293063957E+03 -0.74295739229E+02  0.24452847314E+03  0.29782849354E+03  0.00000000000E+00 0. -1.
         11    1    1    2    0    0  0.11962172479E+03  0.11762966409E+03 -0.44493936952E+03  0.47551775726E+03  0.00000000000E+00 0.  1.
        -15    1    3    3    0    0 -0.20671077546E+02 -0.36530613392E+02  0.43087155374E+02  0.60178400186E+02  0.17770000000E+01 0. -1.
         15    1    3    3    0    0  0.53979992325E+02 -0.68033114740E+01  0.15732374101E+03  0.16647534902E+03  0.17770000000E+01 0.  1.
</event>
<event>
 7    1  0.6322078E-006  0.3407678E+03  0.7546771E-02  0.9849674E-01
        -11   -1    0    0    0    0  0.00000000000E+00  0.00000000000E+00  0.50000000000E+03  0.50000000000E+03  0.00000000000E+00 0. -1.
         11   -1    0    0    0    0 -0.00000000000E+00 -0.00000000000E+00 -0.50000000000E+03  0.50000000000E+03  0.00000000000E+00 0.  1.
         23    2    1    2    0    0 -0.34908173465E+03  0.50404566889E+02  0.18163644724E+03  0.40682063578E+03  0.90069711341E+02 0.  0.
        -11    1    1    2    0    0  0.22553327140E+03 -0.12231921396E+03  0.10156753909E+03  0.27594059435E+03  0.00000000000E+00 0. -1.
         11    1    1    2    0    0  0.12354846325E+03  0.71914647071E+02 -0.28320398633E+03  0.31723876987E+03  0.00000000000E+00 0.  1.
        -15    1    3    3    0    0 -0.79535689083E+02  0.13964421702E+02  0.18943330832E+01  0.80794041477E+02  0.17770000000E+01 0.  1.
         15    1    3    3    0    0 -0.26954604556E+03  0.36440145188E+02  0.17974211416E+03  0.32602659430E+03  0.17770000000E+01 0. -1.
</event>
<event>
 7    1  0.6322078E-006  0.5160861E+03  0.7546771E-02  0.9364518E-01
        -11   -1    0    0    0    0  0.00000000000E+00  0.00000000000E+00  0.50000000000E+03  0.50000000000E+03  0.00000000000E+00 0. -1.
         11   -1    0    0    0    0 -0.00000000000E+00 -0.00000000000E+00 -0.50000000000E+03  0.50000000000E+03  0.00000000000E+00 0. -1.
         23    2    1    2    0    0 -0.16375964297E+02  0.10635983737E+03  0.39365259926E+03  0.41849565694E+03  0.92712775598E+02 0.  0.
        -11    1    1    2    0    0 -0.48218176171E+02 -0.29162926882E+02  0.79676996658E+02  0.97590433004E+02  0.00000000000E+00 0. -1.
         11    1    1    2    0    0  0.64594140468E+02 -0.77196910489E+02 -0.47332959592E+03  0.48391391006E+03  0.00000000000E+00 0. -1.
        -15    1    3    3    0    0 -0.37996838772E+02  0.71683158693E+02  0.34739480966E+03  0.35674717449E+03  0.17770000000E+01 0. -1.
         15    1    3    3    0    0  0.21620874476E+02  0.34676678677E+02  0.46257789600E+02  0.61748482450E+02  0.17770000000E+01 0.  1.
</event>
<event>
 7    1  0.6322078E-006  0.5034989E+03  0.7546771E-02  0.9392015E-01
        -11   -1    0    0    0    0  0.00000000000E+00  0.00000000000E+00  0.50000000000E+03  0.50000000000E+03  0.00000000000E+00 0.  1.
         11   -1    0    0    0    0 -0.00000000000E+00 -0.00000000000E+00 -0.50000000000E+03  0.50000000000E+03  0.00000000000E+00 0. -1.
         23    2    1    2    0    0  0.58144922604E+02 -0.99996486768E+02  0.47535884005E+03  0.49650114556E+03  0.84659502379E+02 0.  0.
        -11    1    1    2    0    0  0.30394440272E+02  0.72078155807E+01 -0.16066758530E+03  0.16367604458E+03  0.00000000000E+00 0.  1.
         11    1    1    2    0    0 -0.88539362876E+02  0.92788671187E+02 -0.31469125475E+03  0.33982280985E+03  0.00000000000E+00 0. -1.
        -15    1    3    3    0    0  0.18719234426E+02 -0.24680004837E+02  0.30212970148E+02  0.43306970228E+02  0.17770000000E+01 0. -1.
         15    1    3    3    0    0  0.39425688178E+02 -0.75316481931E+02  0.44514586990E+03  0.45319417534E+03  0.17770000000E+01 0.  1.
</event>
<event>
 7    1  0.6322078E-006  0.3260638E+03  0.7546771E-02  0.9904259E-01
        -11   -1    0    0    0    0  0.00000000000E+00  0.00000000000E+00  0.50000000000E+03  0.50000000000E+03  0.00000000000E+00 0.  1.
         11   -1    0    0    0    0 -0.00000000000E+00 -0.00000000000E+00 -0.50000000000E+03  0.50000000000E+03  0.00000000000E+00 0. -1.
         23    2    1    2    0    0 -0.84865962888E+02 -0.17618851538E+03  0.19600212314E+03  0.29152855864E+03  0.91254827912E+02 0.  0.
        -11    1    1    2    0    0  0.32363897480E+03  0.11206392033E+03  0.65391445002E+02  0.34867828915E+03  0.00000000000E+00 0.  1.
         11    1    1    2    0    0 -0.23877301191E+03  0.64124595049E+02 -0.26139356815E+03  0.35979315221E+03  0.00000000000E+00 0. -1.
        -15    1    3    3    0    0  0.16293302534E+02 -0.30253434143E+02  0.13702750839E+02  0.37035997279E+02  0.17770000000E+01 0. -1.
         15    1    3    3    0    0 -0.10115926542E+03 -0.14593508124E+03  0.18229937231E+03  0.25449256136E+03  0.17770000000E+01 0.  1.
</event>
<event>
 7    1  0.6322078E-006  0.5198852E+03  0.7546771E-02  0.9356382E-01
        -11   -1    0    0    0    0  0.00000000000E+00  0.00000000000E+00  0.50000000000E+03  0.50000000000E+03  0.00000000000E+00 0.  1.
         11   -1    0    0    0    0 -0.00000000000E+00 -0.00000000000E+00 -0.50000000000E+03  0.50000000000E+03  0.00000000000E+00 0. -1.
         23    2    1    2    0    0 -0.78536489651E+01 -0.17130108483E+03 -0.15223815460E+03  0.25144561605E+03  0.10316346566E+03 0.  0.
        -11    1    1    2    0    0 -0.33776474825E+02  0.26016843144E+03  0.40209674863E+03  0.48011483859E+03  0.00000000000E+00 0.  1.
         11    1    1    2    0    0  0.41630123790E+02 -0.88867346611E+02 -0.24985859403E+03  0.26843954536E+03  0.00000000000E+00 0. -1.
        -15    1    3    3    0    0  0.12931969161E+02 -0.32121302141E+02  0.10564306729E+02  0.36246050589E+02  0.17770000000E+01 0.  1.
         15    1    3    3    0    0 -0.20785618126E+02 -0.13917978269E+03 -0.16280246133E+03  0.21519956546E+03  0.17770000000E+01 0. -1.
</event>
<event>
 7    1  0.6322078E-006  0.5229394E+03  0.7546771E-02  0.9349895E-01
        -11   -1    0    0    0    0  0.00000000000E+00  0.00000000000E+00  0.50000000000E+03  0.50000000000E+03  0.00000000000E+00 0. -1.
         11   -1    0    0    0    0 -0.00000000000E+00 -0.00000000000E+00 -0.50000000000E+03  0.50000000000E+03  0.00000000000E+00 0.  1.
         23    2    1    2    0    0  0.32929908263E+01 -0.41154399671E+02  0.18243359172E+03  0.21172747532E+03  0.99206753884E+02 0.  0.
        -11    1    1    2    0    0 -0.16968291679E+03 -0.26236791696E+02  0.25956151084E+03  0.31121188826E+03  0.00000000000E+00 0. -1.
         11    1    1    2    0    0  0.16638992596E+03  0.67391191367E+02 -0.44199510256E+03  0.47706063642E+03  0.00000000000E+00 0.  1.
        -15    1    3    3    0    0 -0.37436886289E+02 -0.28609121735E+02  0.15248543435E+03  0.15960879588E+03  0.17770000000E+01 0. -1.
         15    1    3    3    0    0  0.40729877116E+02 -0.12545277936E+02  0.29948157365E+02  0.52118679443E+02  0.17770000000E+01 0.  1.
</event>
<event>
 7    1  0.6322078E-006  0.5073323E+03  0.7546771E-02  0.9383551E-01
        -11   -1    0    0    0    0  0.00000000000E+00  0.00000000000E+00  0.50000000000E+03  0.50000000000E+03  0.00000000000E+00 0.  1.
         11   -1    0    0    0    0 -0.00000000000E+00 -0.00000000000E+00 -0.50000000000E+03  0.50000000000E+03  0.00000000000E+00 0. -1.
         23    2    1    2    0    0 -0.18294275305E+02  0.72369527376E+01  0.48370595000E+03  0.49266770543E+03  0.91449264170E+02 0.  0.
        -11    1    1    2    0    0  0.28501192662E+02  0.57089017616E+02 -0.10350169675E+03  0.12158978224E+03  0.00000000000E+00 0.  1.
         11    1    1    2    0    0 -0.10206917357E+02 -0.64325970353E+02 -0.38020425325E+03  0.38574251233E+03  0.00000000000E+00 0. -1.
        -15    1    3    3    0    0  0.54766711732E+01 -0.39826114029E+02  0.18334943565E+03  0.18771330951E+03  0.17770000000E+01 0. -1.
         15    1    3    3    0    0 -0.23770946479E+02  0.47063066767E+02  0.30035651435E+03  0.30495439592E+03  0.17770000000E+01 0.  1.
</event>
<event>
 7    1  0.6322078E-006  0.3492443E+03  0.7546771E-02  0.9819533E-01
        -11   -1    0    0    0    0  0.00000000000E+00  0.00000000000E+00  0.50000000000E+03  0.50000000000E+03  0.00000000000E+00 0. -1.
         11   -1    0    0    0    0 -0.00000000000E+00 -0.00000000000E+00 -0.50000000000E+03  0.50000000000E+03  0.00000000000E+00 0.  1.
         23    2    1    2    0    0  0.22132755393E+03  0.29666285047E+03  0.12208731854E+03  0.40024988691E+03  0.91103927721E+02 0.  0.
        -11    1    1    2    0    0 -0.12986126284E+03 -0.28248335299E+03  0.12561409998E+03  0.33532028632E+03  0.00000000000E+00 0. -1.
         11    1    1    2    0    0 -0.91466291084E+02 -0.14179497476E+02 -0.24770141852E+03  0.26442982677E+03  0.00000000000E+00 0.  1.
        -15    1    3    3    0    0  0.11916526617E+03  0.14709523294E+03  0.15195395220E+02  0.18992479032E+03  0.17770000000E+01 0.  1.
         15    1    3    3    0    0  0.10216228775E+03  0.14956761753E+03  0.10689192332E+03  0.21032509658E+03  0.17770000000E+01 0. -1.
</event>
<event>
 7    1  0.6322078E-006  0.3483368E+03  0.7546771E-02  0.9822716E-01
        -11   -1    0    0    0    0  0.00000000000E+00  0.00000000000E+00  0.50000000000E+03  0.50000000000E+03  0.00000000000E+00 0. -1.
         11   -1    0    0    0    0 -0.00000000000E+00 -0.00000000000E+00 -0.50000000000E+03  0.50000000000E+03  0.00000000000E+00 0. -1.
         23    2    1    2    0    0  0.18138119133E+03  0.63742157123E+02  0.26821734641E+03  0.34346744326E+03  0.95221533799E+02 0.  0.
        -11    1    1    2    0    0 -0.24170730438E+03 -0.20764014912E+01  0.11217787966E+03  0.26647815881E+03  0.00000000000E+00 0. -1.
         11    1    1    2    0    0  0.60326113050E+02 -0.61665755631E+02 -0.38039522607E+03  0.39005439794E+03  0.00000000000E+00 0. -1.
        -15    1    3    3    0    0  0.18347991571E+03  0.44363605369E+02  0.26201294835E+03  0.32293490332E+03  0.17770000000E+01 0. -1.
         15    1    3    3    0    0 -0.20987243750E+01  0.19378551753E+02  0.62043980595E+01  0.20532539939E+02  0.17770000000E+01 0.  1.
</event>
<event>
 7    1  0.6322078E-006  0.3524284E+03  0.7546771E-02  0.9808447E-01
        -11   -1    0    0    0    0  0.00000000000E+00  0.00000000000E+00  0.50000000000E+03  0.50000000000E+03  0.00000000000E+00 0.  1.
         11   -1    0    0    0    0 -0.00000000000E+00 -0.00000000000E+00 -0.50000000000E+03  0.50000000000E+03  0.00000000000E+00 0.  1.
         23    2    1    2    0    0 -0.10969543444E+03 -0.12546128650E+02  0.21156756750E+03  0.25583979283E+03  0.92209925136E+02 0.  0.
        -11    1    1    2    0    0  0.15985318033E+03 -0.53365492850E+02  0.23544270342E+03  0.28954132983E+03  0.00000000000E+00 0.  1.
         11    1    1    2    0    0 -0.50157745895E+02  0.65911621500E+02 -0.44701027092E+03  0.45461887734E+03  0.00000000000E+00 0.  1.
        -15    1    3    3    0    0 -0.31993135664E+02  0.38410933801E+02  0.60842405355E+02  0.78764945144E+02  0.17770000000E+01 0. -1.
         15    1    3    3    0    0 -0.77702298774E+02 -0.50957062451E+02  0.15072516215E+03  0.17707484768E+03  0.17770000000E+01 0.  1.
</event>
<event>
 7    1  0.6322078E-006  0.5221073E+03  0.7546771E-02  0.9351658E-01
        -11   -1    0    0    0    0  0.00000000000E+00  0.00000000000E+00  0.50000000000E+03  0.50000000000E+03  0.00000000000E+00 0. -1.
         11   -1    0    0    0    0 -0.00000000000E+00 -0.00000000000E+00 -0.50000000000E+03  0.50000000000E+03  0.00000000000E+00 0. -1.
         23    2    1    2    0    0 -0.13515542296E+03  0.81026440024E+01  0.25396477957E+03  0.29793723168E+03  0.77044425906E+02 0.  0.
        -11    1    1    2    0    0  0.40292703124E+02 -0.63765224741E+02  0.21109883456E+03  0.22417007776E+03  0.00000000000E+00 0. -1.
         11    1    1    2    0    0  0.94862719841E+02  0.55662580738E+02 -0.46506361412E+03  0.47789269056E+03  0.00000000000E+00 0. -1.
        -15    1    3    3    0    0 -0.95716890687E+01 -0.18528157694E+02  0.73773486638E+02  0.76685037125E+02  0.17770000000E+01 0.  1.
         15    1    3    3    0    0 -0.12558373390E+03  0.26630801697E+02  0.18019129293E+03  0.22125219455E+03  0.17770000000E+01 0. -1.
</event>
<event>
 7    1  0.6322078E-006  0.3670086E+03  0.7546771E-02  0.9759239E-01
        -11   -1    0    0    0    0  0.00000000000E+00  0.00000000000E+00  0.50000000000E+03  0.50000000000E+03  0.00000000000E+00 0.  1.
         11   -1    0    0    0    0 -0.00000000000E+00 -0.00000000000E+00 -0.50000000000E+03  0.50000000000E+03  0.00000000000E+00 0. -1.
         23    2    1    2    0    0 -0.20289654803E+03  0.19292655879E+03 -0.12887292684E+03  0.32044689793E+03  0.87694451546E+02 0.  0.
        -11    1    1    2    0    0  0.16423655814E+03 -0.18755434775E+03  0.36401161942E+03  0.44119693954E+03  0.00000000000E+00 0.  1.
         11    1    1    2    0    0  0.38659989884E+02 -0.53722110391E+01 -0.23513869257E+03  0.23835616253E+03  0.00000000000E+00 0. -1.
        -15    1    3    3    0    0 -0.11470657481E+03  0.12550659801E+03 -0.12187502907E+03  0.20920369235E+03  0.17770000000E+01 0. -1.
         15    1    3    3    0    0 -0.88189973212E+02  0.67419960780E+02 -0.69978977699E+01  0.11124320559E+03  0.17770000000E+01 0.  1.
</event>
<event>
 7    1  0.6322078E-006  0.5198533E+03  0.7546771E-02  0.9356450E-01
        -11   -1    0    0    0    0  0.00000000000E+00  0.00000000000E+00  0.50000000000E+03  0.50000000000E+03  0.00000000000E+00 0.  1.
         11   -1    0    0    0    0 -0.00000000000E+00 -0.00000000000E+00 -0.50000000000E+03  0.50000000000E+03  0.00000000000E+00 0. -1.
         23    2    1    2    0    0 -0.59053301640E+02  0.59664392756E+02  0.38722324056E+03  0.40635522867E+03  0.90197570052E+02 0.  0.
        -11    1    1    2    0    0 -0.19247101358E+02 -0.71088732428E+02  0.86358239465E+02  0.11349803660E+03  0.00000000000E+00 0.  1.
         11    1    1    2    0    0  0.78300402998E+02  0.11424339672E+02 -0.47358148002E+03  0.48014673473E+03  0.00000000000E+00 0. -1.
        -15    1    3    3    0    0  0.13748268838E+02  0.38907382675E+02  0.81181863091E+02  0.91084861238E+02  0.17770000000E+01 0. -1.
         15    1    3    3    0    0 -0.72801570478E+02  0.20757010081E+02  0.30604137747E+03  0.31527036744E+03  0.17770000000E+01 0.  1.
</event>
<event>
 7    1  0.6322078E-006  0.5344703E+03  0.7546771E-02  0.9325820E-01
        -11   -1    0    0    0    0  0.00000000000E+00  0.00000000000E+00  0.50000000000E+03  0.50000000000E+03  0.00000000000E+00 0. -1.
         11   -1    0    0    0    0 -0.00000000000E+00 -0.00000000000E+00 -0.50000000000E+03  0.50000000000E+03  0.00000000000E+00 0. -1.
         23    2    1    2    0    0  0.27932772406E+02  0.98323862260E+02  0.33426843755E+03  0.36067486859E+03  0.88899667170E+02 0.  0.
        -11    1    1    2    0    0  0.13784776167E+03 -0.42129087749E+02  0.97097830840E+02  0.17379543776E+03  0.00000000000E+00 0. -1.
         11    1    1    2    0    0 -0.16578053408E+03 -0.56194774511E+02 -0.43136626839E+03  0.46552969365E+03  0.00000000000E+00 0. -1.
        -15    1    3    3    0    0 -0.16231108696E+02  0.69001932797E+02  0.11517371898E+03  0.13525109572E+03  0.17770000000E+01 0.  1.
         15    1    3    3    0    0  0.44163881102E+02  0.29321929463E+02  0.21909471857E+03  0.22542377287E+03  0.17770000000E+01 0. -1.
</event>
<event>
 7    1  0.6322078E-006  0.5356577E+03  0.7546771E-02  0.9323378E-01
        -11   -1    0    0    0    0  0.00000000000E+00  0.00000000000E+00  0.50000000000E+03  0.50000000000E+03  0.00000000000E+00 0. -1.
         11   -1    0    0    0    0 -0.00000000000E+00 -0.00000000000E+00 -0.50000000000E+03  0.50000000000E+03  0.00000000000E+00 0.  1.
         23    2    1    2    0    0 -0.51531217535E+02  0.51679531370E+02  0.29891357582E+03  0.32250209415E+03  0.96602456384E+02 0.  0.
        -11    1    1    2    0    0  0.14746270056E+03  0.61539997197E+02  0.14107762269E+03  0.21315561201E+03  0.00000000000E+00 0. -1.
         11    1    1    2    0    0 -0.95931483022E+02 -0.11321952857E+03 -0.43999119850E+03  0.46434229384E+03  0.00000000000E+00 0.  1.
        -15    1    3    3    0    0 -0.45268441474E+02  0.12542589345E+02  0.26830710257E+03  0.27239384604E+03  0.17770000000E+01 0. -1.
         15    1    3    3    0    0 -0.62627760609E+01  0.39136942025E+02  0.30606473246E+02  0.50108248110E+02  0.17770000000E+01 0.  1.
</event>
<event>
 7    1  0.6322078E-006  0.5237920E+03  0.7546771E-02  0.9348093E-01
        -11   -1    0    0    0    0  0.00000000000E+00  0.00000000000E+00  0.50000000000E+03  0.50000000000E+03  0.00000000000E+00 0.  1.
         11   -1    0    0    0    0 -0.00000000000E+00 -0.00000000000E+00 -0.50000000000E+03  0.50000000000E+03  0.00000000000E+00 0. -1.
         23    2    1    2    0    0  0.80955596628E+02 -0.13528953686E+02 -0.23952987512E+03  0.26909092498E+03  0.91096232729E+02 0.  0.
        -11    1    1    2    0    0 -0.16817400023E+03 -0.14026566458E+03  0.42286776581E+03  0.47620804107E+03  0.00000000000E+00 0.  1.
         11    1    1    2    0    0  0.87218403606E+02  0.15379461827E+03 -0.18333789069E+03  0.25470103396E+03  0.00000000000E+00 0. -1.
        -15    1    3    3    0    0  0.23731549871E+02  0.19971901608E+02 -0.14124806023E+02  0.34128158276E+02  0.17770000000E+01 0.  1.
         15    1    3    3    0    0  0.57224046757E+02 -0.33500855295E+02 -0.22540506910E+03  0.23496276670E+03  0.17770000000E+01 0. -1.
</event>
<event>
 7    1  0.6322078E-006  0.5292177E+03  0.7546771E-02  0.9336706E-01
        -11   -1    0    0    0    0  0.00000000000E+00  0.00000000000E+00  0.50000000000E+03  0.50000000000E+03  0.00000000000E+00 0. -1.
         11   -1    0    0    0    0 -0.00000000000E+00 -0.00000000000E+00 -0.50000000000E+03  0.50000000000E+03  0.00000000000E+00 0.  1.
         23    2    1    2    0    0 -0.39089949963E+02  0.11012691235E+03 -0.17144436052E+03  0.23047664837E+03  0.10035116182E+03 0.  0.
        -11    1    1    2    0    0 -0.12373279523E+03 -0.24343156847E+03  0.38349348424E+03  0.47078231232E+03  0.00000000000E+00 0. -1.
         11    1    1    2    0    0  0.16282274520E+03  0.13330465612E+03 -0.21204912372E+03  0.29874103931E+03  0.00000000000E+00 0.  1.
        -15    1    3    3    0    0 -0.85865369608E+00 -0.13542953646E+02 -0.53924087874E+02  0.55633747507E+02  0.17770000000E+01 0.  1.
         15    1    3    3    0    0 -0.38231296267E+02  0.12366986600E+03 -0.11752027264E+03  0.17484290086E+03  0.17770000000E+01 0. -1.
</event>
<event>
 7    1  0.6322078E-006  0.4185481E+03  0.7546771E-02  0.9603131E-01
        -11   -1    0    0    0    0  0.00000000000E+00  0.00000000000E+00  0.50000000000E+03  0.50000000000E+03  0.00000000000E+00 0.  1.
         11   -1    0    0    0    0 -0.00000000000E+00 -0.00000000000E+00 -0.50000000000E+03  0.50000000000E+03  0.00000000000E+00 0.  1.
         23    2    1    2    0    0  0.65559001212E+01  0.59856368523E+02  0.37542057916E+03  0.39137181085E+03  0.92765933375E+02 0.  0.
        -11    1    1    2    0    0 -0.12967724854E+03 -0.70138290205E+02  0.57633414224E+02  0.15829459554E+03  0.00000000000E+00 0.  1.
         11    1    1    2    0    0  0.12312134842E+03  0.10281921682E+02 -0.43305399338E+03  0.45033359361E+03  0.00000000000E+00 0.  1.
        -15    1    3    3    0    0 -0.42955432404E+02  0.23197839064E+02  0.17481398713E+03  0.18151142315E+03  0.17770000000E+01 0. -1.
         15    1    3    3    0    0  0.49511332525E+02  0.36658529459E+02  0.20060659203E+03  0.20986038770E+03  0.17770000000E+01 0.  1.
</event>
<event>
 7    1  0.6322078E-006  0.4458592E+03  0.7546771E-02  0.9529834E-01
        -11   -1    0    0    0    0  0.00000000000E+00  0.00000000000E+00  0.50000000000E+03  0.50000000000E+03  0.00000000000E+00 0.  1.
         11   -1    0    0    0    0 -0.00000000000E+00 -0.00000000000E+00 -0.50000000000E+03  0.50000000000E+03  0.00000000000E+00 0. -1.
         23    2    1    2    0    0 -0.62413087740E+02 -0.29707910289E+01  0.11048975548E+02  0.10602681086E+03  0.84943426109E+02 0.  0.
        -11    1    1    2    0    0  0.12431069019E+03 -0.89181123489E+02  0.42097580711E+03  0.44791411080E+03  0.00000000000E+00 0.  1.
         11    1    1    2    0    0 -0.61897602448E+02  0.92151914518E+02 -0.43202478266E+03  0.44605907834E+03  0.00000000000E+00 0. -1.
        -15    1    3    3    0    0 -0.27331395999E+02 -0.35754034042E+01  0.47786323777E+02  0.55194919928E+02  0.17770000000E+01 0. -1.
         15    1    3    3    0    0 -0.35081691742E+02  0.60461237532E+00 -0.36737348229E+02  0.50831890929E+02  0.17770000000E+01 0.  1.
</event>
<event>
 7    1  0.6322078E-006  0.3585382E+03  0.7546771E-02  0.9787522E-01
        -11   -1    0    0    0    0  0.00000000000E+00  0.00000000000E+00  0.50000000000E+03  0.50000000000E+03  0.00000000000E+00 0. -1.
         11   -1    0    0    0    0 -0.00000000000E+00 -0.00000000000E+00 -0.50000000000E+03  0.50000000000E+03  0.00000000000E+00 0. -1.
         23    2    1    2    0    0 -0.35288495484E+02  0.80266868799E+02  0.41310011909E+03  0.43367590181E+03  0.98666262095E+02 0.  0.
        -11    1    1    2    0    0  0.20279938896E+03 -0.58040008199E+01 -0.23912124831E+03  0.31359249031E+03  0.00000000000E+00 0. -1.
         11    1    1    2    0    0 -0.16751089347E+03 -0.74462867979E+02 -0.17397887078E+03  0.25273160788E+03  0.00000000000E+00 0. -1.
        -15    1    3    3    0    0 -0.54637940446E+02  0.80693972409E+02  0.39590298392E+03  0.40772435802E+03  0.17770000000E+01 0. -1.
         15    1    3    3    0    0  0.19349444962E+02 -0.42710361070E+00  0.17197135175E+02  0.25951543789E+02  0.17770000000E+01 0.  1.
</event>
<event>
 7    1  0.6322078E-006  0.5198368E+03  0.7546771E-02  0.9356485E-01
        -11   -1    0    0    0    0  0.00000000000E+00  0.00000000000E+00  0.50000000000E+03  0.50000000000E+03  0.00000000000E+00 0.  1.
         11   -1    0    0    0    0 -0.00000000000E+00 -0.00000000000E+00 -0.50000000000E+03  0.50000000000E+03  0.00000000000E+00 0.  1.
         23    2    1    2    0    0 -0.26074747342E+02 -0.78618911466E+02 -0.25117194410E+03  0.27935677119E+03  0.89955735892E+02 0.  0.
        -11    1    1    2    0    0 -0.73397914114E+02  0.21297974887E+03  0.42403897297E+03  0.48016317833E+03  0.00000000000E+00 0.  1.
         11    1    1    2    0    0  0.99472661456E+02 -0.13436083741E+03 -0.17286702888E+03  0.24048005048E+03  0.00000000000E+00 0.  1.
        -15    1    3    3    0    0 -0.23558872919E+02 -0.29816084094E+01 -0.87162745733E+01  0.25358265977E+02  0.17770000000E+01 0. -1.
         15    1    3    3    0    0 -0.25158744228E+01 -0.75637303057E+02 -0.24245566952E+03  0.25399850521E+03  0.17770000000E+01 0.  1.
</event>
<event>
 7    1  0.6322078E-006  0.5425165E+03  0.7546771E-02  0.9309399E-01
        -11   -1    0    0    0    0  0.00000000000E+00  0.00000000000E+00  0.50000000000E+03  0.50000000000E+03  0.00000000000E+00 0.  1.
         11   -1    0    0    0    0 -0.00000000000E+00 -0.00000000000E+00 -0.50000000000E+03  0.50000000000E+03  0.00000000000E+00 0. -1.
         23    2    1    2    0    0 -0.62375651794E+02 -0.94248302558E+02 -0.13845164324E+03  0.20338730831E+03  0.97077676092E+02 0.  0.
        -11    1    1    2    0    0  0.77951281737E+02 -0.41374443156E+02  0.44889078155E+03  0.45748353045E+03  0.00000000000E+00 0.  1.
         11    1    1    2    0    0 -0.15575629943E+02  0.13562274571E+03 -0.31043913832E+03  0.33912916124E+03  0.00000000000E+00 0. -1.
        -15    1    3    3    0    0 -0.26819294860E+02 -0.40889479811E+02  0.20083554762E+01  0.48973618988E+02  0.17770000000E+01 0.  1.
         15    1    3    3    0    0 -0.35556356934E+02 -0.53358822747E+02 -0.14045999871E+03  0.15441368932E+03  0.17770000000E+01 0. -1.
</event>
<event>
 7    1  0.6322078E-006  0.5370022E+03  0.7546771E-02  0.9320620E-01
        -11   -1    0    0    0    0  0.00000000000E+00  0.00000000000E+00  0.50000000000E+03  0.50000000000E+03  0.00000000000E+00 0.  1.
         11   -1    0    0    0    0 -0.00000000000E+00 -0.00000000000E+00 -0.50000000000E+03  0.50000000000E+03  0.00000000000E+00 0. -1.
         23    2    1    2    0    0 -0.16364574062E+02  0.19618253501E+02 -0.30907993101E+02  0.10006152036E+03  0.91675125657E+02 0.  0.
        -11    1    1    2    0    0 -0.15906582147E+03 -0.10757539365E+03  0.42129866222E+03  0.46299780093E+03  0.00000000000E+00 0.  1.
         11    1    1    2    0    0  0.17543039553E+03  0.87957140149E+02 -0.39039066912E+03  0.43694067871E+03  0.00000000000E+00 0. -1.
        -15    1    3    3    0    0 -0.11413860367E+02 -0.20679407927E+02  0.22688297642E+02  0.32799858225E+02  0.17770000000E+01 0.  1.
         15    1    3    3    0    0 -0.49507136950E+01  0.40297661427E+02 -0.53596290742E+02  0.67261662133E+02  0.17770000000E+01 0. -1.
</event>
<event>
 7    1  0.6322078E-006  0.5320252E+03  0.7546771E-02  0.9330871E-01
        -11   -1    0    0    0    0  0.00000000000E+00  0.00000000000E+00  0.50000000000E+03  0.50000000000E+03  0.00000000000E+00 0.  1.
         11   -1    0    0    0    0 -0.00000000000E+00 -0.00000000000E+00 -0.50000000000E+03  0.50000000000E+03  0.00000000000E+00 0. -1.
         23    2    1    2    0    0  0.38548089416E+02 -0.32563382671E+02  0.17799721767E+03  0.20587149420E+03  0.90298026201E+02 0.  0.
        -11    1    1    2    0    0 -0.18112561144E+03  0.44447735024E+02  0.26757079641E+03  0.32615367445E+03  0.00000000000E+00 0.  1.
         11    1    1    2    0    0  0.14257752202E+03 -0.11884352353E+02 -0.44556801407E+03  0.46797483136E+03  0.00000000000E+00 0. -1.
        -15    1    3    3    0    0  0.39817619426E+02 -0.56934079541E+02  0.85450393060E+02  0.11014472131E+03  0.17770000000E+01 0. -1.
         15    1    3    3    0    0 -0.12695300104E+01  0.24370696869E+02  0.92546824609E+02  0.95726772883E+02  0.17770000000E+01 0.  1.
</event>
<event>
 7    1  0.6322078E-006  0.4615774E+03  0.7546771E-02  0.9490141E-01
        -11   -1    0    0    0    0  0.00000000000E+00  0.00000000000E+00  0.50000000000E+03  0.50000000000E+03  0.00000000000E+00 0.  1.
         11   -1    0    0    0    0 -0.00000000000E+00 -0.00000000000E+00 -0.50000000000E+03  0.50000000000E+03  0.00000000000E+00 0.  1.
         23    2    1    2    0    0  0.10674271153E+02 -0.41009456428E+02  0.43501317585E+03  0.44641163186E+03  0.90835930768E+02 0.  0.
        -11    1    1    2    0    0  0.77361837915E+02 -0.11876627790E+02  0.25067589812E+02  0.82184501655E+02  0.00000000000E+00 0.  1.
         11    1    1    2    0    0 -0.88036109069E+02  0.52886084218E+02 -0.46008076566E+03  0.47140386648E+03  0.00000000000E+00 0.  1.
        -15    1    3    3    0    0  0.47045344582E+02 -0.41117614684E+02  0.23861779247E+03  0.24666886974E+03  0.17770000000E+01 0.  1.
         15    1    3    3    0    0 -0.36371073429E+02  0.10815825627E+00  0.19639538338E+03  0.19974276212E+03  0.17770000000E+01 0. -1.
</event>
<event>
 7    1  0.6322078E-006  0.5247143E+03  0.7546771E-02  0.9346147E-01
        -11   -1    0    0    0    0  0.00000000000E+00  0.00000000000E+00  0.50000000000E+03  0.50000000000E+03  0.00000000000E+00 0.  1.
         11   -1    0    0    0    0 -0.00000000000E+00 -0.00000000000E+00 -0.50000000000E+03  0.50000000000E+03  0.00000000000E+00 0.  1.
         23    2    1    2    0    0  0.26885065596E+02  0.17737904979E+03 -0.24857579872E+03  0.32091757410E+03  0.94931699645E+02 0.  0.
        -11    1    1    2    0    0 -0.84547875007E+02 -0.15184552730E+03  0.44236986696E+03  0.47528571041E+03  0.00000000000E+00 0.  1.
         11    1    1    2    0    0  0.57662809411E+02 -0.25533522494E+02 -0.19379406823E+03  0.20379671549E+03  0.00000000000E+00 0.  1.
        -15    1    3    3    0    0 -0.13663981893E+02  0.14944925652E+03 -0.21110710860E+03  0.25901960100E+03  0.17770000000E+01 0.  1.
         15    1    3    3    0    0  0.40549047489E+02  0.27929793277E+02 -0.37468690127E+02  0.61897973098E+02  0.17770000000E+01 0. -1.
</event>
<event>
 7    1  0.6322078E-006  0.4463998E+03  0.7546771E-02  0.9528440E-01
        -11   -1    0    0    0    0  0.00000000000E+00  0.00000000000E+00  0.50000000000E+03  0.50000000000E+03  0.00000000000E+00 0.  1.
         11   -1    0    0    0    0 -0.00000000000E+00 -0.00000000000E+00 -0.50000000000E+03  0.50000000000E+03  0.00000000000E+00 0.  1.
         23    2    1    2    0    0  0.13797980960E+02 -0.71027146144E+00  0.41865097959E+03  0.42791960156E+03  0.87496593805E+02 0.  0.
        -11    1    1    2    0    0 -0.29249120392E+02  0.99743289910E+02  0.33300947319E+02  0.10914755159E+03  0.00000000000E+00 0.  1.
         11    1    1    2    0    0  0.15451139432E+02 -0.99033018449E+02 -0.45195192691E+03  0.46293284685E+03  0.00000000000E+00 0.  1.
        -15    1    3    3    0    0 -0.26674843925E+02  0.27805849493E+02  0.16178943814E+03  0.16632405895E+03  0.17770000000E+01 0.  1.
         15    1    3    3    0    0  0.40472824885E+02 -0.28516120954E+02  0.25686154145E+03  0.26159554261E+03  0.17770000000E+01 0. -1.
</event>
<event>
 7    1  0.6322078E-006  0.3249870E+03  0.7546771E-02  0.9908378E-01
        -11   -1    0    0    0    0  0.00000000000E+00  0.00000000000E+00  0.50000000000E+03  0.50000000000E+03  0.00000000000E+00 0. -1.
         11   -1    0    0    0    0 -0.00000000000E+00 -0.00000000000E+00 -0.50000000000E+03  0.50000000000E+03  0.00000000000E+00 0.  1.
         23    2    1    2    0    0  0.25828865582E+03  0.47679948582E+02  0.92098205065E+02  0.29293937137E+03  0.91350909709E+02 0.  0.
        -11    1    1    2    0    0 -0.12299808769E+03  0.10653887006E+03  0.25580481283E+03  0.30317513532E+03  0.00000000000E+00 0. -1.
         11    1    1    2    0    0 -0.13529056812E+03 -0.15421881864E+03 -0.34790301789E+03  0.40388549331E+03  0.00000000000E+00 0.  1.
        -15    1    3    3    0    0  0.22640174327E+03  0.35002588581E+02  0.11006377134E+03  0.25416554065E+03  0.17770000000E+01 0.  1.
         15    1    3    3    0    0  0.31886912548E+02  0.12677360000E+02 -0.17965566277E+02  0.38773830725E+02  0.17770000000E+01 0. -1.
</event>
<event>
 7    1  0.6322078E-006  0.5363407E+03  0.7546771E-02  0.9321976E-01
        -11   -1    0    0    0    0  0.00000000000E+00  0.00000000000E+00  0.50000000000E+03  0.50000000000E+03  0.00000000000E+00 0. -1.
         11   -1    0    0    0    0 -0.00000000000E+00 -0.00000000000E+00 -0.50000000000E+03  0.50000000000E+03  0.00000000000E+00 0.  1.
         23    2    1    2    0    0 -0.16195531559E+03 -0.29180840598E+02 -0.18714284069E+03  0.26518226425E+03  0.90653983648E+02 0.  0.
        -11    1    1    2    0    0  0.10021051306E+03  0.39457987042E+02  0.45097771208E+03  0.46365933233E+03  0.00000000000E+00 0. -1.
         11    1    1    2    0    0  0.61744802520E+02 -0.10277146443E+02 -0.26383487139E+03  0.27115840341E+03  0.00000000000E+00 0.  1.
        -15    1    3    3    0    0 -0.14688717936E+03 -0.34343082838E+02 -0.11080339124E+03  0.18717863136E+03  0.17770000000E+01 0.  1.
         15    1    3    3    0    0 -0.15068136228E+02  0.51622422402E+01 -0.76339449444E+02  0.78003632895E+02  0.17770000000E+01 0. -1.
</event>
<event>
 7    1  0.6322078E-006  0.4192512E+03  0.7546771E-02  0.9601170E-01
        -11   -1    0    0    0    0  0.00000000000E+00  0.00000000000E+00  0.50000000000E+03  0.50000000000E+03  0.00000000000E+00 0.  1.
         11   -1    0    0    0    0 -0.00000000000E+00 -0.00000000000E+00 -0.50000000000E+03  0.50000000000E+03  0.00000000000E+00 0. -1.
         23    2    1    2    0    0 -0.51362139686E+02 -0.58564399273E+02  0.95695986238E+02  0.15246714217E+03  0.89558078377E+02 0.  0.
        -11    1    1    2    0    0  0.42199619166E+02  0.22704642089E+03  0.32245578549E+03  0.39662150558E+03  0.00000000000E+00 0.  1.
         11    1    1    2    0    0  0.91625205196E+01 -0.16848202162E+03 -0.41815177173E+03  0.45091135225E+03  0.00000000000E+00 0. -1.
        -15    1    3    3    0    0  0.82244404347E+01 -0.56988929129E+02  0.58936456093E+02  0.82413852292E+02  0.17770000000E+01 0.  1.
         15    1    3    3    0    0 -0.59586580121E+02 -0.15754701442E+01  0.36759530144E+02  0.70053289873E+02  0.17770000000E+01 0. -1.
</event>
<event>
 7    1  0.6322078E-006  0.5135591E+03  0.7546771E-02  0.9369971E-01
        -11   -1    0    0    0    0  0.00000000000E+00  0.00000000000E+00  0.50000000000E+03  0.50000000000E+03  0.00000000000E+00 0.  1.
         11   -1    0    0    0    0 -0.00000000000E+00 -0.00000000000E+00 -0.50000000000E+03  0.50000000000E+03  0.00000000000E+00 0. -1.
         23    2    1    2    0    0  0.11187449858E+02  0.81247683407E+02 -0.13625655047E+03  0.18387965786E+03  0.92301332255E+02 0.  0.
        -11    1    1    2    0    0 -0.79165956721E+02 -0.20163869781E+03  0.43554483984E+03  0.48644087068E+03  0.00000000000E+00 0.  1.
         11    1    1    2    0    0  0.67978506863E+02  0.12039101440E+03 -0.29928828937E+03  0.32967947146E+03  0.00000000000E+00 0. -1.
        -15    1    3    3    0    0  0.37631186213E+02  0.18446818197E+02 -0.14575979472E+02  0.44407298769E+02  0.17770000000E+01 0.  1.
         15    1    3    3    0    0 -0.26443736355E+02  0.62800865209E+02 -0.12168057100E+03  0.13947235909E+03  0.17770000000E+01 0. -1.
</event>
<event>
 7    1  0.6322078E-006  0.5131869E+03  0.7546771E-02  0.9370777E-01
        -11   -1    0    0    0    0  0.00000000000E+00  0.00000000000E+00  0.50000000000E+03  0.50000000000E+03  0.00000000000E+00 0.  1.
         11   -1    0    0    0    0 -0.00000000000E+00 -0.00000000000E+00 -0.50000000000E+03  0.50000000000E+03  0.00000000000E+00 0. -1.
         23    2    1    2    0    0  0.32505479816E+02  0.55912651867E+02  0.20220086960E+03  0.23008843972E+03  0.88728054012E+02 0.  0.
        -11    1    1    2    0    0  0.12370046510E+03  0.71046026834E+01  0.25454361978E+03  0.28309845428E+03  0.00000000000E+00 0.  1.
         11    1    1    2    0    0 -0.15620594492E+03 -0.63017254551E+02 -0.45674448938E+03  0.48681310600E+03  0.00000000000E+00 0. -1.
        -15    1    3    3    0    0 -0.13486051820E+01  0.67367637391E+02  0.90817571547E+02  0.11309821543E+03  0.17770000000E+01 0. -1.
         15    1    3    3    0    0  0.33854084998E+02 -0.11454985524E+02  0.11138329805E+03  0.11699022428E+03  0.17770000000E+01 0.  1.
</event>
<event>
 7    1  0.6322078E-006  0.5268157E+03  0.7546771E-02  0.9341729E-01
        -11   -1    0    0    0    0  0.00000000000E+00  0.00000000000E+00  0.50000000000E+03  0.50000000000E+03  0.00000000000E+00 0. -1.
         11   -1    0    0    0    0 -0.00000000000E+00 -0.00000000000E+00 -0.50000000000E+03  0.50000000000E+03  0.00000000000E+00 0.  1.
         23    2    1    2    0    0  0.37814632743E+02  0.34268652052E+01  0.34638771515E+03  0.36018470506E+03  0.91142101672E+02 0.  0.
        -11    1    1    2    0    0  0.97916586601E+02  0.94445774934E+02  0.96219719123E+02  0.16663101957E+03  0.00000000000E+00 0. -1.
         11    1    1    2    0    0 -0.13573121934E+03 -0.97872640139E+02 -0.44260743427E+03  0.47318427538E+03  0.00000000000E+00 0.  1.
        -15    1    3    3    0    0  0.18457931158E+02  0.40535883378E+02  0.26422537557E+03  0.26795906383E+03  0.17770000000E+01 0. -1.
         15    1    3    3    0    0  0.19356701585E+02 -0.37109018173E+02  0.82162339572E+02  0.92225641223E+02  0.17770000000E+01 0.  1.
</event>
<event>
 7    1  0.6322078E-006  0.4419084E+03  0.7546771E-02  0.9540086E-01
        -11   -1    0    0    0    0  0.00000000000E+00  0.00000000000E+00  0.50000000000E+03  0.50000000000E+03  0.00000000000E+00 0. -1.
         11   -1    0    0    0    0 -0.00000000000E+00 -0.00000000000E+00 -0.50000000000E+03  0.50000000000E+03  0.00000000000E+00 0.  1.
         23    2    1    2    0    0 -0.30293781294E+02  0.55039592807E+02 -0.31859167310E+02  0.11338050273E+03  0.88842905712E+02 0.  0.
        -11    1    1    2    0    0 -0.33100724646E+03 -0.72898520184E+00  0.28934505010E+03  0.43964404539E+03  0.00000000000E+00 0. -1.
         11    1    1    2    0    0  0.36130102775E+03 -0.54310607605E+02 -0.25748588279E+03  0.44697545189E+03  0.00000000000E+00 0.  1.
        -15    1    3    3    0    0 -0.45151090810E+02  0.32253268768E+01 -0.37962824474E+02  0.59104631847E+02  0.17770000000E+01 0.  1.
         15    1    3    3    0    0  0.14857309516E+02  0.51814265930E+02  0.61036571637E+01  0.54275870879E+02  0.17770000000E+01 0. -1.
</event>
<event>
 7    1  0.6322078E-006  0.5002232E+03  0.7546771E-02  0.9399311E-01
        -11   -1    0    0    0    0  0.00000000000E+00  0.00000000000E+00  0.50000000000E+03  0.50000000000E+03  0.00000000000E+00 0.  1.
         11   -1    0    0    0    0 -0.00000000000E+00 -0.00000000000E+00 -0.50000000000E+03  0.50000000000E+03  0.00000000000E+00 0. -1.
         23    2    1    2    0    0  0.72671927717E+02 -0.11411073812E+03  0.47506149054E+03  0.50022315406E+03  0.78976670203E+02 0.  0.
        -11    1    1    2    0    0 -0.65708351229E+02  0.12506620631E+03 -0.44828170141E+03  0.47001662438E+03  0.00000000000E+00 0. -1.
         11    1    1    2    0    0 -0.69635764878E+01 -0.10955468190E+02 -0.26779789134E+02  0.29760221552E+02  0.00000000000E+00 0.  1.
        -15    1    3    3    0    0  0.13213244861E+02 -0.53311532193E+02  0.30681548398E+03  0.31169794392E+03  0.17770000000E+01 0. -1.
         15    1    3    3    0    0  0.59458682856E+02 -0.60799205922E+02  0.16824600656E+03  0.18852521014E+03  0.17770000000E+01 0.  1.
</event>
<event>
 7    1  0.6322078E-006  0.5312813E+03  0.7546771E-02  0.9332413E-01
        -11   -1    0    0    0    0  0.00000000000E+00  0.00000000000E+00  0.50000000000E+03  0.50000000000E+03  0.00000000000E+00 0.  1.
         11   -1    0    0    0    0 -0.00000000000E+00 -0.00000000000E+00 -0.50000000000E+03  0.50000000000E+03  0.00000000000E+00 0. -1.
         23    2    1    2    0    0  0.83605943560E+02  0.45784685317E+02 -0.13235306803E+03  0.19534202907E+03  0.10749410446E+03 0.  0.
        -11    1    1    2    0    0 -0.15279396089E+03  0.81037457278E+02  0.43564226468E+03  0.46871872881E+03  0.00000000000E+00 0.  1.
         11    1    1    2    0    0  0.69188017327E+02 -0.12682214259E+03 -0.30328919665E+03  0.33593924212E+03  0.00000000000E+00 0. -1.
        -15    1    3    3    0    0  0.10821957127E+03  0.31971293193E+02 -0.89688888661E+02  0.14415579653E+03  0.17770000000E+01 0. -1.
         15    1    3    3    0    0 -0.24613627711E+02  0.13813392124E+02 -0.42664179370E+02  0.51186232538E+02  0.17770000000E+01 0.  1.
</event>
<event>
 7    1  0.6322078E-006  0.3601343E+03  0.7546771E-02  0.9782129E-01
        -11   -1    0    0    0    0  0.00000000000E+00  0.00000000000E+00  0.50000000000E+03  0.50000000000E+03  0.00000000000E+00 0.  1.
         11   -1    0    0    0    0 -0.00000000000E+00 -0.00000000000E+00 -0.50000000000E+03  0.50000000000E+03  0.00000000000E+00 0. -1.
         23    2    1    2    0    0 -0.10685461997E+03  0.42924012690E+02  0.19616058858E+03  0.24466807327E+03  0.90128291279E+02 0.  0.
        -11    1    1    2    0    0  0.11191496972E+03 -0.11991174083E+03  0.25194498620E+03  0.30063276951E+03  0.00000000000E+00 0.  1.
         11    1    1    2    0    0 -0.50603497465E+01  0.76987728145E+02 -0.44810557478E+03  0.45469915722E+03  0.00000000000E+00 0. -1.
        -15    1    3    3    0    0 -0.63538324112E+02 -0.21426013638E+02  0.10889383904E+03  0.12789534238E+03  0.17770000000E+01 0.  1.
         15    1    3    3    0    0 -0.43316295860E+02  0.64350026328E+02  0.87266749543E+02  0.11677273089E+03  0.17770000000E+01 0. -1.
</event>
<event>
 7    1  0.6322078E-006  0.5185628E+03  0.7546771E-02  0.9359206E-01
        -11   -1    0    0    0    0  0.00000000000E+00  0.00000000000E+00  0.50000000000E+03  0.50000000000E+03  0.00000000000E+00 0.  1.
         11   -1    0    0    0    0 -0.00000000000E+00 -0.00000000000E+00 -0.50000000000E+03  0.50000000000E+03  0.00000000000E+00 0. -1.
         23    2    1    2    0    0 -0.51249418561E+01  0.11279432703E+03  0.31957706778E+03  0.35320207879E+03  0.99364888006E+02 0.  0.
        -11    1    1    2    0    0 -0.39907508207E+02 -0.42914611624E+02  0.15462824782E+03  0.16536072123E+03  0.00000000000E+00 0.  1.
         11    1    1    2    0    0  0.45032450064E+02 -0.69879715408E+02 -0.47420531560E+03  0.48143719998E+03  0.00000000000E+00 0. -1.
        -15    1    3    3    0    0 -0.13000326888E+02  0.39974226332E+02  0.23492222265E+02  0.48187026325E+02  0.17770000000E+01 0. -1.
         15    1    3    3    0    0  0.78753850322E+01  0.72820100700E+02  0.29608484552E+03  0.30501505246E+03  0.17770000000E+01 0.  1.
</event>
<event>
 7    1  0.6322078E-006  0.3879776E+03  0.7546771E-02  0.9692606E-01
        -11   -1    0    0    0    0  0.00000000000E+00  0.00000000000E+00  0.50000000000E+03  0.50000000000E+03  0.00000000000E+00 0.  1.
         11   -1    0    0    0    0 -0.00000000000E+00 -0.00000000000E+00 -0.50000000000E+03  0.50000000000E+03  0.00000000000E+00 0. -1.
         23    2    1    2    0    0  0.15342842817E+03  0.17155613452E+03  0.39400247205E+03  0.46441503181E+03  0.86438324448E+02 0.  0.
        -11    1    1    2    0    0 -0.44831215862E+02 -0.18340941911E+03 -0.83542338889E+02  0.20646591806E+03  0.00000000000E+00 0.  1.
         11    1    1    2    0    0 -0.10859721230E+03  0.11853284585E+02 -0.31046013316E+03  0.32911905013E+03  0.00000000000E+00 0. -1.
        -15    1    3    3    0    0  0.16458384151E+02 -0.70972649361E+01  0.14327383501E+02  0.23014804484E+02  0.17770000000E+01 0. -1.
         15    1    3    3    0    0  0.13697004402E+03  0.17865339946E+03  0.37967508855E+03  0.44140022733E+03  0.17770000000E+01 0.  1.
</event>
<event>
 7    1  0.6322078E-006  0.5130535E+03  0.7546771E-02  0.9371066E-01
        -11   -1    0    0    0    0  0.00000000000E+00  0.00000000000E+00  0.50000000000E+03  0.50000000000E+03  0.00000000000E+00 0. -1.
         11   -1    0    0    0    0 -0.00000000000E+00 -0.00000000000E+00 -0.50000000000E+03  0.50000000000E+03  0.00000000000E+00 0.  1.
         23    2    1    2    0    0  0.22869176188E+02  0.34354974068E+01  0.16837469416E+03  0.18900871415E+03  0.82700994726E+02 0.  0.
        -11    1    1    2    0    0 -0.97472658700E+01 -0.94544412071E+02  0.30979248520E+03  0.32404481007E+03  0.00000000000E+00 0. -1.
         11    1    1    2    0    0 -0.13121910318E+02  0.91108914664E+02 -0.47816717936E+03  0.48694647578E+03  0.00000000000E+00 0.  1.
        -15    1    3    3    0    0 -0.74365667101E+00  0.25927639053E+02  0.14854031948E+03  0.15079847391E+03  0.17770000000E+01 0.  1.
         15    1    3    3    0    0  0.23612832859E+02 -0.22492141646E+02  0.19834374680E+02  0.38210240243E+02  0.17770000000E+01 0. -1.
</event>
<event>
 7    1  0.6322078E-006  0.4121562E+03  0.7546771E-02  0.9621150E-01
        -11   -1    0    0    0    0  0.00000000000E+00  0.00000000000E+00  0.50000000000E+03  0.50000000000E+03  0.00000000000E+00 0.  1.
         11   -1    0    0    0    0 -0.00000000000E+00 -0.00000000000E+00 -0.50000000000E+03  0.50000000000E+03  0.00000000000E+00 0. -1.
         23    2    1    2    0    0  0.51058442976E+02 -0.62732615117E+02  0.36308165496E+03  0.38265403651E+03  0.89741171629E+02 0.  0.
        -11    1    1    2    0    0  0.13134600601E+03  0.94775851524E+02  0.45932961476E+02  0.16835697870E+03  0.00000000000E+00 0.  1.
         11    1    1    2    0    0 -0.18240444898E+03 -0.32043236406E+02 -0.40901461644E+03  0.44898898480E+03  0.00000000000E+00 0. -1.
        -15    1    3    3    0    0  0.40462354947E+01 -0.20192720745E+02  0.83448764295E+01  0.22291538404E+02  0.17770000000E+01 0. -1.
         15    1    3    3    0    0  0.47012207481E+02 -0.42539894372E+02  0.35473677853E+03  0.36036249810E+03  0.17770000000E+01 0.  1.
</event>
<event>
 7    1  0.6322078E-006  0.4081157E+03  0.7546771E-02  0.9632721E-01
        -11   -1    0    0    0    0  0.00000000000E+00  0.00000000000E+00  0.50000000000E+03  0.50000000000E+03  0.00000000000E+00 0.  1.
         11   -1    0    0    0    0 -0.00000000000E+00 -0.00000000000E+00 -0.50000000000E+03  0.50000000000E+03  0.00000000000E+00 0. -1.
         23    2    1    2    0    0  0.52815688316E+02 -0.81549808940E+02  0.10692423980E+03  0.17108113013E+03  0.91630190220E+02 0.  0.
        -11    1    1    2    0    0  0.28424621043E+03  0.19159039404E+02 -0.31753164504E+03  0.42660206579E+03  0.00000000000E+00 0. -1.
         11    1    1    2    0    0 -0.33706189874E+03  0.62390769537E+02  0.21060740524E+03  0.40231680408E+03  0.00000000000E+00 0.  1.
        -15    1    3    3    0    0  0.65510249605E+02 -0.90954019992E+02  0.10729877515E+03  0.15517864361E+03  0.17770000000E+01 0.  1.
         15    1    3    3    0    0 -0.12694561288E+02  0.94042110512E+01 -0.37453534709E+00  0.15902486520E+02  0.17770000000E+01 0. -1.
</event>
<event>
 7    1  0.6322078E-006  0.5120702E+03  0.7546771E-02  0.9373200E-01
        -11   -1    0    0    0    0  0.00000000000E+00  0.00000000000E+00  0.50000000000E+03  0.50000000000E+03  0.00000000000E+00 0. -1.
         11   -1    0    0    0    0 -0.00000000000E+00 -0.00000000000E+00 -0.50000000000E+03  0.50000000000E+03  0.00000000000E+00 0.  1.
         23    2    1    2    0    0  0.11644325457E+03  0.54520795592E+02 -0.27265606291E+03  0.31491147784E+03  0.91084364983E+02 0.  0.
        -11    1    1    2    0    0 -0.23643282984E+03 -0.24206169405E+02  0.42613270743E+03  0.48792981668E+03  0.00000000000E+00 0. -1.
         11    1    1    2    0    0  0.11998957527E+03 -0.30314626187E+02 -0.15347664452E+03  0.19715870548E+03  0.00000000000E+00 0.  1.
        -15    1    3    3    0    0  0.10370591468E+03  0.78469581150E+02 -0.21749084129E+03  0.25341234318E+03  0.17770000000E+01 0.  1.
         15    1    3    3    0    0  0.12737339891E+02 -0.23948785558E+02 -0.55165221623E+02  0.61499134652E+02  0.17770000000E+01 0. -1.
</event>
<event>
 7    1  0.6322078E-006  0.4058808E+03  0.7546771E-02  0.9639183E-01
        -11   -1    0    0    0    0  0.00000000000E+00  0.00000000000E+00  0.50000000000E+03  0.50000000000E+03  0.00000000000E+00 0.  1.
         11   -1    0    0    0    0 -0.00000000000E+00 -0.00000000000E+00 -0.50000000000E+03  0.50000000000E+03  0.00000000000E+00 0.  1.
         23    2    1    2    0    0 -0.10827552729E+03  0.11017422122E+03  0.38979555148E+03  0.42943275169E+03  0.92789910204E+02 0.  0.
        -11    1    1    2    0    0  0.16781183295E+03 -0.62553958941E+02 -0.59147585917E+01  0.17918926705E+03  0.00000000000E+00 0.  1.
         11    1    1    2    0    0 -0.59536305662E+02 -0.47620262282E+02 -0.38388079289E+03  0.39137798127E+03  0.00000000000E+00 0.  1.
        -15    1    3    3    0    0 -0.11496743721E+03  0.10007429771E+03  0.38823616069E+03  0.41708854081E+03  0.17770000000E+01 0.  1.
         15    1    3    3    0    0  0.66919099236E+01  0.10099923516E+02  0.15593907892E+01  0.12344210873E+02  0.17770000000E+01 0. -1.
</event>
<event>
 7    1  0.6322078E-006  0.3516615E+03  0.7546771E-02  0.9811105E-01
        -11   -1    0    0    0    0  0.00000000000E+00  0.00000000000E+00  0.50000000000E+03  0.50000000000E+03  0.00000000000E+00 0.  1.
         11   -1    0    0    0    0 -0.00000000000E+00 -0.00000000000E+00 -0.50000000000E+03  0.50000000000E+03  0.00000000000E+00 0.  1.
         23    2    1    2    0    0  0.12315309510E+03 -0.16323093693E+03  0.12758608882E+03  0.25652680957E+03  0.87845149901E+02 0.  0.
        -11    1    1    2    0    0 -0.21590445876E+03  0.12847347263E+03  0.24921188711E+03  0.35387389443E+03  0.00000000000E+00 0.  1.
         11    1    1    2    0    0  0.92751363651E+02  0.34757464295E+02 -0.37679797593E+03  0.38959929601E+03  0.00000000000E+00 0.  1.
        -15    1    3    3    0    0  0.65925750648E+02 -0.55936883778E+02  0.94711068924E+01  0.86994247856E+02  0.17770000000E+01 0. -1.
         15    1    3    3    0    0  0.57227344457E+02 -0.10729405315E+03  0.11811498193E+03  0.16953256171E+03  0.17770000000E+01 0.  1.
</event>
<event>
 7    1  0.6322078E-006  0.5225255E+03  0.7546771E-02  0.9350772E-01
        -11   -1    0    0    0    0  0.00000000000E+00  0.00000000000E+00  0.50000000000E+03  0.50000000000E+03  0.00000000000E+00 0.  1.
         11   -1    0    0    0    0 -0.00000000000E+00 -0.00000000000E+00 -0.50000000000E+03  0.50000000000E+03  0.00000000000E+00 0. -1.
         23    2    1    2    0    0  0.26943417259E+02 -0.34043345078E+02  0.22369218639E+03  0.24245223237E+03  0.82825078652E+02 0.  0.
        -11    1    1    2    0    0 -0.15380773083E+03 -0.31370383892E+02  0.23194848198E+03  0.28007323567E+03  0.00000000000E+00 0.  1.
         11    1    1    2    0    0  0.12686431357E+03  0.65413728970E+02 -0.45564066837E+03  0.47747453195E+03  0.00000000000E+00 0. -1.
        -15    1    3    3    0    0 -0.14050962626E+02  0.21916347382E+01  0.24513651068E+01  0.14539591928E+02  0.17770000000E+01 0. -1.
         15    1    3    3    0    0  0.40994379885E+02 -0.36234979816E+02  0.22124082128E+03  0.22791264044E+03  0.17770000000E+01 0.  1.
</event>
<event>
 7    1  0.6322078E-006  0.4484638E+03  0.7546771E-02  0.9523137E-01
        -11   -1    0    0    0    0  0.00000000000E+00  0.00000000000E+00  0.50000000000E+03  0.50000000000E+03  0.00000000000E+00 0. -1.
         11   -1    0    0    0    0 -0.00000000000E+00 -0.00000000000E+00 -0.50000000000E+03  0.50000000000E+03  0.00000000000E+00 0.  1.
         23    2    1    2    0    0  0.25903365306E+02  0.29638950749E+02  0.16130642004E+02  0.10206410149E+03  0.92776244084E+02 0.  0.
        -11    1    1    2    0    0  0.65561620631E+02 -0.11920369823E+03  0.42100577825E+03  0.44244063228E+03  0.00000000000E+00 0. -1.
         11    1    1    2    0    0 -0.91464985937E+02  0.89564747479E+02 -0.43713642025E+03  0.45549526623E+03  0.00000000000E+00 0.  1.
        -15    1    3    3    0    0 -0.12743309397E+02 -0.28314682793E+02  0.49243437692E+01  0.31488411942E+02  0.17770000000E+01 0. -1.
         15    1    3    3    0    0  0.38646674703E+02  0.57953633542E+02  0.11206298235E+02  0.70575689550E+02  0.17770000000E+01 0.  1.
</event>
<event>
 7    1  0.6322078E-006  0.4335848E+03  0.7546771E-02  0.9562063E-01
        -11   -1    0    0    0    0  0.00000000000E+00  0.00000000000E+00  0.50000000000E+03  0.50000000000E+03  0.00000000000E+00 0.  1.
         11   -1    0    0    0    0 -0.00000000000E+00 -0.00000000000E+00 -0.50000000000E+03  0.50000000000E+03  0.00000000000E+00 0. -1.
         23    2    1    2    0    0 -0.43625875001E+02 -0.21850292269E+02  0.40598379457E+03  0.41686558258E+03  0.81076631921E+02 0.  0.
        -11    1    1    2    0    0  0.30579603256E+02 -0.12509226404E+03  0.21818816889E+02  0.13061105401E+03  0.00000000000E+00 0.  1.
         11    1    1    2    0    0  0.13046271746E+02  0.14694255631E+03 -0.42780261146E+03  0.45252336341E+03  0.00000000000E+00 0. -1.
        -15    1    3    3    0    0  0.19093065715E+02 -0.25276846089E+02  0.14336701111E+03  0.14683569631E+03  0.17770000000E+01 0. -1.
         15    1    3    3    0    0 -0.62718940717E+02  0.34265538200E+01  0.26261678346E+03  0.27002988627E+03  0.17770000000E+01 0.  1.
</event>
<event>
 7    1  0.6322078E-006  0.5179491E+03  0.7546771E-02  0.9360519E-01
        -11   -1    0    0    0    0  0.00000000000E+00  0.00000000000E+00  0.50000000000E+03  0.50000000000E+03  0.00000000000E+00 0. -1.
         11   -1    0    0    0    0 -0.00000000000E+00 -0.00000000000E+00 -0.50000000000E+03  0.50000000000E+03  0.00000000000E+00 0.  1.
         23    2    1    2    0    0  0.40880894634E+01  0.21514681546E+02  0.23195000731E+03  0.24613489746E+03  0.79385060668E+02 0.  0.
        -11    1    1    2    0    0  0.15612241819E+03 -0.58461068064E+01  0.22242883790E+03  0.27181422766E+03  0.00000000000E+00 0. -1.
         11    1    1    2    0    0 -0.16021050765E+03 -0.15668574739E+02 -0.45437884521E+03  0.48205087488E+03  0.00000000000E+00 0.  1.
        -15    1    3    3    0    0  0.28219115172E+02  0.33985119325E+02  0.19665122855E+03  0.20155934663E+03  0.17770000000E+01 0.  1.
         15    1    3    3    0    0 -0.24131025709E+02 -0.12470437779E+02  0.35298778766E+02  0.44575550827E+02  0.17770000000E+01 0. -1.
</event>
<event>
 7    1  0.6322078E-006  0.5292622E+03  0.7546771E-02  0.9336613E-01
        -11   -1    0    0    0    0  0.00000000000E+00  0.00000000000E+00  0.50000000000E+03  0.50000000000E+03  0.00000000000E+00 0.  1.
         11   -1    0    0    0    0 -0.00000000000E+00 -0.00000000000E+00 -0.50000000000E+03  0.50000000000E+03  0.00000000000E+00 0. -1.
         23    2    1    2    0    0 -0.50926055786E+02 -0.44333672333E+02  0.38820342274E+03  0.40547382636E+03  0.95646164439E+02 0.  0.
        -11    1    1    2    0    0  0.25069056122E+02 -0.10711646952E+03  0.56755366720E+02  0.12378839715E+03  0.00000000000E+00 0.  1.
         11    1    1    2    0    0  0.25856999664E+02  0.15145014185E+03 -0.44495878946E+03  0.47073777649E+03  0.00000000000E+00 0. -1.
        -15    1    3    3    0    0 -0.93598552583E+01 -0.61581659502E+02  0.30038030921E+03  0.30677580668E+03  0.17770000000E+01 0. -1.
         15    1    3    3    0    0 -0.41566200528E+02  0.17247987169E+02  0.87823113533E+02  0.98698019673E+02  0.17770000000E+01 0.  1.
</event>
<event>
 7    1  0.6322078E-006  0.4401615E+03  0.7546771E-02  0.9544655E-01
        -11   -1    0    0    0    0  0.00000000000E+00  0.00000000000E+00  0.50000000000E+03  0.50000000000E+03  0.00000000000E+00 0.  1.
         11   -1    0    0    0    0 -0.00000000000E+00 -0.00000000000E+00 -0.50000000000E+03  0.50000000000E+03  0.00000000000E+00 0. -1.
         23    2    1    2    0    0  0.12445351671E+02 -0.69554922655E+02  0.39335171297E+03  0.40950386256E+03  0.89303243584E+02 0.  0.
        -11    1    1    2    0    0 -0.86981336920E+02  0.45363610579E+02  0.70032334544E+02  0.12053272593E+03  0.00000000000E+00 0.  1.
         11    1    1    2    0    0  0.74535985250E+02  0.24191312076E+02 -0.46338404751E+03  0.46996341152E+03  0.00000000000E+00 0. -1.
        -15    1    3    3    0    0  0.31106890195E+02 -0.84326324182E+02  0.31799207329E+03  0.33045526773E+03  0.17770000000E+01 0.  1.
         15    1    3    3    0    0 -0.18661538524E+02  0.14771401527E+02  0.75359639674E+02  0.79048594826E+02  0.17770000000E+01 0. -1.
</event>
<event>
 7    1  0.6322078E-006  0.3626584E+03  0.7546771E-02  0.9773661E-01
        -11   -1    0    0    0    0  0.00000000000E+00  0.00000000000E+00  0.50000000000E+03  0.50000000000E+03  0.00000000000E+00 0.  1.
         11   -1    0    0    0    0 -0.00000000000E+00 -0.00000000000E+00 -0.50000000000E+03  0.50000000000E+03  0.00000000000E+00 0. -1.
         23    2    1    2    0    0  0.13972217926E+03  0.14888064621E+03  0.21648223654E+03  0.31278886377E+03  0.96356527371E+02 0.  0.
        -11    1    1    2    0    0 -0.95658759002E+02 -0.71743255583E+02  0.21535890608E+03  0.24632732557E+03  0.00000000000E+00 0.  1.
         11    1    1    2    0    0 -0.44063420261E+02 -0.77137390623E+02 -0.43184114262E+03  0.44088381066E+03  0.00000000000E+00 0. -1.
        -15    1    3    3    0    0  0.92970994684E+02  0.14907940261E+03  0.14733559806E+03  0.22930157069E+03  0.17770000000E+01 0.  1.
         15    1    3    3    0    0  0.46751184579E+02 -0.19875640355E+00  0.69146638487E+02  0.83487293085E+02  0.17770000000E+01 0. -1.
</event>
<event>
 6    1  0.6322078E-006  0.5365791E+03  0.7546771E-02  0.9321487E-01
        -11   -1    0    0    0    0  0.00000000000E+00  0.00000000000E+00  0.50000000000E+03  0.50000000000E+03  0.00000000000E+00 0.  1.
         11   -1    0    0    0    0 -0.00000000000E+00 -0.00000000000E+00 -0.50000000000E+03  0.50000000000E+03  0.00000000000E+00 0. -1.
        -11    1    1    2    0    0 -0.17610839860E+02  0.11858514860E+03  0.17659527853E+03  0.21344430550E+03  0.00000000000E+00 0.  1.
         11    1    1    2    0    0  0.84471324359E+02 -0.39090701654E+02 -0.45397736208E+03  0.46342090251E+03  0.00000000000E+00 0. -1.
        -15    1    1    2    0    0 -0.36357338176E+02 -0.99472279018E+02  0.26364829994E+03  0.28413055824E+03  0.17770000000E+01 0.  1.
         15    1    1    2    0    0 -0.30503146323E+02  0.19977832071E+02  0.13733783611E+02  0.39004233759E+02  0.17770000000E+01 0. -1.
</event>
<event>
 6    1  0.6322078E-006  0.4124464E+03  0.7546771E-02  0.9620324E-01
        -11   -1    0    0    0    0  0.00000000000E+00  0.00000000000E+00  0.50000000000E+03  0.50000000000E+03  0.00000000000E+00 0.  1.
         11   -1    0    0    0    0 -0.00000000000E+00 -0.00000000000E+00 -0.50000000000E+03  0.50000000000E+03  0.00000000000E+00 0. -1.
        -11    1    1    2    0    0  0.36279605591E+02  0.67281369842E+02  0.43301302846E+03  0.43970817063E+03  0.00000000000E+00 0.  1.
         11    1    1    2    0    0 -0.70714091501E+02  0.78217563023E+01 -0.38421527042E+03  0.39074676791E+03  0.00000000000E+00 0. -1.
        -15    1    1    2    0    0  0.48467652275E+02 -0.97726888647E+02  0.52962788272E+01  0.10922850535E+03  0.17770000000E+01 0.  1.
         15    1    1    2    0    0 -0.14033166365E+02  0.22623762503E+02 -0.54094036868E+02  0.60316556116E+02  0.17770000000E+01 0. -1.
</event>
<event>
 7    1  0.6322078E-006  0.4503921E+03  0.7546771E-02  0.9518211E-01
        -11   -1    0    0    0    0  0.00000000000E+00  0.00000000000E+00  0.50000000000E+03  0.50000000000E+03  0.00000000000E+00 0. -1.
         11   -1    0    0    0    0 -0.00000000000E+00 -0.00000000000E+00 -0.50000000000E+03  0.50000000000E+03  0.00000000000E+00 0. -1.
         23    2    1    2    0    0  0.51475182642E+00 -0.25077072733E+02  0.42366918885E+03  0.43385924190E+03  0.90050739327E+02 0.  0.
        -11    1    1    2    0    0 -0.76921551353E+02  0.59398957381E+02  0.32399101974E+02  0.10244443864E+03  0.00000000000E+00 0. -1.
         11    1    1    2    0    0  0.76406799527E+02 -0.34321884649E+02 -0.45606829083E+03  0.46369631946E+03  0.00000000000E+00 0. -1.
        -15    1    3    3    0    0  0.37110694555E+02 -0.38185091472E+02  0.27939978930E+03  0.28443400790E+03  0.17770000000E+01 0.  1.
         15    1    3    3    0    0 -0.36595942728E+02  0.13108018739E+02  0.14426939955E+03  0.14942523400E+03  0.17770000000E+01 0. -1.
</event>
<event>
 7    1  0.6322078E-006  0.3929010E+03  0.7546771E-02  0.9677612E-01
        -11   -1    0    0    0    0  0.00000000000E+00  0.00000000000E+00  0.50000000000E+03  0.50000000000E+03  0.00000000000E+00 0.  1.
         11   -1    0    0    0    0 -0.00000000000E+00 -0.00000000000E+00 -0.50000000000E+03  0.50000000000E+03  0.00000000000E+00 0. -1.
         23    2    1    2    0    0 -0.10505053686E+03  0.33890178929E+02  0.13407833524E+03  0.19523552320E+03  0.89195011152E+02 0.  0.
        -11    1    1    2    0    0  0.22082398118E+03 -0.17310548737E+03  0.25276153496E+03  0.37764683763E+03  0.00000000000E+00 0.  1.
         11    1    1    2    0    0 -0.11577344432E+03  0.13921530844E+03 -0.38683987020E+03  0.42711763917E+03  0.00000000000E+00 0. -1.
        -15    1    3    3    0    0 -0.81766885614E+02 -0.25658337630E+00  0.13010671141E+03  0.15367759596E+03  0.17770000000E+01 0. -1.
         15    1    3    3    0    0 -0.23283651245E+02  0.34146762305E+02  0.39716238336E+01  0.41557927235E+02  0.17770000000E+01 0.  1.
</event>
<event>
 7    1  0.6322078E-006  0.3872488E+03  0.7546771E-02  0.9694845E-01
        -11   -1    0    0    0    0  0.00000000000E+00  0.00000000000E+00  0.50000000000E+03  0.50000000000E+03  0.00000000000E+00 0. -1.
         11   -1    0    0    0    0 -0.00000000000E+00 -0.00000000000E+00 -0.50000000000E+03  0.50000000000E+03  0.00000000000E+00 0. -1.
         23    2    1    2    0    0  0.59253910693E+02  0.25122016714E+01  0.36925297152E+03  0.38476677104E+03  0.90445420164E+02 0.  0.
        -11    1    1    2    0    0 -0.19876119238E+03  0.61903890336E+02  0.75376339526E+01  0.20831447180E+03  0.00000000000E+00 0. -1.
         11    1    1    2    0    0  0.13950728169E+03 -0.64416092007E+02 -0.37679060547E+03  0.40691875716E+03  0.00000000000E+00 0. -1.
        -15    1    3    3    0    0 -0.14226087033E+02  0.19352102108E+02  0.37618810201E+02  0.44667863372E+02  0.17770000000E+01 0.  1.
         15    1    3    3    0    0  0.73479997726E+02 -0.16839900437E+02  0.33163416132E+03  0.34009890767E+03  0.17770000000E+01 0. -1.
</event>
<event>
 7    1  0.6322078E-006  0.5362878E+03  0.7546771E-02  0.9322084E-01
        -11   -1    0    0    0    0  0.00000000000E+00  0.00000000000E+00  0.50000000000E+03  0.50000000000E+03  0.00000000000E+00 0. -1.
         11   -1    0    0    0    0 -0.00000000000E+00 -0.00000000000E+00 -0.50000000000E+03  0.50000000000E+03  0.00000000000E+00 0.  1.
         23    2    1    2    0    0  0.21400562352E+03 -0.10427790048E+03 -0.11248590361E+03  0.27899128519E+03  0.92253841493E+02 0.  0.
        -11    1    1    2    0    0 -0.33867273701E+03  0.94421487004E+01  0.31660794510E+03  0.46371216058E+03  0.00000000000E+00 0. -1.
         11    1    1    2    0    0  0.12466711349E+03  0.94835751780E+02 -0.20412204149E+03  0.25729655424E+03  0.00000000000E+00 0.  1.
        -15    1    3    3    0    0 -0.37074542659E+01 -0.21765843235E+02 -0.13882425753E+02  0.26141473230E+02  0.17770000000E+01 0. -1.
         15    1    3    3    0    0  0.21771307779E+03 -0.82512057245E+02 -0.98603477860E+02  0.25284981196E+03  0.17770000000E+01 0.  1.
</event>
<event>
 7    1  0.6322078E-006  0.5091289E+03  0.7546771E-02  0.9379612E-01
        -11   -1    0    0    0    0  0.00000000000E+00  0.00000000000E+00  0.50000000000E+03  0.50000000000E+03  0.00000000000E+00 0.  1.
         11   -1    0    0    0    0 -0.00000000000E+00 -0.00000000000E+00 -0.50000000000E+03  0.50000000000E+03  0.00000000000E+00 0.  1.
         23    2    1    2    0    0 -0.11733728396E+03  0.16972108116E+03  0.43637726902E+03  0.49087114329E+03  0.89196831797E+02 0.  0.
        -11    1    1    2    0    0  0.54956176184E+02 -0.82636507528E+02 -0.55991811438E+02  0.11394760474E+03  0.00000000000E+00 0.  1.
         11    1    1    2    0    0  0.62381107777E+02 -0.87084573632E+02 -0.38038545758E+03  0.39518125197E+03  0.00000000000E+00 0.  1.
        -15    1    3    3    0    0 -0.81492606840E+02  0.11448933268E+03  0.37642160698E+03  0.40180248406E+03  0.17770000000E+01 0.  1.
         15    1    3    3    0    0 -0.35844677122E+02  0.55231748475E+02  0.59955662042E+02  0.89068659232E+02  0.17770000000E+01 0. -1.
</event>
<event>
 7    1  0.6322078E-006  0.5104239E+03  0.7546771E-02  0.9376783E-01
        -11   -1    0    0    0    0  0.00000000000E+00  0.00000000000E+00  0.50000000000E+03  0.50000000000E+03  0.00000000000E+00 0.  1.
         11   -1    0    0    0    0 -0.00000000000E+00 -0.00000000000E+00 -0.50000000000E+03  0.50000000000E+03  0.00000000000E+00 0. -1.
         23    2    1    2    0    0  0.27779994259E+02  0.49077257782E+02  0.20256222991E+03  0.22944875774E+03  0.91842093468E+02 0.  0.
        -11    1    1    2    0    0  0.48076868549E+02  0.20491550596E+02  0.27607196653E+03  0.28097512281E+03  0.00000000000E+00 0.  1.
         11    1    1    2    0    0 -0.75856862808E+02 -0.69568808378E+02 -0.47863419644E+03  0.48957611945E+03  0.00000000000E+00 0. -1.
        -15    1    3    3    0    0  0.29680896471E+02  0.69503297200E+02  0.10291446672E+03  0.12769576785E+03  0.17770000000E+01 0.  1.
         15    1    3    3    0    0 -0.19009022118E+01 -0.20426039418E+02  0.99647763185E+02  0.10175298989E+03  0.17770000000E+01 0. -1.
</event>
<event>
 7    1  0.6322078E-006  0.3315047E+03  0.7546771E-02  0.9883707E-01
        -11   -1    0    0    0    0  0.00000000000E+00  0.00000000000E+00  0.50000000000E+03  0.50000000000E+03  0.00000000000E+00 0. -1.
         11   -1    0    0    0    0 -0.00000000000E+00 -0.00000000000E+00 -0.50000000000E+03  0.50000000000E+03  0.00000000000E+00 0.  1.
         23    2    1    2    0    0 -0.67624934729E+02 -0.13311150751E+03  0.27199386045E+03  0.32277872714E+03  0.88958649619E+02 0.  0.
        -11    1    1    2    0    0  0.26836518542E+03  0.87528665561E+02  0.58105521504E+02  0.28819679330E+03  0.00000000000E+00 0. -1.
         11    1    1    2    0    0 -0.20074025069E+03  0.45582841952E+02 -0.33009938195E+03  0.38902447956E+03  0.00000000000E+00 0.  1.
        -15    1    3    3    0    0 -0.14431657829E+02 -0.42173809779E+02  0.17137337040E+03  0.17708442278E+03  0.17770000000E+01 0.  1.
         15    1    3    3    0    0 -0.53193276900E+02 -0.90937697734E+02  0.10062049005E+03  0.14569430436E+03  0.17770000000E+01 0. -1.
</event>
<event>
 7    1  0.6322078E-006  0.3478007E+03  0.7546771E-02  0.9824601E-01
        -11   -1    0    0    0    0  0.00000000000E+00  0.00000000000E+00  0.50000000000E+03  0.50000000000E+03  0.00000000000E+00 0.  1.
         11   -1    0    0    0    0 -0.00000000000E+00 -0.00000000000E+00 -0.50000000000E+03  0.50000000000E+03  0.00000000000E+00 0. -1.
         23    2    1    2    0    0 -0.77882411621E+02 -0.18094475446E+03 -0.14714685089E+03  0.26221937240E+03  0.91105045565E+02 0.  0.
        -11    1    1    2    0    0  0.22367637531E+03  0.70213276307E+02  0.37698714101E+03  0.44393730360E+03  0.00000000000E+00 0.  1.
         11    1    1    2    0    0 -0.14579396369E+03  0.11073147815E+03 -0.22984029011E+03  0.29384332400E+03  0.00000000000E+00 0. -1.
        -15    1    3    3    0    0 -0.75573352047E+02 -0.71524948882E+02 -0.48287178325E+02  0.11472558203E+03  0.17770000000E+01 0.  1.
         15    1    3    3    0    0 -0.23090595746E+01 -0.10941980558E+03 -0.98859672568E+02  0.14749379037E+03  0.17770000000E+01 0. -1.
</event>
<event>
 7    1  0.6322078E-006  0.5271947E+03  0.7546771E-02  0.9340935E-01
        -11   -1    0    0    0    0  0.00000000000E+00  0.00000000000E+00  0.50000000000E+03  0.50000000000E+03  0.00000000000E+00 0. -1.
         11   -1    0    0    0    0 -0.00000000000E+00 -0.00000000000E+00 -0.50000000000E+03  0.50000000000E+03  0.00000000000E+00 0.  1.
         23    2    1    2    0    0 -0.15268117149E+02 -0.77107895056E+02  0.36468570709E+03  0.38593300288E+03  0.98842677386E+02 0.  0.
        -11    1    1    2    0    0 -0.62109868989E+02  0.75799606185E+02  0.10174305684E+03  0.14126169240E+03  0.00000000000E+00 0. -1.
         11    1    1    2    0    0  0.77377986138E+02  0.13082888708E+01 -0.46642876393E+03  0.47280530473E+03  0.00000000000E+00 0.  1.
        -15    1    3    3    0    0 -0.38588352432E+02 -0.66374062447E+01  0.21832646103E+03  0.22181685558E+03  0.17770000000E+01 0. -1.
         15    1    3    3    0    0  0.23320235283E+02 -0.70470488812E+02  0.14635924606E+03  0.16411614729E+03  0.17770000000E+01 0.  1.
</event>
<event>
 7    1  0.6322078E-006  0.4473265E+03  0.7546771E-02  0.9526056E-01
        -11   -1    0    0    0    0  0.00000000000E+00  0.00000000000E+00  0.50000000000E+03  0.50000000000E+03  0.00000000000E+00 0.  1.
         11   -1    0    0    0    0 -0.00000000000E+00 -0.00000000000E+00 -0.50000000000E+03  0.50000000000E+03  0.00000000000E+00 0. -1.
         23    2    1    2    0    0 -0.36077303910E+02  0.47938926237E+02  0.40748136547E+03  0.42178253320E+03  0.90883054532E+02 0.  0.
        -11    1    1    2    0    0 -0.40132462635E+02 -0.83955020860E+02  0.55016439742E+02  0.10810119669E+03  0.00000000000E+00 0.  1.
         11    1    1    2    0    0  0.76209766545E+02  0.36016094623E+02 -0.46249780521E+03  0.47011627010E+03  0.00000000000E+00 0. -1.
        -15    1    3    3    0    0  0.22074398373E+02 -0.11927703826E+02  0.82399869259E+02  0.86153614927E+02  0.17770000000E+01 0. -1.
         15    1    3    3    0    0 -0.58151702283E+02  0.59866630063E+02  0.32508149621E+03  0.33562891827E+03  0.17770000000E+01 0.  1.
</event>
<event>
 7    1  0.6322078E-006  0.5262096E+03  0.7546771E-02  0.9343001E-01
        -11   -1    0    0    0    0  0.00000000000E+00  0.00000000000E+00  0.50000000000E+03  0.50000000000E+03  0.00000000000E+00 0.  1.
         11   -1    0    0    0    0 -0.00000000000E+00 -0.00000000000E+00 -0.50000000000E+03  0.50000000000E+03  0.00000000000E+00 0. -1.
         23    2    1    2    0    0  0.70788600733E+01 -0.39617740325E+02  0.12069388896E+03  0.15676258300E+03  0.91585025994E+02 0.  0.
        -11    1    1    2    0    0 -0.58201235042E+01 -0.31389429939E+03  0.19475016717E+03  0.36944706338E+03  0.00000000000E+00 0.  1.
         11    1    1    2    0    0 -0.12587365691E+01  0.35351203971E+03 -0.31544405613E+03  0.47379035363E+03  0.00000000000E+00 0. -1.
        -15    1    3    3    0    0 -0.30343661223E+02  0.14918937999E+02  0.42036174453E+02  0.53976941179E+02  0.17770000000E+01 0. -1.
         15    1    3    3    0    0  0.37422521296E+02 -0.54536678324E+02  0.78657714511E+02  0.10278564182E+03  0.17770000000E+01 0.  1.
</event>
<event>
 7    1  0.6322078E-006  0.3323409E+03  0.7546771E-02  0.9880586E-01
        -11   -1    0    0    0    0  0.00000000000E+00  0.00000000000E+00  0.50000000000E+03  0.50000000000E+03  0.00000000000E+00 0.  1.
         11   -1    0    0    0    0 -0.00000000000E+00 -0.00000000000E+00 -0.50000000000E+03  0.50000000000E+03  0.00000000000E+00 0. -1.
         23    2    1    2    0    0 -0.12785487472E+03 -0.14755292041E+03  0.18602485326E+03  0.28269537060E+03  0.84809747193E+02 0.  0.
        -11    1    1    2    0    0  0.18622542033E+03  0.19168541510E+03  0.19403659997E+03  0.33026263438E+03  0.00000000000E+00 0.  1.
         11    1    1    2    0    0 -0.58370545610E+02 -0.44132494691E+02 -0.38006145323E+03  0.38704199502E+03  0.00000000000E+00 0. -1.
        -15    1    3    3    0    0 -0.13407197366E+03 -0.12265561027E+03  0.13787828735E+03  0.22810802858E+03  0.17770000000E+01 0. -1.
         15    1    3    3    0    0  0.62170989386E+01 -0.24897310142E+02  0.48146565903E+02  0.54587342019E+02  0.17770000000E+01 0.  1.
</event>
<event>
 7    1  0.6322078E-006  0.4410496E+03  0.7546771E-02  0.9542329E-01
        -11   -1    0    0    0    0  0.00000000000E+00  0.00000000000E+00  0.50000000000E+03  0.50000000000E+03  0.00000000000E+00 0. -1.
         11   -1    0    0    0    0 -0.00000000000E+00 -0.00000000000E+00 -0.50000000000E+03  0.50000000000E+03  0.00000000000E+00 0.  1.
         23    2    1    2    0    0 -0.38462005675E+02  0.52103224129E+01  0.45432787205E+03  0.46497875267E+03  0.91021710416E+02 0.  0.
        -11    1    1    2    0    0  0.10329899022E+03  0.38016312258E+02 -0.45955445138E+02  0.11928044398E+03  0.00000000000E+00 0. -1.
         11    1    1    2    0    0 -0.64836984541E+02 -0.43226634671E+02 -0.40837242692E+03  0.41574080336E+03  0.00000000000E+00 0.  1.
        -15    1    3    3    0    0  0.21147643890E+02 -0.23732706802E+02  0.17683049679E+03  0.17967372244E+03  0.17770000000E+01 0.  1.
         15    1    3    3    0    0 -0.59609649565E+02  0.28943029215E+02  0.27749737527E+03  0.28530503022E+03  0.17770000000E+01 0. -1.
</event>
<event>
 6    1  0.6322078E-006  0.3866124E+03  0.7546771E-02  0.9696806E-01
        -11   -1    0    0    0    0  0.00000000000E+00  0.00000000000E+00  0.50000000000E+03  0.50000000000E+03  0.00000000000E+00 0.  1.
         11   -1    0    0    0    0 -0.00000000000E+00 -0.00000000000E+00 -0.50000000000E+03  0.50000000000E+03  0.00000000000E+00 0. -1.
        -11    1    1    2    0    0 -0.21057982793E+03  0.38316065787E+02  0.48892732289E+02  0.21955064131E+03  0.00000000000E+00 0.  1.
         11    1    1    2    0    0  0.68689958631E+02 -0.99101189208E+02 -0.37575348458E+03  0.39462645286E+03  0.00000000000E+00 0. -1.
        -15    1    1    2    0    0  0.11688208580E+03  0.32809024641E+02  0.32640448390E+03  0.34825407237E+03  0.17770000000E+01 0.  1.
         15    1    1    2    0    0  0.25007783498E+02  0.27976098779E+02  0.45626838993E+00  0.37568833469E+02  0.17770000000E+01 0. -1.
</event>
<event>
 7    1  0.6322078E-006  0.4310135E+03  0.7546771E-02  0.9568959E-01
        -11   -1    0    0    0    0  0.00000000000E+00  0.00000000000E+00  0.50000000000E+03  0.50000000000E+03  0.00000000000E+00 0.  1.
         11   -1    0    0    0    0 -0.00000000000E+00 -0.00000000000E+00 -0.50000000000E+03  0.50000000000E+03  0.00000000000E+00 0. -1.
         23    2    1    2    0    0  0.21632411202E+03  0.11360677591E+03  0.32406425567E+03  0.41727356890E+03  0.96937962261E+02 0.  0.
        -11    1    1    2    0    0 -0.77377146592E+02 -0.62684111780E+02  0.95411562427E+02  0.13791260613E+03  0.00000000000E+00 0.  1.
         11    1    1    2    0    0 -0.13894696542E+03 -0.50922664132E+02 -0.41947581809E+03  0.44481382497E+03  0.00000000000E+00 0. -1.
        -15    1    3    3    0    0  0.17231402782E+03  0.80374810135E+02  0.30398818767E+03  0.35855851720E+03  0.17770000000E+01 0.  1.
         15    1    3    3    0    0  0.44010084194E+02  0.33231965777E+02  0.20076067998E+02  0.58715051694E+02  0.17770000000E+01 0. -1.
</event>
<event>
 7    1  0.6322078E-006  0.5077606E+03  0.7546771E-02  0.9382610E-01
        -11   -1    0    0    0    0  0.00000000000E+00  0.00000000000E+00  0.50000000000E+03  0.50000000000E+03  0.00000000000E+00 0. -1.
         11   -1    0    0    0    0 -0.00000000000E+00 -0.00000000000E+00 -0.50000000000E+03  0.50000000000E+03  0.00000000000E+00 0.  1.
         23    2    1    2    0    0 -0.73744781699E+02  0.35359466913E+02  0.33473232723E+03  0.35692994282E+03  0.93084200916E+02 0.  0.
        -11    1    1    2    0    0 -0.44957568477E+02 -0.19090929090E+02  0.14270328099E+03  0.15083061010E+03  0.00000000000E+00 0. -1.
         11    1    1    2    0    0  0.11870235018E+03 -0.16268537823E+02 -0.47743560822E+03  0.49223944708E+03  0.00000000000E+00 0.  1.
        -15    1    3    3    0    0  0.24299986991E+01 -0.23518508060E+02  0.36391482414E+02  0.43434120646E+02  0.17770000000E+01 0.  1.
         15    1    3    3    0    0 -0.76174780398E+02  0.58877974973E+02  0.29834084482E+03  0.31349582218E+03  0.17770000000E+01 0. -1.
</event>
<event>
 7    1  0.6322078E-006  0.3003306E+03  0.7546771E-02  0.1000766E+00
        -11   -1    0    0    0    0  0.00000000000E+00  0.00000000000E+00  0.50000000000E+03  0.50000000000E+03  0.00000000000E+00 0.  1.
         11   -1    0    0    0    0 -0.00000000000E+00 -0.00000000000E+00 -0.50000000000E+03  0.50000000000E+03  0.00000000000E+00 0. -1.
         23    2    1    2    0    0  0.10697142970E+03 -0.10732257126E+03  0.28865389043E+03  0.33873331003E+03  0.91968286877E+02 0.  0.
        -11    1    1    2    0    0 -0.31758776887E+03 -0.36300016045E+02 -0.74248082674E+02  0.32816529353E+03  0.00000000000E+00 0.  1.
         11    1    1    2    0    0  0.21061633916E+03  0.14362258730E+03 -0.21440580776E+03  0.33310139643E+03  0.00000000000E+00 0. -1.
        -15    1    3    3    0    0  0.78630500074E+02 -0.83472774380E+02  0.11977257113E+03  0.16582848407E+03  0.17770000000E+01 0.  1.
         15    1    3    3    0    0  0.28340929629E+02 -0.23849796876E+02  0.16888131931E+03  0.17290482597E+03  0.17770000000E+01 0. -1.
</event>
<event>
 7    1  0.6322078E-006  0.5270594E+03  0.7546771E-02  0.9341218E-01
        -11   -1    0    0    0    0  0.00000000000E+00  0.00000000000E+00  0.50000000000E+03  0.50000000000E+03  0.00000000000E+00 0. -1.
         11   -1    0    0    0    0 -0.00000000000E+00 -0.00000000000E+00 -0.50000000000E+03  0.50000000000E+03  0.00000000000E+00 0.  1.
         23    2    1    2    0    0 -0.16120905232E+03  0.13936261456E+02  0.33771547192E+03  0.38550562599E+03  0.91543813343E+02 0.  0.
        -11    1    1    2    0    0  0.63981491051E+02  0.27298208205E+02  0.12328275430E+03  0.14155373848E+03  0.00000000000E+00 0. -1.
         11    1    1    2    0    0  0.97227561266E+02 -0.41234469661E+02 -0.46099822622E+03  0.47294063553E+03  0.00000000000E+00 0.  1.
        -15    1    3    3    0    0 -0.10275990461E+03  0.52459122147E+02  0.19629668711E+03  0.22769959286E+03  0.17770000000E+01 0.  1.
         15    1    3    3    0    0 -0.58449147710E+02 -0.38522860691E+02  0.14141878481E+03  0.15780603312E+03  0.17770000000E+01 0. -1.
</event>
<event>
 7    1  0.6322078E-006  0.4111725E+03  0.7546771E-02  0.9623954E-01
        -11   -1    0    0    0    0  0.00000000000E+00  0.00000000000E+00  0.50000000000E+03  0.50000000000E+03  0.00000000000E+00 0.  1.
         11   -1    0    0    0    0 -0.00000000000E+00 -0.00000000000E+00 -0.50000000000E+03  0.50000000000E+03  0.00000000000E+00 0. -1.
         23    2    1    2    0    0 -0.13335118662E+03  0.37343019189E+02  0.61094293830E+01  0.16605415198E+03  0.91430936827E+02 0.  0.
        -11    1    1    2    0    0  0.17852032957E+03  0.63659736334E+02  0.38411995941E+03  0.42833423085E+03  0.00000000000E+00 0.  1.
         11    1    1    2    0    0 -0.45169142956E+02 -0.10100275552E+03 -0.39022938879E+03  0.40561161716E+03  0.00000000000E+00 0. -1.
        -15    1    3    3    0    0 -0.96949947931E+02  0.45280453039E+02  0.41361446039E+02  0.11473246611E+03  0.17770000000E+01 0. -1.
         15    1    3    3    0    0 -0.36401238687E+02 -0.79374338502E+01 -0.35252016656E+02  0.51321685879E+02  0.17770000000E+01 0.  1.
</event>
<event>
 7    1  0.6322078E-006  0.5280764E+03  0.7546771E-02  0.9339089E-01
        -11   -1    0    0    0    0  0.00000000000E+00  0.00000000000E+00  0.50000000000E+03  0.50000000000E+03  0.00000000000E+00 0.  1.
         11   -1    0    0    0    0 -0.00000000000E+00 -0.00000000000E+00 -0.50000000000E+03  0.50000000000E+03  0.00000000000E+00 0.  1.
         23    2    1    2    0    0 -0.71621051564E+02 -0.20161586964E+03  0.41037046253E+03  0.47192356546E+03  0.92354757337E+02 0.  0.
        -11    1    1    2    0    0  0.11665685915E+03  0.13209648851E+03 -0.91397981292E+02  0.19852429586E+03  0.00000000000E+00 0.  1.
         11    1    1    2    0    0 -0.45035807581E+02  0.69519381132E+02 -0.31897248124E+03  0.32955213868E+03  0.00000000000E+00 0.  1.
        -15    1    3    3    0    0 -0.65278064085E+02 -0.11164618836E+03  0.31563412728E+03  0.34110725155E+03  0.17770000000E+01 0.  1.
         15    1    3    3    0    0 -0.63429874786E+01 -0.89969681287E+02  0.94736335253E+02  0.13081631392E+03  0.17770000000E+01 0. -1.
</event>
<event>
 7    1  0.6322078E-006  0.4844140E+03  0.7546771E-02  0.9435376E-01
        -11   -1    0    0    0    0  0.00000000000E+00  0.00000000000E+00  0.50000000000E+03  0.50000000000E+03  0.00000000000E+00 0.  1.
         11   -1    0    0    0    0 -0.00000000000E+00 -0.00000000000E+00 -0.50000000000E+03  0.50000000000E+03  0.00000000000E+00 0.  1.
         23    2    1    2    0    0 -0.39814426312E+02 -0.83987068439E+02  0.45938477101E+03  0.47802442056E+03  0.93989162172E+02 0.  0.
        -11    1    1    2    0    0  0.28173545271E+02 -0.25826441111E+02  0.10219234889E+02  0.39562437682E+02  0.00000000000E+00 0.  1.
         11    1    1    2    0    0  0.11640881041E+02  0.10981350955E+03 -0.46960400590E+03  0.48241314176E+03  0.00000000000E+00 0.  1.
        -15    1    3    3    0    0 -0.44256826218E+02 -0.10274310923E+03  0.36894921991E+03  0.38554052674E+03  0.17770000000E+01 0.  1.
         15    1    3    3    0    0  0.44423999061E+01  0.18756040791E+02  0.90435551103E+02  0.92483893816E+02  0.17770000000E+01 0. -1.
</event>
<event>
 7    1  0.6322078E-006  0.4044420E+03  0.7546771E-02  0.9643366E-01
        -11   -1    0    0    0    0  0.00000000000E+00  0.00000000000E+00  0.50000000000E+03  0.50000000000E+03  0.00000000000E+00 0.  1.
         11   -1    0    0    0    0 -0.00000000000E+00 -0.00000000000E+00 -0.50000000000E+03  0.50000000000E+03  0.00000000000E+00 0. -1.
         23    2    1    2    0    0  0.92499260464E+00 -0.24628253813E+03  0.31680695780E+03  0.41148449646E+03  0.91087310428E+02 0.  0.
        -11    1    1    2    0    0 -0.66794729316E+01  0.16166525739E+03  0.81576365694E+02  0.18120423352E+03  0.00000000000E+00 0.  1.
         11    1    1    2    0    0  0.57544803269E+01  0.84617280732E+02 -0.39838332349E+03  0.40731127001E+03  0.00000000000E+00 0. -1.
        -15    1    3    3    0    0  0.15462503420E+02  0.18903719116E+00  0.21817226746E+02  0.26800631690E+02  0.17770000000E+01 0. -1.
         15    1    3    3    0    0 -0.14537510815E+02 -0.24647157532E+03  0.29498973105E+03  0.38468386477E+03  0.17770000000E+01 0.  1.
</event>
<event>
 7    1  0.6322078E-006  0.3926629E+03  0.7546771E-02  0.9678332E-01
        -11   -1    0    0    0    0  0.00000000000E+00  0.00000000000E+00  0.50000000000E+03  0.50000000000E+03  0.00000000000E+00 0. -1.
         11   -1    0    0    0    0 -0.00000000000E+00 -0.00000000000E+00 -0.50000000000E+03  0.50000000000E+03  0.00000000000E+00 0.  1.
         23    2    1    2    0    0 -0.44603591132E+02 -0.42858591313E+02  0.16076791738E+03  0.19600424692E+03  0.93514717333E+02 0.  0.
        -11    1    1    2    0    0  0.27117279806E+03 -0.15947732423E+03  0.16778294763E+03  0.35653726434E+03  0.00000000000E+00 0. -1.
         11    1    1    2    0    0 -0.22656920693E+03  0.20233591554E+03 -0.32855086501E+03  0.44745848874E+03  0.00000000000E+00 0.  1.
        -15    1    3    3    0    0  0.22714519408E+02 -0.36072143730E+02  0.79659734436E+02  0.90365811924E+02  0.17770000000E+01 0.  1.
         15    1    3    3    0    0 -0.67318110540E+02 -0.67864475834E+01  0.81108182948E+02  0.10563843499E+03  0.17770000000E+01 0. -1.
</event>
<event>
 7    1  0.6322078E-006  0.5111089E+03  0.7546771E-02  0.9375290E-01
        -11   -1    0    0    0    0  0.00000000000E+00  0.00000000000E+00  0.50000000000E+03  0.50000000000E+03  0.00000000000E+00 0.  1.
         11   -1    0    0    0    0 -0.00000000000E+00 -0.00000000000E+00 -0.50000000000E+03  0.50000000000E+03  0.00000000000E+00 0. -1.
         23    2    1    2    0    0 -0.56026358011E+02 -0.35910281934E+02 -0.21556511408E+03  0.24739848889E+03  0.10153419501E+03 0.  0.
        -11    1    1    2    0    0  0.12920159346E+03  0.57298936749E+02  0.46801527719E+03  0.48889111220E+03  0.00000000000E+00 0.  1.
         11    1    1    2    0    0 -0.73175235446E+02 -0.21388654815E+02 -0.25245016311E+03  0.26371039891E+03  0.00000000000E+00 0. -1.
        -15    1    3    3    0    0 -0.73604847299E+02 -0.10619924325E+02 -0.83728448270E+02  0.11200029963E+03  0.17770000000E+01 0.  1.
         15    1    3    3    0    0  0.17578489288E+02 -0.25290357609E+02 -0.13183666581E+03  0.13539818926E+03  0.17770000000E+01 0. -1.
</event>
<event>
 7    1  0.6322078E-006  0.5254447E+03  0.7546771E-02  0.9344609E-01
        -11   -1    0    0    0    0  0.00000000000E+00  0.00000000000E+00  0.50000000000E+03  0.50000000000E+03  0.00000000000E+00 0. -1.
         11   -1    0    0    0    0 -0.00000000000E+00 -0.00000000000E+00 -0.50000000000E+03  0.50000000000E+03  0.00000000000E+00 0.  1.
         23    2    1    2    0    0  0.97882012926E+01  0.54948779568E+02  0.39144910604E+03  0.40595730372E+03  0.91944290525E+02 0.  0.
        -11    1    1    2    0    0  0.81634760790E+02 -0.46017494923E+02  0.74130951908E+02  0.11948741373E+03  0.00000000000E+00 0. -1.
         11    1    1    2    0    0 -0.91422962083E+02 -0.89312846449E+01 -0.46558005795E+03  0.47455528256E+03  0.00000000000E+00 0.  1.
        -15    1    3    3    0    0  0.45852287599E+02  0.18851814029E+02  0.26475231767E+03  0.26935992763E+03  0.17770000000E+01 0. -1.
         15    1    3    3    0    0 -0.36064086306E+02  0.36096965539E+02  0.12669678837E+03  0.13659737609E+03  0.17770000000E+01 0.  1.
</event>
<event>
 7    1  0.6322078E-006  0.4394582E+03  0.7546771E-02  0.9546501E-01
        -11   -1    0    0    0    0  0.00000000000E+00  0.00000000000E+00  0.50000000000E+03  0.50000000000E+03  0.00000000000E+00 0.  1.
         11   -1    0    0    0    0 -0.00000000000E+00 -0.00000000000E+00 -0.50000000000E+03  0.50000000000E+03  0.00000000000E+00 0. -1.
         23    2    1    2    0    0  0.96045262037E+01 -0.64524965514E+01  0.39770213474E+03  0.40862890010E+03  0.93148850679E+02 0.  0.
        -11    1    1    2    0    0  0.22510172359E+02 -0.10643837734E+03  0.56262085236E+02  0.12247962388E+03  0.00000000000E+00 0.  1.
         11    1    1    2    0    0 -0.32114698563E+02  0.11289087389E+03 -0.45396421997E+03  0.46889147602E+03  0.00000000000E+00 0. -1.
        -15    1    3    3    0    0 -0.30300494675E+02 -0.30470564595E+02  0.25228425174E+03  0.25592396662E+03  0.17770000000E+01 0.  1.
         15    1    3    3    0    0  0.39905020879E+02  0.24018068044E+02  0.14541788300E+03  0.15270493348E+03  0.17770000000E+01 0. -1.
</event>
<event>
 7    1  0.6322078E-006  0.3503010E+03  0.7546771E-02  0.9815840E-01
        -11   -1    0    0    0    0  0.00000000000E+00  0.00000000000E+00  0.50000000000E+03  0.50000000000E+03  0.00000000000E+00 0.  1.
         11   -1    0    0    0    0 -0.00000000000E+00 -0.00000000000E+00 -0.50000000000E+03  0.50000000000E+03  0.00000000000E+00 0. -1.
         23    2    1    2    0    0  0.22263297736E+02  0.44731271826E+02  0.23604293181E+03  0.25901690640E+03  0.94217572864E+02 0.  0.
        -11    1    1    2    0    0 -0.40533772651E+02 -0.21655896231E+03  0.18383267242E+03  0.28694114785E+03  0.00000000000E+00 0.  1.
         11    1    1    2    0    0  0.18270474915E+02  0.17182769049E+03 -0.41987560423E+03  0.45404194575E+03  0.00000000000E+00 0. -1.
        -15    1    3    3    0    0 -0.26368831153E+02  0.20077190246E+02  0.26448559135E+02  0.42439284087E+02  0.17770000000E+01 0.  1.
         15    1    3    3    0    0  0.48632128889E+02  0.24654081580E+02  0.20959437268E+03  0.21657762231E+03  0.17770000000E+01 0. -1.
</event>
<event>
 7    1  0.6322078E-006  0.3451584E+03  0.7546771E-02  0.9833946E-01
        -11   -1    0    0    0    0  0.00000000000E+00  0.00000000000E+00  0.50000000000E+03  0.50000000000E+03  0.00000000000E+00 0.  1.
         11   -1    0    0    0    0 -0.00000000000E+00 -0.00000000000E+00 -0.50000000000E+03  0.50000000000E+03  0.00000000000E+00 0. -1.
         23    2    1    2    0    0 -0.19277599180E+03 -0.33497478968E+03  0.12192178210E+03  0.41630548035E+03  0.95260901137E+02 0.  0.
        -11    1    1    2    0    0  0.30760127060E+02  0.23721547157E+03  0.12715039844E+03  0.27089590102E+03  0.00000000000E+00 0.  1.
         11    1    1    2    0    0  0.16201586474E+03  0.97759318107E+02 -0.24907218053E+03  0.31279861863E+03  0.00000000000E+00 0. -1.
        -15    1    3    3    0    0 -0.85930539988E+02 -0.24057412745E+03  0.78342436543E+02  0.26720902604E+03  0.17770000000E+01 0.  1.
         15    1    3    3    0    0 -0.10684545181E+03 -0.94400662224E+02  0.43579345552E+02  0.14909645431E+03  0.17770000000E+01 0. -1.
</event>
<event>
 7    1  0.6322078E-006  0.5010481E+03  0.7546771E-02  0.9397468E-01
        -11   -1    0    0    0    0  0.00000000000E+00  0.00000000000E+00  0.50000000000E+03  0.50000000000E+03  0.00000000000E+00 0. -1.
         11   -1    0    0    0    0 -0.00000000000E+00 -0.00000000000E+00 -0.50000000000E+03  0.50000000000E+03  0.00000000000E+00 0. -1.
         23    2    1    2    0    0  0.11986829069E+03  0.14947743596E+03  0.45408315291E+03  0.50104811321E+03  0.90254036030E+02 0.  0.
        -11    1    1    2    0    0 -0.12560501070E+03 -0.13287855117E+03 -0.36597002281E+03  0.40910559232E+03  0.00000000000E+00 0. -1.
         11    1    1    2    0    0  0.57367200075E+01 -0.16598884791E+02 -0.88113130102E+02  0.89846294466E+02  0.00000000000E+00 0. -1.
        -15    1    3    3    0    0  0.23255669391E+02 -0.99291447798E+01  0.51251591989E+02  0.57177770902E+02  0.17770000000E+01 0.  1.
         15    1    3    3    0    0  0.96612621302E+02  0.15940658074E+03  0.40283156092E+03  0.44387034231E+03  0.17770000000E+01 0. -1.
</event>
<event>
 7    1  0.6322078E-006  0.5055774E+03  0.7546771E-02  0.9387416E-01
        -11   -1    0    0    0    0  0.00000000000E+00  0.00000000000E+00  0.50000000000E+03  0.50000000000E+03  0.00000000000E+00 0.  1.
         11   -1    0    0    0    0 -0.00000000000E+00 -0.00000000000E+00 -0.50000000000E+03  0.50000000000E+03  0.00000000000E+00 0.  1.
         23    2    1    2    0    0  0.61201195995E+02  0.20339219940E+02  0.48146455896E+03  0.49442263676E+03  0.92121397883E+02 0.  0.
        -11    1    1    2    0    0 -0.88898007333E+02  0.11588056730E+01 -0.44925370936E+03  0.45796625848E+03  0.00000000000E+00 0.  1.
         11    1    1    2    0    0  0.27696811338E+02 -0.21498025613E+02 -0.32210849606E+02  0.47611104754E+02  0.00000000000E+00 0.  1.
        -15    1    3    3    0    0  0.13138569033E+02  0.50065604532E+02  0.29718861741E+03  0.30166772913E+03  0.17770000000E+01 0.  1.
         15    1    3    3    0    0  0.48062626962E+02 -0.29726384592E+02  0.18427594156E+03  0.19275490763E+03  0.17770000000E+01 0. -1.
</event>
<event>
 7    1  0.6322078E-006  0.3931772E+03  0.7546771E-02  0.9676778E-01
        -11   -1    0    0    0    0  0.00000000000E+00  0.00000000000E+00  0.50000000000E+03  0.50000000000E+03  0.00000000000E+00 0. -1.
         11   -1    0    0    0    0 -0.00000000000E+00 -0.00000000000E+00 -0.50000000000E+03  0.50000000000E+03  0.00000000000E+00 0. -1.
         23    2    1    2    0    0  0.11908631365E+03  0.10217034277E+03 -0.66220200334E+01  0.19811631121E+03  0.12077206869E+03 0.  0.
        -11    1    1    2    0    0 -0.53868688761E+02 -0.37675203067E+02  0.39621910544E+03  0.40163520273E+03  0.00000000000E+00 0. -1.
         11    1    1    2    0    0 -0.65217624893E+02 -0.64495139700E+02 -0.38959708541E+03  0.40024848607E+03  0.00000000000E+00 0. -1.
        -15    1    3    3    0    0  0.11776241888E+03  0.11591734879E+03  0.21589453011E+02  0.16665557675E+03  0.17770000000E+01 0. -1.
         15    1    3    3    0    0  0.13238947702E+01 -0.13747006025E+02 -0.28211473044E+02  0.31460734453E+02  0.17770000000E+01 0.  1.
</event>
<event>
 7    1  0.6322078E-006  0.4018439E+03  0.7546771E-02  0.9650968E-01
        -11   -1    0    0    0    0  0.00000000000E+00  0.00000000000E+00  0.50000000000E+03  0.50000000000E+03  0.00000000000E+00 0.  1.
         11   -1    0    0    0    0 -0.00000000000E+00 -0.00000000000E+00 -0.50000000000E+03  0.50000000000E+03  0.00000000000E+00 0.  1.
         23    2    1    2    0    0  0.21113948206E+02 -0.97796301872E+02 -0.12033293255E+03  0.18121799417E+03  0.91378505600E+02 0.  0.
        -11    1    1    2    0    0  0.98342811021E+02 -0.72986274823E+02  0.42911351678E+03  0.44624736982E+03  0.00000000000E+00 0.  1.
         11    1    1    2    0    0 -0.11945675923E+03  0.17078257669E+03 -0.30878058423E+03  0.37253463601E+03  0.00000000000E+00 0.  1.
        -15    1    3    3    0    0 -0.35730093010E+02 -0.43956137988E+02 -0.42837369827E+02  0.71042097351E+02  0.17770000000E+01 0.  1.
         15    1    3    3    0    0  0.56844041216E+02 -0.53840163884E+02 -0.77495562719E+02  0.11017589681E+03  0.17770000000E+01 0. -1.
</event>
<event>
 6    1  0.6322078E-006  0.5344755E+03  0.7546771E-02  0.9325809E-01
        -11   -1    0    0    0    0  0.00000000000E+00  0.00000000000E+00  0.50000000000E+03  0.50000000000E+03  0.00000000000E+00 0. -1.
         11   -1    0    0    0    0 -0.00000000000E+00 -0.00000000000E+00 -0.50000000000E+03  0.50000000000E+03  0.00000000000E+00 0.  1.
        -11    1    1    2    0    0  0.13515761539E+03 -0.94207003670E+02  0.12395753483E+03  0.20617470984E+03  0.00000000000E+00 0. -1.
         11    1    1    2    0    0 -0.13175838208E+03  0.15139935598E+03 -0.42003693032E+03  0.46552449889E+03  0.00000000000E+00 0.  1.
        -15    1    1    2    0    0  0.51343501901E+02 -0.65416098508E+02  0.14198205483E+03  0.16455237086E+03  0.17770000000E+01 0. -1.
         15    1    1    2    0    0 -0.54742735208E+02  0.82237461942E+01  0.15409734066E+03  0.16374842041E+03  0.17770000000E+01 0.  1.
</event>
<event>
 7    1  0.6322078E-006  0.5249544E+03  0.7546771E-02  0.9345641E-01
        -11   -1    0    0    0    0  0.00000000000E+00  0.00000000000E+00  0.50000000000E+03  0.50000000000E+03  0.00000000000E+00 0. -1.
         11   -1    0    0    0    0 -0.00000000000E+00 -0.00000000000E+00 -0.50000000000E+03  0.50000000000E+03  0.00000000000E+00 0. -1.
         23    2    1    2    0    0  0.48449050671E+02  0.11622500193E+01  0.21695082139E+03  0.24013046756E+03  0.90809257309E+02 0.  0.
        -11    1    1    2    0    0 -0.11348149374E+03 -0.90499508276E+02  0.24506424458E+03  0.28482397089E+03  0.00000000000E+00 0. -1.
         11    1    1    2    0    0  0.65032443069E+02  0.89337258257E+02 -0.46201506597E+03  0.47504556155E+03  0.00000000000E+00 0. -1.
        -15    1    3    3    0    0  0.51390553094E+02 -0.37420509099E+02  0.14708879249E+03  0.16024841358E+03  0.17770000000E+01 0. -1.
         15    1    3    3    0    0 -0.29415024233E+01  0.38582759118E+02  0.69862028896E+02  0.79882053981E+02  0.17770000000E+01 0.  1.
</event>
<event>
 7    1  0.6322078E-006  0.4686784E+03  0.7546771E-02  0.9472757E-01
        -11   -1    0    0    0    0  0.00000000000E+00  0.00000000000E+00  0.50000000000E+03  0.50000000000E+03  0.00000000000E+00 0.  1.
         11   -1    0    0    0    0 -0.00000000000E+00 -0.00000000000E+00 -0.50000000000E+03  0.50000000000E+03  0.00000000000E+00 0.  1.
         23    2    1    2    0    0  0.22059009578E+03 -0.39094475370E+03 -0.23528336358E+02  0.46558621397E+03  0.12132250091E+03 0.  0.
        -11    1    1    2    0    0 -0.23148535453E+03  0.38392618964E+03  0.97935987064E+02  0.45888587471E+03  0.00000000000E+00 0.  1.
         11    1    1    2    0    0  0.10895258745E+02  0.70185640579E+01 -0.74407650706E+02  0.75527911318E+02  0.00000000000E+00 0.  1.
        -15    1    3    3    0    0  0.13618555229E+03 -0.33561617457E+03 -0.35528926095E+02  0.36393705994E+03  0.17770000000E+01 0.  1.
         15    1    3    3    0    0  0.84404543495E+02 -0.55328579129E+02  0.12000589737E+02  0.10164915403E+03  0.17770000000E+01 0. -1.
</event>
<event>
 7    1  0.6322078E-006  0.5193312E+03  0.7546771E-02  0.9357564E-01
        -11   -1    0    0    0    0  0.00000000000E+00  0.00000000000E+00  0.50000000000E+03  0.50000000000E+03  0.00000000000E+00 0. -1.
         11   -1    0    0    0    0 -0.00000000000E+00 -0.00000000000E+00 -0.50000000000E+03  0.50000000000E+03  0.00000000000E+00 0. -1.
         23    2    1    2    0    0  0.45476496811E+02  0.70802543096E+01  0.31502731304E+03  0.33109614935E+03  0.90907702556E+02 0.  0.
        -11    1    1    2    0    0 -0.75823455141E+02  0.66238015458E+02  0.15904646726E+03  0.18823509181E+03  0.00000000000E+00 0. -1.
         11    1    1    2    0    0  0.30346958330E+02 -0.73318269767E+02 -0.47407378030E+03  0.48066875885E+03  0.00000000000E+00 0. -1.
        -15    1    3    3    0    0 -0.11834165491E+02  0.33976983741E+02  0.80970192902E+02  0.88621739797E+02  0.17770000000E+01 0.  1.
         15    1    3    3    0    0  0.57310662302E+02 -0.26896729432E+02  0.23405712014E+03  0.24247440955E+03  0.17770000000E+01 0. -1.
</event>
<event>
 7    1  0.6322078E-006  0.3768512E+03  0.7546771E-02  0.9727385E-01
        -11   -1    0    0    0    0  0.00000000000E+00  0.00000000000E+00  0.50000000000E+03  0.50000000000E+03  0.00000000000E+00 0.  1.
         11   -1    0    0    0    0 -0.00000000000E+00 -0.00000000000E+00 -0.50000000000E+03  0.50000000000E+03  0.00000000000E+00 0.  1.
         23    2    1    2    0    0 -0.56913496775E+02 -0.17821555843E+03  0.23995448757E+03  0.31955604282E+03  0.97662567128E+02 0.  0.
        -11    1    1    2    0    0 -0.64309604145E+02  0.10041974422E+03  0.19149351366E+03  0.22558726912E+03  0.00000000000E+00 0.  1.
         11    1    1    2    0    0  0.12122310092E+03  0.77795814206E+02 -0.43144800123E+03  0.45485668806E+03  0.00000000000E+00 0.  1.
        -15    1    3    3    0    0 -0.26471110661E+02 -0.96918410397E+02  0.53415848286E+02  0.11379942245E+03  0.17770000000E+01 0. -1.
         15    1    3    3    0    0 -0.30442386114E+02 -0.81297148029E+02  0.18653863929E+03  0.20575662037E+03  0.17770000000E+01 0.  1.
</event>
<event>
 7    1  0.6322078E-006  0.5146444E+03  0.7546771E-02  0.9367625E-01
        -11   -1    0    0    0    0  0.00000000000E+00  0.00000000000E+00  0.50000000000E+03  0.50000000000E+03  0.00000000000E+00 0.  1.
         11   -1    0    0    0    0 -0.00000000000E+00 -0.00000000000E+00 -0.50000000000E+03  0.50000000000E+03  0.00000000000E+00 0. -1.
         23    2    1    2    0    0 -0.19279659151E+02  0.63952322235E+02  0.26482743785E+03  0.28787252502E+03  0.90969302768E+02 0.  0.
        -11    1    1    2    0    0  0.75482269574E+02 -0.59292907135E+01  0.21375864737E+03  0.22677188722E+03  0.00000000000E+00 0.  1.
         11    1    1    2    0    0 -0.56202610423E+02 -0.58023031522E+02 -0.47858608522E+03  0.48535558776E+03  0.00000000000E+00 0. -1.
        -15    1    3    3    0    0 -0.59401934295E+01  0.83057377798E+02  0.23872799397E+03  0.25283992315E+03  0.17770000000E+01 0.  1.
         15    1    3    3    0    0 -0.13339465722E+02 -0.19105055563E+02  0.26099443879E+02  0.35032601867E+02  0.17770000000E+01 0. -1.
</event>
<event>
 7    1  0.1059130E-005  0.5211419E+03  0.7546771E-02  0.9353707E-01
        -11   -1    0    0    0    0  0.00000000000E+00  0.00000000000E+00  0.50000000000E+03  0.50000000000E+03  0.00000000000E+00 0.  1.
         11   -1    0    0    0    0 -0.00000000000E+00 -0.00000000000E+00 -0.50000000000E+03  0.50000000000E+03  0.00000000000E+00 0. -1.
         23    2    1    2    0    0  0.30390258022E+02 -0.22845015292E+02 -0.25172462240E+03  0.26983570027E+03  0.89445833378E+02 0.  0.
        -11    1    1    2    0    0 -0.17663085382E+03  0.13022683254E+03  0.42561436494E+03  0.47885809389E+03  0.00000000000E+00 0.  1.
         11    1    1    2    0    0  0.14624059580E+03 -0.10738181725E+03 -0.17388974254E+03  0.25130620584E+03  0.00000000000E+00 0. -1.
        -15    1    3    3    0    0  0.43642542441E+02  0.22984901062E+02 -0.13384902932E+03  0.14265937602E+03  0.17770000000E+01 0. -1.
         15    1    3    3    0    0 -0.13252284419E+02 -0.45829916355E+02 -0.11787559308E+03  0.12717632425E+03  0.17770000000E+01 0.  1.
</event>
<event>
 7    1  0.6322078E-006  0.3592994E+03  0.7546771E-02  0.9784946E-01
        -11   -1    0    0    0    0  0.00000000000E+00  0.00000000000E+00  0.50000000000E+03  0.50000000000E+03  0.00000000000E+00 0.  1.
         11   -1    0    0    0    0 -0.00000000000E+00 -0.00000000000E+00 -0.50000000000E+03  0.50000000000E+03  0.00000000000E+00 0. -1.
         23    2    1    2    0    0 -0.38211812632E+02  0.38018291599E+02 -0.22131530295E+03  0.24616294807E+03  0.93328455282E+02 0.  0.
        -11    1    1    2    0    0  0.26316468938E+03  0.22294942831E+03  0.22036501783E+03  0.40929554408E+03  0.00000000000E+00 0.  1.
         11    1    1    2    0    0 -0.22495287675E+03 -0.26096771990E+03  0.95028512120E+00  0.34454150785E+03  0.00000000000E+00 0. -1.
        -15    1    3    3    0    0 -0.32120133998E+01  0.61013337115E+02 -0.16502372679E+03  0.17597992064E+03  0.17770000000E+01 0.  1.
         15    1    3    3    0    0 -0.34999799232E+02 -0.22995045516E+02 -0.56291576160E+02  0.70183027437E+02  0.17770000000E+01 0. -1.
</event>
<event>
 7    1  0.6322078E-006  0.5156074E+03  0.7546771E-02  0.9365549E-01
        -11   -1    0    0    0    0  0.00000000000E+00  0.00000000000E+00  0.50000000000E+03  0.50000000000E+03  0.00000000000E+00 0. -1.
         11   -1    0    0    0    0 -0.00000000000E+00 -0.00000000000E+00 -0.50000000000E+03  0.50000000000E+03  0.00000000000E+00 0.  1.
         23    2    1    2    0    0 -0.36231656663E+01  0.30743146187E+02  0.11633099885E+03  0.15137102885E+03  0.91771557216E+02 0.  0.
        -11    1    1    2    0    0  0.50752939498E+01  0.73666710034E+02  0.35667291091E+03  0.36423633558E+03  0.00000000000E+00 0. -1.
         11    1    1    2    0    0 -0.14521282835E+01 -0.10440985622E+03 -0.47300390976E+03  0.48439263558E+03  0.00000000000E+00 0.  1.
        -15    1    3    3    0    0 -0.23809687881E+02  0.19528243572E+02  0.12336732556E+03  0.12716488619E+03  0.17770000000E+01 0. -1.
         15    1    3    3    0    0  0.20186522214E+02  0.11214902614E+02 -0.70363267129E+01  0.24206142658E+02  0.17770000000E+01 0.  1.
</event>
<event>
 7    1  0.6322078E-006  0.4060770E+03  0.7546771E-02  0.9638614E-01
        -11   -1    0    0    0    0  0.00000000000E+00  0.00000000000E+00  0.50000000000E+03  0.50000000000E+03  0.00000000000E+00 0. -1.
         11   -1    0    0    0    0 -0.00000000000E+00 -0.00000000000E+00 -0.50000000000E+03  0.50000000000E+03  0.00000000000E+00 0.  1.
         23    2    1    2    0    0  0.56252146119E+02 -0.88897476353E-02  0.13840722383E+03  0.17421863058E+03  0.89617339891E+02 0.  0.
        -11    1    1    2    0    0 -0.33575433991E+03  0.26497406412E+03 -0.95644302865E+02  0.43828080507E+03  0.00000000000E+00 0. -1.
         11    1    1    2    0    0  0.27950219379E+03 -0.26496517437E+03 -0.42762920968E+02  0.38750056435E+03  0.00000000000E+00 0.  1.
        -15    1    3    3    0    0 -0.22020481534E+02 -0.13150625526E+02  0.25643003213E+02  0.36312007676E+02  0.17770000000E+01 0.  1.
         15    1    3    3    0    0  0.78272627653E+02  0.13141735778E+02  0.11276422062E+03  0.13790662290E+03  0.17770000000E+01 0. -1.
</event>
<event>
 7    1  0.6322078E-006  0.5147064E+03  0.7546771E-02  0.9367491E-01
        -11   -1    0    0    0    0  0.00000000000E+00  0.00000000000E+00  0.50000000000E+03  0.50000000000E+03  0.00000000000E+00 0.  1.
         11   -1    0    0    0    0 -0.00000000000E+00 -0.00000000000E+00 -0.50000000000E+03  0.50000000000E+03  0.00000000000E+00 0. -1.
         23    2    1    2    0    0 -0.41756352908E+01 -0.50883243378E+02  0.15026764750E+03  0.18271031863E+03  0.90532614349E+02 0.  0.
        -11    1    1    2    0    0  0.68263527556E+02 -0.35484460048E+02  0.32295874940E+03  0.33199609924E+03  0.00000000000E+00 0.  1.
         11    1    1    2    0    0 -0.64087892265E+02  0.86367703426E+02 -0.47322639690E+03  0.48529358213E+03  0.00000000000E+00 0. -1.
        -15    1    3    3    0    0  0.14401296082E+02 -0.73321769158E+02  0.10707972978E+03  0.13058600775E+03  0.17770000000E+01 0.  1.
         15    1    3    3    0    0 -0.18576931373E+02  0.22438525780E+02  0.43187917725E+02  0.52124310881E+02  0.17770000000E+01 0. -1.
</event>
<event>
 7    1  0.6322078E-006  0.5207325E+03  0.7546771E-02  0.9354578E-01
        -11   -1    0    0    0    0  0.00000000000E+00  0.00000000000E+00  0.50000000000E+03  0.50000000000E+03  0.00000000000E+00 0. -1.
         11   -1    0    0    0    0 -0.00000000000E+00 -0.00000000000E+00 -0.50000000000E+03  0.50000000000E+03  0.00000000000E+00 0.  1.
         23    2    1    2    0    0  0.69818975840E+02  0.10848212375E+03  0.25076654809E+03  0.29823939715E+03  0.97055735582E+02 0.  0.
        -11    1    1    2    0    0  0.16433995890E+02 -0.47575893421E+02  0.21672481715E+03  0.22249311950E+03  0.00000000000E+00 0. -1.
         11    1    1    2    0    0 -0.86252971729E+02 -0.60906230328E+02 -0.46749136524E+03  0.47926748335E+03  0.00000000000E+00 0.  1.
        -15    1    3    3    0    0  0.13735295433E+02  0.81274449987E+02  0.73962361342E+02  0.11076002521E+03  0.17770000000E+01 0.  1.
         15    1    3    3    0    0  0.56083680407E+02  0.27207673762E+02  0.17680418675E+03  0.18747937194E+03  0.17770000000E+01 0. -1.
</event>
<event>
 7    1  0.6322078E-006  0.5330644E+03  0.7546771E-02  0.9328721E-01
        -11   -1    0    0    0    0  0.00000000000E+00  0.00000000000E+00  0.50000000000E+03  0.50000000000E+03  0.00000000000E+00 0. -1.
         11   -1    0    0    0    0 -0.00000000000E+00 -0.00000000000E+00 -0.50000000000E+03  0.50000000000E+03  0.00000000000E+00 0.  1.
         23    2    1    2    0    0 -0.83783999915E+01  0.48457264072E+02  0.34448732324E+03  0.35966658223E+03  0.90940807534E+02 0.  0.
        -11    1    1    2    0    0  0.64844656931E+02  0.14011516567E+03  0.78928430551E+02  0.17339776911E+03  0.00000000000E+00 0. -1.
         11    1    1    2    0    0 -0.56466256940E+02 -0.18857242974E+03 -0.42341575379E+03  0.46693564866E+03  0.00000000000E+00 0.  1.
        -15    1    3    3    0    0 -0.26274708918E+02 -0.19689956996E+02  0.11316794854E+03  0.11784819490E+03  0.17770000000E+01 0.  1.
         15    1    3    3    0    0  0.17896308927E+02  0.68147221068E+02  0.23131937470E+03  0.24181838733E+03  0.17770000000E+01 0. -1.
</event>
<event>
 7    1  0.6322078E-006  0.4446398E+03  0.7546771E-02  0.9532986E-01
        -11   -1    0    0    0    0  0.00000000000E+00  0.00000000000E+00  0.50000000000E+03  0.50000000000E+03  0.00000000000E+00 0.  1.
         11   -1    0    0    0    0 -0.00000000000E+00 -0.00000000000E+00 -0.50000000000E+03  0.50000000000E+03  0.00000000000E+00 0.  1.
         23    2    1    2    0    0  0.37230000652E+02 -0.13245859774E+02  0.46102624776E+03  0.47173531280E+03  0.91801298831E+02 0.  0.
        -11    1    1    2    0    0  0.19817153556E+02  0.95024032090E+02 -0.57976174525E+02  0.11306424308E+03  0.00000000000E+00 0.  1.
         11    1    1    2    0    0 -0.57047154209E+02 -0.81778172316E+02 -0.40305007323E+03  0.41520044413E+03  0.00000000000E+00 0.  1.
        -15    1    3    3    0    0  0.67240973226E+02 -0.17697171259E+02  0.32123682112E+03  0.32868037868E+03  0.17770000000E+01 0.  1.
         15    1    3    3    0    0 -0.30010972574E+02  0.44513114847E+01  0.13978942663E+03  0.14305493412E+03  0.17770000000E+01 0. -1.
</event>
<event>
 7    1  0.6322078E-006  0.5107870E+03  0.7546771E-02  0.9375991E-01
        -11   -1    0    0    0    0  0.00000000000E+00  0.00000000000E+00  0.50000000000E+03  0.50000000000E+03  0.00000000000E+00 0. -1.
         11   -1    0    0    0    0 -0.00000000000E+00 -0.00000000000E+00 -0.50000000000E+03  0.50000000000E+03  0.00000000000E+00 0.  1.
         23    2    1    2    0    0 -0.17931011037E+02 -0.54701123658E+02  0.19112908557E+03  0.22008213153E+03  0.92693490514E+02 0.  0.
        -11    1    1    2    0    0 -0.62115675234E+02 -0.63133185685E+02  0.27688475634E+03  0.29070487533E+03  0.00000000000E+00 0. -1.
         11    1    1    2    0    0  0.80046686271E+02  0.11783430934E+03 -0.46801384191E+03  0.48921299314E+03  0.00000000000E+00 0.  1.
        -15    1    3    3    0    0 -0.21620378490E+02 -0.22533930149E+02  0.56442597115E+01  0.31784181139E+02  0.17770000000E+01 0. -1.
         15    1    3    3    0    0  0.36893674524E+01 -0.32167193509E+02  0.18548482586E+03  0.18829795039E+03  0.17770000000E+01 0.  1.
</event>
<event>
 7    1  0.6322078E-006  0.4344095E+03  0.7546771E-02  0.9559862E-01
        -11   -1    0    0    0    0  0.00000000000E+00  0.00000000000E+00  0.50000000000E+03  0.50000000000E+03  0.00000000000E+00 0.  1.
         11   -1    0    0    0    0 -0.00000000000E+00 -0.00000000000E+00 -0.50000000000E+03  0.50000000000E+03  0.00000000000E+00 0. -1.
         23    2    1    2    0    0 -0.44492069596E+02 -0.13135198103E+03  0.39200517403E+03  0.42592822833E+03  0.92270862367E+02 0.  0.
        -11    1    1    2    0    0 -0.29407844124E+02  0.11977798423E+03  0.44565111863E+02  0.13113975750E+03  0.00000000000E+00 0.  1.
         11    1    1    2    0    0  0.73899913720E+02  0.11573996794E+02 -0.43657028589E+03  0.44293201417E+03  0.00000000000E+00 0. -1.
        -15    1    3    3    0    0 -0.23474895592E+02  0.65166380011E+01  0.35321456053E+02  0.42945317331E+02  0.17770000000E+01 0. -1.
         15    1    3    3    0    0 -0.21017174004E+02 -0.13786861903E+03  0.35668371798E+03  0.38298291100E+03  0.17770000000E+01 0.  1.
</event>
<event>
 7    1  0.6322078E-006  0.3985171E+03  0.7546771E-02  0.9660792E-01
        -11   -1    0    0    0    0  0.00000000000E+00  0.00000000000E+00  0.50000000000E+03  0.50000000000E+03  0.00000000000E+00 0. -1.
         11   -1    0    0    0    0 -0.00000000000E+00 -0.00000000000E+00 -0.50000000000E+03  0.50000000000E+03  0.00000000000E+00 0.  1.
         23    2    1    2    0    0  0.12398076345E+03  0.87409807969E+02  0.39908780248E+03  0.43621438940E+03  0.89443922071E+02 0.  0.
        -11    1    1    2    0    0 -0.98502271439E+02 -0.15945655285E+03 -0.33626631779E+02  0.19042016724E+03  0.00000000000E+00 0. -1.
         11    1    1    2    0    0 -0.25478492009E+02  0.72046744886E+02 -0.36546117070E+03  0.37336544336E+03  0.00000000000E+00 0.  1.
        -15    1    3    3    0    0  0.27094366889E+02 -0.14069350989E+02  0.12005235019E+03  0.12388614075E+03  0.17770000000E+01 0.  1.
         15    1    3    3    0    0  0.96886396559E+02  0.10147915896E+03  0.27903545229E+03  0.31232824865E+03  0.17770000000E+01 0. -1.
</event>
<event>
 7    1  0.6322078E-006  0.5383892E+03  0.7546771E-02  0.9317784E-01
        -11   -1    0    0    0    0  0.00000000000E+00  0.00000000000E+00  0.50000000000E+03  0.50000000000E+03  0.00000000000E+00 0.  1.
         11   -1    0    0    0    0 -0.00000000000E+00 -0.00000000000E+00 -0.50000000000E+03  0.50000000000E+03  0.00000000000E+00 0. -1.
         23    2    1    2    0    0  0.14731618067E+02 -0.46563121335E+02 -0.13047852354E+03  0.16642914594E+03  0.91043235192E+02 0.  0.
        -11    1    1    2    0    0  0.63895412295E+02 -0.16433685634E+03  0.42660905095E+03  0.46161077589E+03  0.00000000000E+00 0.  1.
         11    1    1    2    0    0 -0.78627030362E+02  0.21089997767E+03 -0.29613052741E+03  0.37196007817E+03  0.00000000000E+00 0. -1.
        -15    1    3    3    0    0  0.52031833799E+02 -0.30036345207E+02 -0.94550862849E+02  0.11203801657E+03  0.17770000000E+01 0.  1.
         15    1    3    3    0    0 -0.37300215732E+02 -0.16526776127E+02 -0.35927660694E+02  0.54391129376E+02  0.17770000000E+01 0. -1.
</event>
<event>
 6    1  0.6322078E-006  0.4166614E+03  0.7546771E-02  0.9608413E-01
        -11   -1    0    0    0    0  0.00000000000E+00  0.00000000000E+00  0.50000000000E+03  0.50000000000E+03  0.00000000000E+00 0. -1.
         11   -1    0    0    0    0 -0.00000000000E+00 -0.00000000000E+00 -0.50000000000E+03  0.50000000000E+03  0.00000000000E+00 0.  1.
        -11    1    1    2    0    0 -0.11216309565E+02 -0.13042942452E+03  0.11983866082E+03  0.17747942136E+03  0.00000000000E+00 0. -1.
         11    1    1    2    0    0 -0.96414586675E+02 -0.62112923013E+01 -0.42639475148E+03  0.43720342721E+03  0.00000000000E+00 0.  1.
        -15    1    1    2    0    0  0.45564199392E+02  0.12272838080E+03  0.29204818185E+03  0.32005257376E+03  0.17770000000E+01 0. -1.
         15    1    1    2    0    0  0.62066696847E+02  0.13912336015E+02  0.14507908812E+02  0.65264577667E+02  0.17770000000E+01 0.  1.
</event>
<event>
 7    1  0.6322078E-006  0.5158751E+03  0.7546771E-02  0.9364972E-01
        -11   -1    0    0    0    0  0.00000000000E+00  0.00000000000E+00  0.50000000000E+03  0.50000000000E+03  0.00000000000E+00 0.  1.
         11   -1    0    0    0    0 -0.00000000000E+00 -0.00000000000E+00 -0.50000000000E+03  0.50000000000E+03  0.00000000000E+00 0. -1.
         23    2    1    2    0    0 -0.61342149129E+02 -0.92503024177E+02  0.11920367337E+03  0.18463793390E+03  0.86959658158E+02 0.  0.
        -11    1    1    2    0    0 -0.23423033432E+03 -0.10586591025E+03  0.20891768185E+03  0.33123713298E+03  0.00000000000E+00 0.  1.
         11    1    1    2    0    0  0.29557248345E+03  0.19836893443E+03 -0.32812135523E+03  0.48412493313E+03  0.00000000000E+00 0. -1.
        -15    1    3    3    0    0 -0.49031393600E+02 -0.10933265592E+03  0.10516362558E+03  0.15943730142E+03  0.17770000000E+01 0. -1.
         15    1    3    3    0    0 -0.12310755529E+02  0.16829631745E+02  0.14040047793E+02  0.25200632480E+02  0.17770000000E+01 0.  1.
</event>
<event>
 7    1  0.6322078E-006  0.3701509E+03  0.7546771E-02  0.9748954E-01
        -11   -1    0    0    0    0  0.00000000000E+00  0.00000000000E+00  0.50000000000E+03  0.50000000000E+03  0.00000000000E+00 0.  1.
         11   -1    0    0    0    0 -0.00000000000E+00 -0.00000000000E+00 -0.50000000000E+03  0.50000000000E+03  0.00000000000E+00 0.  1.
         23    2    1    2    0    0 -0.62760986252E+02  0.43105672951E+02  0.43709779351E+03  0.45306472052E+03  0.91739410601E+02 0.  0.
        -11    1    1    2    0    0  0.17734296803E+03 -0.45692955565E+02 -0.14639959233E+03  0.23445941041E+03  0.00000000000E+00 0.  1.
         11    1    1    2    0    0 -0.11458198178E+03  0.25872826138E+01 -0.29069820118E+03  0.31247586907E+03  0.00000000000E+00 0.  1.
        -15    1    3    3    0    0 -0.54935500528E+02 -0.14658927145E+02  0.27429339166E+03  0.28012999804E+03  0.17770000000E+01 0.  1.
         15    1    3    3    0    0 -0.78254857243E+01  0.57764600096E+02  0.16280440185E+03  0.17293472248E+03  0.17770000000E+01 0. -1.
</event>
<event>
 6    1  0.6322078E-006  0.4574354E+03  0.7546771E-02  0.9500436E-01
        -11   -1    0    0    0    0  0.00000000000E+00  0.00000000000E+00  0.50000000000E+03  0.50000000000E+03  0.00000000000E+00 0. -1.
         11   -1    0    0    0    0 -0.00000000000E+00 -0.00000000000E+00 -0.50000000000E+03  0.50000000000E+03  0.00000000000E+00 0.  1.
        -11    1    1    2    0    0 -0.52823789005E+02 -0.85516262105E+02 -0.69130451143E+02  0.12199345492E+03  0.00000000000E+00 0. -1.
         11    1    1    2    0    0  0.75854204262E+02 -0.35750326792E+01 -0.37512827653E+03  0.38273733162E+03  0.00000000000E+00 0.  1.
        -15    1    1    2    0    0 -0.32845677357E+02  0.10021719379E+03  0.46095144346E+03  0.47286543055E+03  0.17770000000E+01 0. -1.
         15    1    1    2    0    0  0.98152620995E+01 -0.11125899007E+02 -0.16692715788E+02  0.22403782898E+02  0.17770000000E+01 0.  1.
</event>
<event>
 7    1  0.6322078E-006  0.5127568E+03  0.7546771E-02  0.9371709E-01
        -11   -1    0    0    0    0  0.00000000000E+00  0.00000000000E+00  0.50000000000E+03  0.50000000000E+03  0.00000000000E+00 0. -1.
         11   -1    0    0    0    0 -0.00000000000E+00 -0.00000000000E+00 -0.50000000000E+03  0.50000000000E+03  0.00000000000E+00 0.  1.
         23    2    1    2    0    0 -0.10963383544E+03 -0.14280315779E+01 -0.34585667700E+03  0.37395182528E+03  0.90562185558E+02 0.  0.
        -11    1    1    2    0    0  0.17202430828E+03  0.67371600265E+02  0.45085993503E+03  0.48724324128E+03  0.00000000000E+00 0. -1.
         11    1    1    2    0    0 -0.62390472842E+02 -0.65943568687E+02 -0.10500325802E+03  0.13880493344E+03  0.00000000000E+00 0.  1.
        -15    1    3    3    0    0 -0.22922796753E+02  0.39947564420E+02 -0.11531108479E+03  0.12418158688E+03  0.17770000000E+01 0. -1.
         15    1    3    3    0    0 -0.86711038684E+02 -0.41375595997E+02 -0.23054559221E+03  0.24977023840E+03  0.17770000000E+01 0.  1.
</event>
<event>
 7    1  0.6322078E-006  0.5231053E+03  0.7546771E-02  0.9349544E-01
        -11   -1    0    0    0    0  0.00000000000E+00  0.00000000000E+00  0.50000000000E+03  0.50000000000E+03  0.00000000000E+00 0. -1.
         11   -1    0    0    0    0 -0.00000000000E+00 -0.00000000000E+00 -0.50000000000E+03  0.50000000000E+03  0.00000000000E+00 0.  1.
         23    2    1    2    0    0  0.11306427675E+02 -0.29978715282E+02  0.14952304948E+03  0.17448961350E+03  0.84041205480E+02 0.  0.
        -11    1    1    2    0    0 -0.19863533162E+03 -0.82086176730E+02  0.27447913349E+03  0.34861573416E+03  0.00000000000E+00 0. -1.
         11    1    1    2    0    0  0.18732890395E+03  0.11206489201E+03 -0.42400218296E+03  0.47689465234E+03  0.00000000000E+00 0.  1.
        -15    1    3    3    0    0 -0.29070195206E+02 -0.38534113970E+02  0.73130387826E+02  0.87642258879E+02  0.17770000000E+01 0.  1.
         15    1    3    3    0    0  0.40376622881E+02  0.85553986876E+01  0.76392661649E+02  0.86847354622E+02  0.17770000000E+01 0. -1.
</event>
<event>
 7    1  0.6322078E-006  0.4084664E+03  0.7546771E-02  0.9631711E-01
        -11   -1    0    0    0    0  0.00000000000E+00  0.00000000000E+00  0.50000000000E+03  0.50000000000E+03  0.00000000000E+00 0.  1.
         11   -1    0    0    0    0 -0.00000000000E+00 -0.00000000000E+00 -0.50000000000E+03  0.50000000000E+03  0.00000000000E+00 0. -1.
         23    2    1    2    0    0  0.16471190132E+02 -0.13471588519E+03  0.45036304052E+02  0.17064654787E+03  0.93125215642E+02 0.  0.
        -11    1    1    2    0    0  0.24813007537E+03  0.29355841179E+03  0.20183382798E+03  0.43414510196E+03  0.00000000000E+00 0.  1.
         11    1    1    2    0    0 -0.26460126550E+03 -0.15884252660E+03 -0.24687013203E+03  0.39520835018E+03  0.00000000000E+00 0. -1.
        -15    1    3    3    0    0 -0.54231821291E+01 -0.80309279007E+02 -0.20097568013E+02  0.82982294305E+02  0.17770000000E+01 0.  1.
         15    1    3    3    0    0  0.21894372262E+02 -0.54406606187E+02  0.65133872065E+02  0.87664253563E+02  0.17770000000E+01 0. -1.
</event>
<event>
 7    1  0.6322078E-006  0.5074279E+03  0.7546771E-02  0.9383341E-01
        -11   -1    0    0    0    0  0.00000000000E+00  0.00000000000E+00  0.50000000000E+03  0.50000000000E+03  0.00000000000E+00 0. -1.
         11   -1    0    0    0    0 -0.00000000000E+00 -0.00000000000E+00 -0.50000000000E+03  0.50000000000E+03  0.00000000000E+00 0.  1.
         23    2    1    2    0    0 -0.44976265563E+02  0.99215014927E+02 -0.32510472097E+03  0.35453010327E+03  0.90177773756E+02 0.  0.
        -11    1    1    2    0    0  0.27594085006E+02 -0.14599519332E+03  0.46962882077E+03  0.49257208538E+03  0.00000000000E+00 0. -1.
         11    1    1    2    0    0  0.17382180557E+02  0.46780178393E+02 -0.14452409980E+03  0.15289781135E+03  0.00000000000E+00 0.  1.
        -15    1    3    3    0    0  0.10912296627E+01  0.63736054909E+02 -0.25779553542E+03  0.26556575699E+03  0.17770000000E+01 0.  1.
         15    1    3    3    0    0 -0.46067495226E+02  0.35478960018E+02 -0.67309185553E+02  0.88964346281E+02  0.17770000000E+01 0. -1.
</event>
<event>
 7    1  0.6322078E-006  0.5363732E+03  0.7546771E-02  0.9321909E-01
        -11   -1    0    0    0    0  0.00000000000E+00  0.00000000000E+00  0.50000000000E+03  0.50000000000E+03  0.00000000000E+00 0.  1.
         11   -1    0    0    0    0 -0.00000000000E+00 -0.00000000000E+00 -0.50000000000E+03  0.50000000000E+03  0.00000000000E+00 0. -1.
         23    2    1    2    0    0 -0.61858342930E+02  0.44072679389E+01  0.23704133144E+03  0.26205706696E+03  0.92948560698E+02 0.  0.
        -11    1    1    2    0    0  0.16724019516E+03  0.53774542090E+02  0.21068549806E+03  0.27431617405E+03  0.00000000000E+00 0.  1.
         11    1    1    2    0    0 -0.10538185223E+03 -0.58181810029E+02 -0.44772682949E+03  0.46362675898E+03  0.00000000000E+00 0. -1.
        -15    1    3    3    0    0 -0.73120816555E+01  0.42468460626E+02  0.11870780954E+03  0.12630019185E+03  0.17770000000E+01 0.  1.
         15    1    3    3    0    0 -0.54546261274E+02 -0.38061192687E+02  0.11833352189E+03  0.13575687511E+03  0.17770000000E+01 0. -1.
</event>
<event>
 7    1  0.6322078E-006  0.5016468E+03  0.7546771E-02  0.9396132E-01
        -11   -1    0    0    0    0  0.00000000000E+00  0.00000000000E+00  0.50000000000E+03  0.50000000000E+03  0.00000000000E+00 0. -1.
         11   -1    0    0    0    0 -0.00000000000E+00 -0.00000000000E+00 -0.50000000000E+03  0.50000000000E+03  0.00000000000E+00 0. -1.
         23    2    1    2    0    0 -0.91605077128E+02  0.81696506544E+02  0.47840845077E+03  0.50164681834E+03  0.87801339654E+02 0.  0.
        -11    1    1    2    0    0  0.95564140667E+02 -0.64582836771E+02 -0.45307388717E+03  0.46752475338E+03  0.00000000000E+00 0. -1.
         11    1    1    2    0    0 -0.39590635388E+01 -0.17113669772E+02 -0.25334563598E+02  0.30828428275E+02  0.00000000000E+00 0. -1.
        -15    1    3    3    0    0 -0.72728300671E+01  0.38070883256E+02  0.52511536592E+02  0.65290929028E+02  0.17770000000E+01 0.  1.
         15    1    3    3    0    0 -0.84332247061E+02  0.43625623287E+02  0.42589691418E+03  0.43635588931E+03  0.17770000000E+01 0. -1.
</event>
<event>
 7    1  0.6322078E-006  0.5308533E+03  0.7546771E-02  0.9333302E-01
        -11   -1    0    0    0    0  0.00000000000E+00  0.00000000000E+00  0.50000000000E+03  0.50000000000E+03  0.00000000000E+00 0.  1.
         11   -1    0    0    0    0 -0.00000000000E+00 -0.00000000000E+00 -0.50000000000E+03  0.50000000000E+03  0.00000000000E+00 0. -1.
         23    2    1    2    0    0 -0.66381121225E+02  0.62626459170E+02 -0.98268405789E+02  0.16266121249E+03  0.92051419479E+02 0.  0.
        -11    1    1    2    0    0  0.14941817919E+03  0.35474610580E+02  0.44329945432E+03  0.46914672169E+03  0.00000000000E+00 0.  1.
         11    1    1    2    0    0 -0.83037057966E+02 -0.98101069751E+02 -0.34503104853E+03  0.36819206582E+03  0.00000000000E+00 0. -1.
        -15    1    3    3    0    0 -0.51779896537E+02  0.86142582039E+02 -0.86164979514E+02  0.13239812517E+03  0.17770000000E+01 0.  1.
         15    1    3    3    0    0 -0.14601224689E+02 -0.23516122869E+02 -0.12103426275E+02  0.30263087314E+02  0.17770000000E+01 0. -1.
</event>
<event>
 7    1  0.6322078E-006  0.4009990E+03  0.7546771E-02  0.9653454E-01
        -11   -1    0    0    0    0  0.00000000000E+00  0.00000000000E+00  0.50000000000E+03  0.50000000000E+03  0.00000000000E+00 0.  1.
         11   -1    0    0    0    0 -0.00000000000E+00 -0.00000000000E+00 -0.50000000000E+03  0.50000000000E+03  0.00000000000E+00 0.  1.
         23    2    1    2    0    0 -0.98196098281E+02  0.32384819702E+02  0.41426370943E+03  0.43598734691E+03  0.88200314372E+02 0.  0.
        -11    1    1    2    0    0  0.17387652100E+03 -0.49637055886E+02 -0.44538548934E+02  0.18622718441E+03  0.00000000000E+00 0.  1.
         11    1    1    2    0    0 -0.75680422722E+02  0.17252236184E+02 -0.36972516050E+03  0.37778546867E+03  0.00000000000E+00 0.  1.
        -15    1    3    3    0    0 -0.55229107274E+02 -0.23734920922E+02  0.13285364890E+03  0.14583158271E+03  0.17770000000E+01 0.  1.
         15    1    3    3    0    0 -0.42966991006E+02  0.56119740624E+02  0.28141006053E+03  0.29015576420E+03  0.17770000000E+01 0. -1.
</event>
<event>
 7    1  0.6322078E-006  0.4901515E+03  0.7546771E-02  0.9422120E-01
        -11   -1    0    0    0    0  0.00000000000E+00  0.00000000000E+00  0.50000000000E+03  0.50000000000E+03  0.00000000000E+00 0. -1.
         11   -1    0    0    0    0 -0.00000000000E+00 -0.00000000000E+00 -0.50000000000E+03  0.50000000000E+03  0.00000000000E+00 0.  1.
         23    2    1    2    0    0  0.13401539222E+03 -0.96046911363E+02  0.45064546466E+03  0.48811133565E+03  0.89365578585E+02 0.  0.
        -11    1    1    2    0    0 -0.16892466603E+02 -0.21264326918E+02  0.44704103491E+01  0.27522928549E+02  0.00000000000E+00 0. -1.
         11    1    1    2    0    0 -0.11712292562E+03  0.11731123828E+03 -0.45511587501E+03  0.48436573580E+03  0.00000000000E+00 0.  1.
        -15    1    3    3    0    0 -0.40756550358E+01 -0.22179930131E+02  0.12170482334E+03  0.12378926455E+03  0.17770000000E+01 0.  1.
         15    1    3    3    0    0  0.13809104726E+03 -0.73866981232E+02  0.32894064132E+03  0.36432207110E+03  0.17770000000E+01 0. -1.
</event>
<event>
 7    1  0.6322078E-006  0.3464121E+03  0.7546771E-02  0.9829501E-01
        -11   -1    0    0    0    0  0.00000000000E+00  0.00000000000E+00  0.50000000000E+03  0.50000000000E+03  0.00000000000E+00 0.  1.
         11   -1    0    0    0    0 -0.00000000000E+00 -0.00000000000E+00 -0.50000000000E+03  0.50000000000E+03  0.00000000000E+00 0. -1.
         23    2    1    2    0    0 -0.46733362435E+02  0.33202716836E+02  0.24749046666E+03  0.26206816180E+03  0.64356528604E+02 0.  0.
        -11    1    1    2    0    0  0.57455535733E+02  0.26474886521E+03  0.92002041321E+02  0.28610745503E+03  0.00000000000E+00 0.  1.
         11    1    1    2    0    0 -0.10722173298E+02 -0.29795158205E+03 -0.33949250798E+03  0.45182438316E+03  0.00000000000E+00 0. -1.
        -15    1    3    3    0    0 -0.21498349247E+02 -0.18490699083E+02  0.73141698711E+02  0.78466239825E+02  0.17770000000E+01 0.  1.
         15    1    3    3    0    0 -0.25235013188E+02  0.51693415920E+02  0.17434876795E+03  0.18360192198E+03  0.17770000000E+01 0. -1.
</event>
<event>
 7    1  0.6322078E-006  0.3636125E+03  0.7546771E-02  0.9770479E-01
        -11   -1    0    0    0    0  0.00000000000E+00  0.00000000000E+00  0.50000000000E+03  0.50000000000E+03  0.00000000000E+00 0. -1.
         11   -1    0    0    0    0 -0.00000000000E+00 -0.00000000000E+00 -0.50000000000E+03  0.50000000000E+03  0.00000000000E+00 0. -1.
         23    2    1    2    0    0 -0.38539121092E+02  0.23237458688E+02 -0.21753727164E+03  0.23960275620E+03  0.89787375981E+02 0.  0.
        -11    1    1    2    0    0  0.86010815940E+01  0.35136388494E+03  0.82012510672E+02  0.36091080636E+03  0.00000000000E+00 0. -1.
         11    1    1    2    0    0  0.29938039498E+02 -0.37460134363E+03  0.13552476097E+03  0.39948643743E+03  0.00000000000E+00 0. -1.
        -15    1    3    3    0    0  0.21201996465E+02 -0.17931053631E+02 -0.63172472962E+02  0.69028736100E+02  0.17770000000E+01 0.  1.
         15    1    3    3    0    0 -0.59741117557E+02  0.41168512319E+02 -0.15436479868E+03  0.17057402010E+03  0.17770000000E+01 0. -1.
</event>
<event>
 7    1  0.6322078E-006  0.5148048E+03  0.7546771E-02  0.9367279E-01
        -11   -1    0    0    0    0  0.00000000000E+00  0.00000000000E+00  0.50000000000E+03  0.50000000000E+03  0.00000000000E+00 0.  1.
         11   -1    0    0    0    0 -0.00000000000E+00 -0.00000000000E+00 -0.50000000000E+03  0.50000000000E+03  0.00000000000E+00 0. -1.
         23    2    1    2    0    0 -0.84687887801E+01 -0.15846148571E+02  0.21016290616E+03  0.22972658219E+03  0.91011178585E+02 0.  0.
        -11    1    1    2    0    0 -0.10029009779E+02  0.97213988634E+02  0.26780304580E+03  0.28507825586E+03  0.00000000000E+00 0.  1.
         11    1    1    2    0    0  0.18497798559E+02 -0.81367840062E+02 -0.47796595196E+03  0.48519516196E+03  0.00000000000E+00 0. -1.
        -15    1    3    3    0    0 -0.49408180028E+02 -0.10702625395E+02  0.99769010601E+02  0.11186030417E+03  0.17770000000E+01 0.  1.
         15    1    3    3    0    0  0.40939391248E+02 -0.51435231764E+01  0.11039389556E+03  0.11786627801E+03  0.17770000000E+01 0. -1.
</event>
<event>
 7    1  0.6322078E-006  0.5115320E+03  0.7546771E-02  0.9374369E-01
        -11   -1    0    0    0    0  0.00000000000E+00  0.00000000000E+00  0.50000000000E+03  0.50000000000E+03  0.00000000000E+00 0.  1.
         11   -1    0    0    0    0 -0.00000000000E+00 -0.00000000000E+00 -0.50000000000E+03  0.50000000000E+03  0.00000000000E+00 0.  1.
         23    2    1    2    0    0 -0.32468842069E+02 -0.24874092266E+03 -0.16556848055E+03  0.31254665381E+03  0.85710073745E+02 0.  0.
        -11    1    1    2    0    0  0.15305433228E+02  0.36036396052E+03  0.32940032230E+03  0.48846802624E+03  0.00000000000E+00 0.  1.
         11    1    1    2    0    0  0.17163408841E+02 -0.11162303786E+03 -0.16383184175E+03  0.19898531995E+03  0.00000000000E+00 0.  1.
        -15    1    3    3    0    0  0.27007935557E+02 -0.11565462080E+03 -0.64567589321E+02  0.13519449403E+03  0.17770000000E+01 0.  1.
         15    1    3    3    0    0 -0.59476777626E+02 -0.13308630186E+03 -0.10100089123E+03  0.17735215978E+03  0.17770000000E+01 0. -1.
</event>
<event>
 7    1  0.6322078E-006  0.5278896E+03  0.7546771E-02  0.9339480E-01
        -11   -1    0    0    0    0  0.00000000000E+00  0.00000000000E+00  0.50000000000E+03  0.50000000000E+03  0.00000000000E+00 0. -1.
         11   -1    0    0    0    0 -0.00000000000E+00 -0.00000000000E+00 -0.50000000000E+03  0.50000000000E+03  0.00000000000E+00 0. -1.
         23    2    1    2    0    0 -0.54126636089E+02 -0.91514220422E+02  0.25556216602E+03  0.29165799328E+03  0.91912018077E+02 0.  0.
        -11    1    1    2    0    0 -0.13261318866E+03  0.81017049374E+02  0.17791945510E+03  0.23623156563E+03  0.00000000000E+00 0. -1.
         11    1    1    2    0    0  0.18673982475E+03  0.10497171048E+02 -0.43348162112E+03  0.47211044110E+03  0.00000000000E+00 0. -1.
        -15    1    3    3    0    0 -0.63511881454E+02 -0.33380574249E+02  0.19208077390E+03  0.20505170873E+03  0.17770000000E+01 0.  1.
         15    1    3    3    0    0  0.93852453650E+01 -0.58133646172E+02  0.63481392119E+02  0.86606284542E+02  0.17770000000E+01 0. -1.
</event>
<event>
 7    1  0.6322078E-006  0.4867779E+03  0.7546771E-02  0.9429891E-01
        -11   -1    0    0    0    0  0.00000000000E+00  0.00000000000E+00  0.50000000000E+03  0.50000000000E+03  0.00000000000E+00 0. -1.
         11   -1    0    0    0    0 -0.00000000000E+00 -0.00000000000E+00 -0.50000000000E+03  0.50000000000E+03  0.00000000000E+00 0.  1.
         23    2    1    2    0    0  0.74871873198E+02 -0.91219794398E+01  0.47784674230E+03  0.49270363118E+03  0.93436348085E+02 0.  0.
        -11    1    1    2    0    0  0.30229644761E+02 -0.66625613491E+00 -0.17359599209E+02  0.34865900308E+02  0.00000000000E+00 0. -1.
         11    1    1    2    0    0 -0.10510151796E+03  0.97882355747E+01 -0.46048714309E+03  0.47243046852E+03  0.00000000000E+00 0.  1.
        -15    1    3    3    0    0  0.84128390263E+02  0.35752096796E+01  0.46431223180E+03  0.47188915489E+03  0.17770000000E+01 0. -1.
         15    1    3    3    0    0 -0.92565170643E+01 -0.12697189119E+02  0.13534510496E+02  0.20814476286E+02  0.17770000000E+01 0.  1.
</event>
<event>
 7    1  0.6322078E-006  0.5186464E+03  0.7546771E-02  0.9359027E-01
        -11   -1    0    0    0    0  0.00000000000E+00  0.00000000000E+00  0.50000000000E+03  0.50000000000E+03  0.00000000000E+00 0.  1.
         11   -1    0    0    0    0 -0.00000000000E+00 -0.00000000000E+00 -0.50000000000E+03  0.50000000000E+03  0.00000000000E+00 0. -1.
         23    2    1    2    0    0  0.16100126172E+02 -0.13038623499E+03  0.32696721206E+03  0.36370130619E+03  0.90062744952E+02 0.  0.
        -11    1    1    2    0    0  0.57102657320E+02  0.36297071147E+02  0.13939083476E+03  0.15494513759E+03  0.00000000000E+00 0.  1.
         11    1    1    2    0    0 -0.73202783493E+02  0.94089163839E+02 -0.46635804681E+03  0.48135355622E+03  0.00000000000E+00 0. -1.
        -15    1    3    3    0    0 -0.13097561905E+02 -0.11104599684E+03  0.29774799071E+03  0.31805625799E+03  0.17770000000E+01 0. -1.
         15    1    3    3    0    0  0.29197688077E+02 -0.19340238146E+02  0.29219221342E+02  0.45645048203E+02  0.17770000000E+01 0.  1.
</event>
<event>
 7    1  0.6322078E-006  0.5448796E+03  0.7546771E-02  0.9304634E-01
        -11   -1    0    0    0    0  0.00000000000E+00  0.00000000000E+00  0.50000000000E+03  0.50000000000E+03  0.00000000000E+00 0. -1.
         11   -1    0    0    0    0 -0.00000000000E+00 -0.00000000000E+00 -0.50000000000E+03  0.50000000000E+03  0.00000000000E+00 0.  1.
         23    2    1    2    0    0  0.10729429765E+03 -0.11703435220E+03 -0.14537132639E+03  0.23742087793E+03  0.10013363491E+03 0.  0.
        -11    1    1    2    0    0 -0.75390719571E+02  0.56936807499E+02  0.44520675788E+03  0.45512044330E+03  0.00000000000E+00 0. -1.
         11    1    1    2    0    0 -0.31903578083E+02  0.60097544698E+02 -0.29983543149E+03  0.30745867877E+03  0.00000000000E+00 0.  1.
        -15    1    3    3    0    0 -0.59045009328E+01 -0.56455066567E+02 -0.63248037555E+02  0.85002997923E+02  0.17770000000E+01 0. -1.
         15    1    3    3    0    0  0.11319879859E+03 -0.60579285629E+02 -0.82123288834E+02  0.15241788001E+03  0.17770000000E+01 0.  1.
</event>
<event>
 7    1  0.6322078E-006  0.4281755E+03  0.7546771E-02  0.9576629E-01
        -11   -1    0    0    0    0  0.00000000000E+00  0.00000000000E+00  0.50000000000E+03  0.50000000000E+03  0.00000000000E+00 0.  1.
         11   -1    0    0    0    0 -0.00000000000E+00 -0.00000000000E+00 -0.50000000000E+03  0.50000000000E+03  0.00000000000E+00 0. -1.
         23    2    1    2    0    0  0.80415630564E+02 -0.43849064977E+02 -0.45823879678E+02  0.13754638187E+03  0.91813752116E+02 0.  0.
        -11    1    1    2    0    0  0.64572692438E+02  0.17757873801E+03  0.40823473435E+03  0.44984379415E+03  0.00000000000E+00 0.  1.
         11    1    1    2    0    0 -0.14498832300E+03 -0.13372967304E+03 -0.36241085468E+03  0.41260982398E+03  0.00000000000E+00 0. -1.
        -15    1    3    3    0    0  0.58650600191E+01 -0.31170146171E+02 -0.52761889239E+02  0.61586943636E+02  0.17770000000E+01 0. -1.
         15    1    3    3    0    0  0.74550570545E+02 -0.12678918806E+02  0.69380095616E+01  0.75959438231E+02  0.17770000000E+01 0.  1.
</event>
<event>
 7    1  0.6322078E-006  0.5135134E+03  0.7546771E-02  0.9370070E-01
        -11   -1    0    0    0    0  0.00000000000E+00  0.00000000000E+00  0.50000000000E+03  0.50000000000E+03  0.00000000000E+00 0. -1.
         11   -1    0    0    0    0 -0.00000000000E+00 -0.00000000000E+00 -0.50000000000E+03  0.50000000000E+03  0.00000000000E+00 0. -1.
         23    2    1    2    0    0  0.25300716777E+02 -0.72946901239E+02  0.27001076609E+03  0.29498199196E+03  0.90261758828E+02 0.  0.
        -11    1    1    2    0    0 -0.26914314173E+02 -0.13479827538E+03  0.16988530844E+03  0.21853140135E+03  0.00000000000E+00 0. -1.
         11    1    1    2    0    0  0.16135973953E+01  0.20774517662E+03 -0.43989607453E+03  0.48648660669E+03  0.00000000000E+00 0. -1.
        -15    1    3    3    0    0  0.30805679864E+02  0.11585937940E+02  0.58771374743E+02  0.67382906497E+02  0.17770000000E+01 0.  1.
         15    1    3    3    0    0 -0.55049630863E+01 -0.84532839178E+02  0.21123939134E+03  0.22759908546E+03  0.17770000000E+01 0. -1.
</event>
<event>
 7    1  0.6322078E-006  0.5204046E+03  0.7546771E-02  0.9355276E-01
        -11   -1    0    0    0    0  0.00000000000E+00  0.00000000000E+00  0.50000000000E+03  0.50000000000E+03  0.00000000000E+00 0.  1.
         11   -1    0    0    0    0 -0.00000000000E+00 -0.00000000000E+00 -0.50000000000E+03  0.50000000000E+03  0.00000000000E+00 0. -1.
         23    2    1    2    0    0  0.14878286513E+02 -0.37766602190E+02  0.11437735460E+03  0.15167610312E+03  0.90971321642E+02 0.  0.
        -11    1    1    2    0    0 -0.12939345584E+03 -0.10391800514E+03  0.32927056200E+03  0.36872851965E+03  0.00000000000E+00 0.  1.
         11    1    1    2    0    0  0.11451516933E+03  0.14168460733E+03 -0.44364791659E+03  0.47959537723E+03  0.00000000000E+00 0. -1.
        -15    1    3    3    0    0  0.33952601216E+01  0.30270381908E+02  0.37944563412E+02  0.48690568221E+02  0.17770000000E+01 0.  1.
         15    1    3    3    0    0  0.11483026392E+02 -0.68036984098E+02  0.76432791184E+02  0.10298553489E+03  0.17770000000E+01 0. -1.
</event>
<event>
 7    1  0.6322078E-006  0.5219788E+03  0.7546771E-02  0.9351930E-01
        -11   -1    0    0    0    0  0.00000000000E+00  0.00000000000E+00  0.50000000000E+03  0.50000000000E+03  0.00000000000E+00 0. -1.
         11   -1    0    0    0    0 -0.00000000000E+00 -0.00000000000E+00 -0.50000000000E+03  0.50000000000E+03  0.00000000000E+00 0. -1.
         23    2    1    2    0    0 -0.25218239489E+02  0.35950696915E+01  0.37718873827E+03  0.38750756723E+03  0.85099272920E+02 0.  0.
        -11    1    1    2    0    0 -0.56555928079E+02 -0.86014592540E+02  0.86518367791E+02  0.13447122776E+03  0.00000000000E+00 0. -1.
         11    1    1    2    0    0  0.81774167568E+02  0.82419522848E+02 -0.46370710606E+03  0.47802120501E+03  0.00000000000E+00 0. -1.
        -15    1    3    3    0    0  0.25707500410E+02 -0.18989415814E+02  0.16789756741E+03  0.17092169072E+03  0.17770000000E+01 0.  1.
         15    1    3    3    0    0 -0.50925739899E+02  0.22584485505E+02  0.20929117086E+03  0.21658587650E+03  0.17770000000E+01 0. -1.
</event>
<event>
 7    1  0.6322078E-006  0.5169793E+03  0.7546771E-02  0.9362599E-01
        -11   -1    0    0    0    0  0.00000000000E+00  0.00000000000E+00  0.50000000000E+03  0.50000000000E+03  0.00000000000E+00 0.  1.
         11   -1    0    0    0    0 -0.00000000000E+00 -0.00000000000E+00 -0.50000000000E+03  0.50000000000E+03  0.00000000000E+00 0. -1.
         23    2    1    2    0    0  0.35791865969E+02  0.19978932852E+02 -0.30525228748E+03  0.32156280566E+03  0.92430858210E+02 0.  0.
        -11    1    1    2    0    0  0.44396129427E+02 -0.72899834942E+02  0.47541942611E+03  0.48302073762E+03  0.00000000000E+00 0.  1.
         11    1    1    2    0    0 -0.80187995396E+02  0.52920902090E+02 -0.17016713864E+03  0.19541645672E+03  0.00000000000E+00 0. -1.
        -15    1    3    3    0    0  0.70575426254E+01 -0.32831165520E+02 -0.17352256952E+03  0.17675105148E+03  0.17770000000E+01 0.  1.
         15    1    3    3    0    0  0.28734323344E+02  0.52810098372E+02 -0.13172971795E+03  0.14481175418E+03  0.17770000000E+01 0. -1.
</event>
<event>
 7    1  0.6322078E-006  0.4621988E+03  0.7546771E-02  0.9488607E-01
        -11   -1    0    0    0    0  0.00000000000E+00  0.00000000000E+00  0.50000000000E+03  0.50000000000E+03  0.00000000000E+00 0.  1.
         11   -1    0    0    0    0 -0.00000000000E+00 -0.00000000000E+00 -0.50000000000E+03  0.50000000000E+03  0.00000000000E+00 0. -1.
         23    2    1    2    0    0  0.14713623566E+03  0.97074972971E+02  0.41104557175E+03  0.45649196471E+03  0.91399286480E+02 0.  0.
        -11    1    1    2    0    0 -0.56336611756E+02 -0.43349230510E+02  0.39124573790E+02  0.81140014075E+02  0.00000000000E+00 0.  1.
         11    1    1    2    0    0 -0.90799623905E+02 -0.53725742462E+02 -0.45017014554E+03  0.46236802121E+03  0.00000000000E+00 0. -1.
        -15    1    3    3    0    0  0.10738030304E+03  0.47213843838E+02  0.34615396376E+03  0.36549336641E+03  0.17770000000E+01 0.  1.
         15    1    3    3    0    0  0.39755932621E+02  0.49861129133E+02  0.64891607988E+02  0.90998598304E+02  0.17770000000E+01 0. -1.
</event>
<event>
 7    1  0.6322078E-006  0.3817760E+03  0.7546771E-02  0.9711834E-01
        -11   -1    0    0    0    0  0.00000000000E+00  0.00000000000E+00  0.50000000000E+03  0.50000000000E+03  0.00000000000E+00 0. -1.
         11   -1    0    0    0    0 -0.00000000000E+00 -0.00000000000E+00 -0.50000000000E+03  0.50000000000E+03  0.00000000000E+00 0.  1.
         23    2    1    2    0    0 -0.23774634106E+03 -0.16638010008E+03 -0.17027621737E+03  0.34924349225E+03  0.93655572654E+02 0.  0.
        -11    1    1    2    0    0  0.16945354557E+03  0.13732171650E+03  0.37454463418E+03  0.43342293539E+03  0.00000000000E+00 0. -1.
         11    1    1    2    0    0  0.68292795489E+02  0.29058383578E+02 -0.20426841680E+03  0.21733357236E+03  0.00000000000E+00 0.  1.
        -15    1    3    3    0    0 -0.38788796820E+02 -0.70176239148E+02 -0.22197202289E+02  0.83217479042E+02  0.17770000000E+01 0. -1.
         15    1    3    3    0    0 -0.19895754424E+03 -0.96203860931E+02 -0.14807901508E+03  0.26602601321E+03  0.17770000000E+01 0.  1.
</event>
<event>
 7    1  0.6322078E-006  0.5396452E+03  0.7546771E-02  0.9315224E-01
        -11   -1    0    0    0    0  0.00000000000E+00  0.00000000000E+00  0.50000000000E+03  0.50000000000E+03  0.00000000000E+00 0. -1.
         11   -1    0    0    0    0 -0.00000000000E+00 -0.00000000000E+00 -0.50000000000E+03  0.50000000000E+03  0.00000000000E+00 0. -1.
         23    2    1    2    0    0  0.50586173118E+02  0.50050164144E+02  0.29043882188E+03  0.31277139021E+03  0.91691076098E+02 0.  0.
        -11    1    1    2    0    0 -0.17024483223E+03  0.17328024832E+02  0.14895685610E+03  0.22687377179E+03  0.00000000000E+00 0. -1.
         11    1    1    2    0    0  0.11965865912E+03 -0.67378188976E+02 -0.43939567798E+03  0.46035483801E+03  0.00000000000E+00 0. -1.
        -15    1    3    3    0    0  0.50740835576E+02  0.72203798638E+02  0.26325280109E+03  0.27765665118E+03  0.17770000000E+01 0. -1.
         15    1    3    3    0    0 -0.15466245813E+00 -0.22153634494E+02  0.27186020791E+02  0.35114739031E+02  0.17770000000E+01 0.  1.
</event>
<event>
 7    1  0.6322078E-006  0.5243826E+03  0.7546771E-02  0.9346846E-01
        -11   -1    0    0    0    0  0.00000000000E+00  0.00000000000E+00  0.50000000000E+03  0.50000000000E+03  0.00000000000E+00 0. -1.
         11   -1    0    0    0    0 -0.00000000000E+00 -0.00000000000E+00 -0.50000000000E+03  0.50000000000E+03  0.00000000000E+00 0. -1.
         23    2    1    2    0    0  0.69548867061E+01 -0.24945368007E+02  0.25317200986E+03  0.27049730741E+03  0.91662887283E+02 0.  0.
        -11    1    1    2    0    0  0.12611568234E+03  0.97355800006E+02  0.19767256454E+03  0.25388532825E+03  0.00000000000E+00 0. -1.
         11    1    1    2    0    0 -0.13307056905E+03 -0.72410431999E+02 -0.45084457439E+03  0.47561736435E+03  0.00000000000E+00 0. -1.
        -15    1    3    3    0    0 -0.97583493110E+01  0.26424710124E+02  0.31343386146E+02  0.42178860470E+02  0.17770000000E+01 0.  1.
         15    1    3    3    0    0  0.16713236017E+02 -0.51370078131E+02  0.22182862371E+03  0.22831844694E+03  0.17770000000E+01 0. -1.
</event>
<event>
 7    1  0.6322078E-006  0.4267808E+03  0.7546771E-02  0.9580422E-01
        -11   -1    0    0    0    0  0.00000000000E+00  0.00000000000E+00  0.50000000000E+03  0.50000000000E+03  0.00000000000E+00 0. -1.
         11   -1    0    0    0    0 -0.00000000000E+00 -0.00000000000E+00 -0.50000000000E+03  0.50000000000E+03  0.00000000000E+00 0.  1.
         23    2    1    2    0    0  0.47295962014E+02 -0.62453037533E+02  0.37937929500E+03  0.39823500116E+03  0.92331883764E+02 0.  0.
        -11    1    1    2    0    0  0.56814097552E+02  0.11685141744E+03  0.62755305141E+02  0.14429249378E+03  0.00000000000E+00 0. -1.
         11    1    1    2    0    0 -0.10411005957E+03 -0.54398379908E+02 -0.44213460014E+03  0.45747250505E+03  0.00000000000E+00 0.  1.
        -15    1    3    3    0    0 -0.10953286909E+02 -0.34031908237E+02  0.44368419275E+02  0.57007540118E+02  0.17770000000E+01 0. -1.
         15    1    3    3    0    0  0.58249248924E+02 -0.28421129297E+02  0.33501087572E+03  0.34122746105E+03  0.17770000000E+01 0.  1.
</event>
<event>
 7    1  0.6322078E-006  0.5135902E+03  0.7546771E-02  0.9369904E-01
        -11   -1    0    0    0    0  0.00000000000E+00  0.00000000000E+00  0.50000000000E+03  0.50000000000E+03  0.00000000000E+00 0. -1.
         11   -1    0    0    0    0 -0.00000000000E+00 -0.00000000000E+00 -0.50000000000E+03  0.50000000000E+03  0.00000000000E+00 0.  1.
         23    2    1    2    0    0  0.81177341236E+01 -0.74743008762E+02  0.47177314028E+03  0.48640976228E+03  0.91499431585E+02 0.  0.
        -11    1    1    2    0    0 -0.68933992738E+02  0.66691115143E+02 -0.10700728135E+03  0.14370162997E+03  0.00000000000E+00 0. -1.
         11    1    1    2    0    0  0.60816258615E+02  0.80518936197E+01 -0.36476585893E+03  0.36988860775E+03  0.00000000000E+00 0.  1.
        -15    1    3    3    0    0  0.34035386039E+02 -0.76731159593E+02  0.42155907302E+03  0.42983867687E+03  0.17770000000E+01 0. -1.
         15    1    3    3    0    0 -0.25917651915E+02  0.19881508306E+01  0.50214067259E+02  0.56571085408E+02  0.17770000000E+01 0.  1.
</event>
<event>
 7    1  0.6322078E-006  0.3144895E+03  0.7546771E-02  0.9949448E-01
        -11   -1    0    0    0    0  0.00000000000E+00  0.00000000000E+00  0.50000000000E+03  0.50000000000E+03  0.00000000000E+00 0.  1.
         11   -1    0    0    0    0 -0.00000000000E+00 -0.00000000000E+00 -0.50000000000E+03  0.50000000000E+03  0.00000000000E+00 0. -1.
         23    2    1    2    0    0  0.17822009906E+03  0.24862284382E+03  0.50827955611E+02  0.32315314700E+03  0.90932684800E+02 0.  0.
        -11    1    1    2    0    0 -0.11924096171E+03 -0.23567152527E+03  0.25379652396E+03  0.36629516834E+03  0.00000000000E+00 0.  1.
         11    1    1    2    0    0 -0.58979137346E+02 -0.12951318556E+02 -0.30462447957E+03  0.31055168467E+03  0.00000000000E+00 0. -1.
        -15    1    3    3    0    0  0.15693032592E+03  0.18230733496E+03  0.66310620225E+01  0.24064542440E+03  0.17770000000E+01 0. -1.
         15    1    3    3    0    0  0.21289773136E+02  0.66315508868E+02  0.44196893588E+02  0.82507722599E+02  0.17770000000E+01 0.  1.
</event>
<event>
 7    1  0.6322078E-006  0.5095645E+03  0.7546771E-02  0.9378659E-01
        -11   -1    0    0    0    0  0.00000000000E+00  0.00000000000E+00  0.50000000000E+03  0.50000000000E+03  0.00000000000E+00 0. -1.
         11   -1    0    0    0    0 -0.00000000000E+00 -0.00000000000E+00 -0.50000000000E+03  0.50000000000E+03  0.00000000000E+00 0. -1.
         23    2    1    2    0    0  0.10914419921E+03  0.44604969135E+02 -0.19375840874E+03  0.24362670891E+03  0.88935891743E+02 0.  0.
        -11    1    1    2    0    0 -0.19746536557E+03 -0.72253568595E+02  0.44307315304E+03  0.49043548783E+03  0.00000000000E+00 0. -1.
         11    1    1    2    0    0  0.88321166360E+02  0.27648599459E+02 -0.24931474430E+03  0.26593780326E+03  0.00000000000E+00 0. -1.
        -15    1    3    3    0    0  0.70798145239E+02 -0.18334911111E+02 -0.10924835774E+03  0.13147968562E+03  0.17770000000E+01 0. -1.
         15    1    3    3    0    0  0.38346053976E+02  0.62939880246E+02 -0.84510051007E+02  0.11214702328E+03  0.17770000000E+01 0.  1.
</event>
<event>
 6    1  0.6322078E-006  0.3570406E+03  0.7546771E-02  0.9792609E-01
        -11   -1    0    0    0    0  0.00000000000E+00  0.00000000000E+00  0.50000000000E+03  0.50000000000E+03  0.00000000000E+00 0. -1.
         11   -1    0    0    0    0 -0.00000000000E+00 -0.00000000000E+00 -0.50000000000E+03  0.50000000000E+03  0.00000000000E+00 0.  1.
        -11    1    1    2    0    0  0.47562819110E+02 -0.10262913176E+03  0.35835134160E+03  0.37578004800E+03  0.00000000000E+00 0. -1.
         11    1    1    2    0    0  0.47103041130E+02 -0.51560684537E+02 -0.35405709721E+03  0.36087896691E+03  0.00000000000E+00 0.  1.
        -15    1    1    2    0    0 -0.59272743678E+02  0.24674303567E+02  0.81673439177E+02  0.10390278050E+03  0.17770000000E+01 0. -1.
         15    1    1    2    0    0 -0.35393116562E+02  0.12951551273E+03 -0.85967683568E+02  0.15943820460E+03  0.17770000000E+01 0.  1.
</event>
<event>
 7    1  0.6322078E-006  0.3726103E+03  0.7546771E-02  0.9740981E-01
        -11   -1    0    0    0    0  0.00000000000E+00  0.00000000000E+00  0.50000000000E+03  0.50000000000E+03  0.00000000000E+00 0.  1.
         11   -1    0    0    0    0 -0.00000000000E+00 -0.00000000000E+00 -0.50000000000E+03  0.50000000000E+03  0.00000000000E+00 0. -1.
         23    2    1    2    0    0  0.11360291287E+03  0.15062365165E+03  0.84274854038E+02  0.22666372510E+03  0.93172351064E+02 0.  0.
        -11    1    1    2    0    0 -0.32852559742E+02 -0.16724139367E+03  0.31902368199E+03  0.36169750360E+03  0.00000000000E+00 0.  1.
         11    1    1    2    0    0 -0.80750353131E+02  0.16617742021E+02 -0.40329853602E+03  0.41163877130E+03  0.00000000000E+00 0. -1.
        -15    1    3    3    0    0  0.70289080924E+02  0.71746074644E+02 -0.40812811356E+01  0.10053789688E+03  0.17770000000E+01 0.  1.
         15    1    3    3    0    0  0.43313831948E+02  0.78877577009E+02  0.88356135174E+02  0.12612582822E+03  0.17770000000E+01 0. -1.
</event>
<event>
 7    1  0.6322078E-006  0.4551050E+03  0.7546771E-02  0.9506279E-01
        -11   -1    0    0    0    0  0.00000000000E+00  0.00000000000E+00  0.50000000000E+03  0.50000000000E+03  0.00000000000E+00 0. -1.
         11   -1    0    0    0    0 -0.00000000000E+00 -0.00000000000E+00 -0.50000000000E+03  0.50000000000E+03  0.00000000000E+00 0. -1.
         23    2    1    2    0    0 -0.30854565575E+02  0.37433040009E+02  0.44589078505E+03  0.45780312856E+03  0.91716277870E+02 0.  0.
        -11    1    1    2    0    0 -0.34342718428E+02 -0.87558149669E+02 -0.55214479147E+01  0.94214320937E+02  0.00000000000E+00 0. -1.
         11    1    1    2    0    0  0.65197284003E+02  0.50125109660E+02 -0.44036933714E+03  0.44798255050E+03  0.00000000000E+00 0. -1.
        -15    1    3    3    0    0 -0.24593960114E+01  0.62567251099E+02  0.21998069050E+03  0.22872553740E+03  0.17770000000E+01 0.  1.
         15    1    3    3    0    0 -0.28395169564E+02 -0.25134211089E+02  0.22591009456E+03  0.22907759116E+03  0.17770000000E+01 0. -1.
</event>
<event>
 7    1  0.6322078E-006  0.5107827E+03  0.7546771E-02  0.9376001E-01
        -11   -1    0    0    0    0  0.00000000000E+00  0.00000000000E+00  0.50000000000E+03  0.50000000000E+03  0.00000000000E+00 0. -1.
         11   -1    0    0    0    0 -0.00000000000E+00 -0.00000000000E+00 -0.50000000000E+03  0.50000000000E+03  0.00000000000E+00 0.  1.
         23    2    1    2    0    0  0.46969948734E+02 -0.27542174282E+02 -0.18527013304E+03  0.21313418565E+03  0.90202059002E+02 0.  0.
        -11    1    1    2    0    0 -0.10563779242E+03  0.24232222852E+02  0.47706078521E+03  0.48921726932E+03  0.00000000000E+00 0. -1.
         11    1    1    2    0    0  0.58667843684E+02  0.33099514304E+01 -0.29179065218E+03  0.29764854503E+03  0.00000000000E+00 0.  1.
        -15    1    3    3    0    0  0.63859386159E+02 -0.33729119680E+02 -0.18053104116E+03  0.19444868029E+03  0.17770000000E+01 0.  1.
         15    1    3    3    0    0 -0.16889437425E+02  0.61869453978E+01 -0.47390918840E+01  0.18685505366E+02  0.17770000000E+01 0. -1.
</event>
<event>
 7    1  0.6322078E-006  0.5317589E+03  0.7546771E-02  0.9331423E-01
        -11   -1    0    0    0    0  0.00000000000E+00  0.00000000000E+00  0.50000000000E+03  0.50000000000E+03  0.00000000000E+00 0.  1.
         11   -1    0    0    0    0 -0.00000000000E+00 -0.00000000000E+00 -0.50000000000E+03  0.50000000000E+03  0.00000000000E+00 0. -1.
         23    2    1    2    0    0 -0.95169590614E+00 -0.10693458693E+03 -0.12177640946E+03  0.18609200345E+03  0.91459434950E+02 0.  0.
        -11    1    1    2    0    0 -0.51267984086E+02  0.64892534505E+02  0.46087989680E+03  0.46824109869E+03  0.00000000000E+00 0.  1.
         11    1    1    2    0    0  0.52219679992E+02  0.42042052428E+02 -0.33910348734E+03  0.34566689786E+03  0.00000000000E+00 0. -1.
        -15    1    3    3    0    0 -0.33176720179E+01 -0.30062795500E+02 -0.10236150624E+03  0.10675117943E+03  0.17770000000E+01 0.  1.
         15    1    3    3    0    0  0.23659761117E+01 -0.76871791432E+02 -0.19414903218E+02  0.79340824024E+02  0.17770000000E+01 0. -1.
</event>
<event>
 7    1  0.6322078E-006  0.3945668E+03  0.7546771E-02  0.9672592E-01
        -11   -1    0    0    0    0  0.00000000000E+00  0.00000000000E+00  0.50000000000E+03  0.50000000000E+03  0.00000000000E+00 0.  1.
         11   -1    0    0    0    0 -0.00000000000E+00 -0.00000000000E+00 -0.50000000000E+03  0.50000000000E+03  0.00000000000E+00 0.  1.
         23    2    1    2    0    0 -0.19186761007E+03 -0.16997745077E+03  0.20440326654E+03  0.34437157354E+03  0.10538297645E+03 0.  0.
        -11    1    1    2    0    0  0.31325964834E+03  0.30692694557E+03 -0.12411778100E+03  0.45578611295E+03  0.00000000000E+00 0.  1.
         11    1    1    2    0    0 -0.12139203827E+03 -0.13694949480E+03 -0.80285485541E+02  0.19984231352E+03  0.00000000000E+00 0.  1.
        -15    1    3    3    0    0 -0.16945480412E+01 -0.43635456297E+02  0.59952337936E+02  0.74191408480E+02  0.17770000000E+01 0.  1.
         15    1    3    3    0    0 -0.19017306202E+03 -0.12634199447E+03  0.14445092861E+03  0.27018016506E+03  0.17770000000E+01 0. -1.
</event>
<event>
 6    1  0.6322078E-006  0.3293006E+03  0.7546771E-02  0.9891981E-01
        -11   -1    0    0    0    0  0.00000000000E+00  0.00000000000E+00  0.50000000000E+03  0.50000000000E+03  0.00000000000E+00 0.  1.
         11   -1    0    0    0    0 -0.00000000000E+00 -0.00000000000E+00 -0.50000000000E+03  0.50000000000E+03  0.00000000000E+00 0. -1.
        -11    1    1    2    0    0  0.77255619324E+02  0.19399955491E+03  0.29730755709E+03  0.36331259478E+03  0.00000000000E+00 0.  1.
         11    1    1    2    0    0  0.66743497922E+02 -0.31612342799E+02 -0.32222134359E+03  0.33057620754E+03  0.00000000000E+00 0. -1.
        -15    1    1    2    0    0 -0.12365149942E+03 -0.16327877593E+03  0.10025625927E+03  0.22804413439E+03  0.17770000000E+01 0.  1.
         15    1    1    2    0    0 -0.20347617829E+02  0.89156381830E+00 -0.75342472774E+02  0.78067063285E+02  0.17770000000E+01 0. -1.
</event>
<event>
 7    1  0.6322078E-006  0.3900928E+03  0.7546771E-02  0.9686135E-01
        -11   -1    0    0    0    0  0.00000000000E+00  0.00000000000E+00  0.50000000000E+03  0.50000000000E+03  0.00000000000E+00 0.  1.
         11   -1    0    0    0    0 -0.00000000000E+00 -0.00000000000E+00 -0.50000000000E+03  0.50000000000E+03  0.00000000000E+00 0. -1.
         23    2    1    2    0    0  0.15553618701E+03 -0.86041906749E+02  0.50125930232E+01  0.19980658134E+03  0.91119858816E+02 0.  0.
        -11    1    1    2    0    0 -0.63411915009E+02  0.77945283477E+02  0.38575748096E+03  0.39862936708E+03  0.00000000000E+00 0.  1.
         11    1    1    2    0    0 -0.92124272000E+02  0.80966232724E+01 -0.39077007399E+03  0.40156405158E+03  0.00000000000E+00 0. -1.
        -15    1    3    3    0    0  0.44189991519E+02  0.75696350392E+01  0.27461144200E+02  0.52605388458E+02  0.17770000000E+01 0.  1.
         15    1    3    3    0    0  0.11134619549E+03 -0.93611541788E+02 -0.22448551177E+02  0.14720119288E+03  0.17770000000E+01 0. -1.
</event>
<event>
 7    1  0.6322078E-006  0.5030024E+03  0.7546771E-02  0.9393117E-01
        -11   -1    0    0    0    0  0.00000000000E+00  0.00000000000E+00  0.50000000000E+03  0.50000000000E+03  0.00000000000E+00 0.  1.
         11   -1    0    0    0    0 -0.00000000000E+00 -0.00000000000E+00 -0.50000000000E+03  0.50000000000E+03  0.00000000000E+00 0. -1.
         23    2    1    2    0    0 -0.12835904798E+03 -0.63809125180E+01  0.47536655984E+03  0.50300240841E+03  0.10257336597E+03 0.  0.
        -11    1    1    2    0    0  0.56022788242E+02  0.99270217551E+01 -0.10315057432E+03  0.11780127141E+03  0.00000000000E+00 0.  1.
         11    1    1    2    0    0  0.72336259742E+02 -0.35461092371E+01 -0.37221598552E+03  0.37919632018E+03  0.00000000000E+00 0. -1.
        -15    1    3    3    0    0 -0.86868032154E+02  0.45248871176E+02  0.29593713303E+03  0.31172978649E+03  0.17770000000E+01 0.  1.
         15    1    3    3    0    0 -0.41491015830E+02 -0.51629783694E+02  0.17942942681E+03  0.19127262191E+03  0.17770000000E+01 0. -1.
</event>
<event>
 7    1  0.6322078E-006  0.4865099E+03  0.7546771E-02  0.9430511E-01
        -11   -1    0    0    0    0  0.00000000000E+00  0.00000000000E+00  0.50000000000E+03  0.50000000000E+03  0.00000000000E+00 0.  1.
         11   -1    0    0    0    0 -0.00000000000E+00 -0.00000000000E+00 -0.50000000000E+03  0.50000000000E+03  0.00000000000E+00 0. -1.
         23    2    1    2    0    0 -0.39722995860E+02 -0.49018667634E+02  0.46534297081E+03  0.47858500155E+03  0.92297221205E+02 0.  0.
        -11    1    1    2    0    0  0.87736321745E+01 -0.31399830571E+02  0.13201927302E+02  0.35174093676E+02  0.00000000000E+00 0.  1.
         11    1    1    2    0    0  0.30949363686E+02  0.80418498205E+02 -0.47854489812E+03  0.48624090478E+03  0.00000000000E+00 0. -1.
        -15    1    3    3    0    0  0.26537471230E+01 -0.64193973109E+02  0.32117913816E+03  0.32754710359E+03  0.17770000000E+01 0.  1.
         15    1    3    3    0    0 -0.42376742983E+02  0.15175305475E+02  0.14416383266E+03  0.15103789795E+03  0.17770000000E+01 0. -1.
</event>
<event>
 7    1  0.6322078E-006  0.5028694E+03  0.7546771E-02  0.9393412E-01
        -11   -1    0    0    0    0  0.00000000000E+00  0.00000000000E+00  0.50000000000E+03  0.50000000000E+03  0.00000000000E+00 0. -1.
         11   -1    0    0    0    0 -0.00000000000E+00 -0.00000000000E+00 -0.50000000000E+03  0.50000000000E+03  0.00000000000E+00 0.  1.
         23    2    1    2    0    0  0.21530900596E+02  0.11891710505E+03  0.47939306092E+03  0.50286938200E+03  0.91951350964E+02 0.  0.
        -11    1    1    2    0    0 -0.36542528665E+01 -0.50843086369E+02 -0.11196757277E+03  0.12302483631E+03  0.00000000000E+00 0. -1.
         11    1    1    2    0    0 -0.17876647730E+02 -0.68074018681E+02 -0.36742548815E+03  0.37410578169E+03  0.00000000000E+00 0.  1.
        -15    1    3    3    0    0  0.45264309792E+02  0.10087095369E+03  0.43851932446E+03  0.45224568842E+03  0.17770000000E+01 0. -1.
         15    1    3    3    0    0 -0.23733409196E+02  0.18046151363E+02  0.40873736462E+02  0.50623693587E+02  0.17770000000E+01 0.  1.
</event>
<event>
 7    1  0.6322078E-006  0.5299207E+03  0.7546771E-02  0.9335241E-01
        -11   -1    0    0    0    0  0.00000000000E+00  0.00000000000E+00  0.50000000000E+03  0.50000000000E+03  0.00000000000E+00 0.  1.
         11   -1    0    0    0    0 -0.00000000000E+00 -0.00000000000E+00 -0.50000000000E+03  0.50000000000E+03  0.00000000000E+00 0.  1.
         23    2    1    2    0    0  0.10580404498E+03 -0.24048882292E+02  0.33907290753E+03  0.36773574590E+03  0.92121102465E+02 0.  0.
        -11    1    1    2    0    0 -0.29085896490E+02 -0.12396706850E+03  0.10044970779E+03  0.16218497848E+03  0.00000000000E+00 0.  1.
         11    1    1    2    0    0 -0.76718148487E+02  0.14801595079E+03 -0.43952261532E+03  0.47007927563E+03  0.00000000000E+00 0.  1.
        -15    1    3    3    0    0  0.73248807902E+02 -0.50528703975E+02  0.28891687458E+03  0.30231549072E+03  0.17770000000E+01 0.  1.
         15    1    3    3    0    0  0.32555237074E+02  0.26479821683E+02  0.50156032947E+02  0.65420255176E+02  0.17770000000E+01 0. -1.
</event>
<event>
 7    1  0.8962952E-006  0.5107359E+03  0.7546771E-02  0.9376103E-01
        -11   -1    0    0    0    0  0.00000000000E+00  0.00000000000E+00  0.50000000000E+03  0.50000000000E+03  0.00000000000E+00 0.  1.
         11   -1    0    0    0    0 -0.00000000000E+00 -0.00000000000E+00 -0.50000000000E+03  0.50000000000E+03  0.00000000000E+00 0.  1.
         23    2    1    2    0    0 -0.58117657148E+02  0.37953448037E+02 -0.18616991113E+03  0.20944017395E+03  0.66240654941E+02 0.  0.
        -11    1    1    2    0    0  0.20361237158E+02 -0.86775496120E+02  0.48107666764E+03  0.48926406659E+03  0.00000000000E+00 0.  1.
         11    1    1    2    0    0  0.37756419990E+02  0.48822048082E+02 -0.29490675651E+03  0.30129575946E+03  0.00000000000E+00 0.  1.
        -15    1    3    3    0    0 -0.18634970618E+02  0.49971096043E+02 -0.12150976696E+03  0.13271078994E+03  0.17770000000E+01 0. -1.
         15    1    3    3    0    0 -0.39482686531E+02 -0.12017648006E+02 -0.64660144162E+02  0.76729384015E+02  0.17770000000E+01 0.  1.
</event>
<event>
 7    1  0.6322078E-006  0.4932520E+03  0.7546771E-02  0.9415037E-01
        -11   -1    0    0    0    0  0.00000000000E+00  0.00000000000E+00  0.50000000000E+03  0.50000000000E+03  0.00000000000E+00 0.  1.
         11   -1    0    0    0    0 -0.00000000000E+00 -0.00000000000E+00 -0.50000000000E+03  0.50000000000E+03  0.00000000000E+00 0. -1.
         23    2    1    2    0    0  0.16685906876E+03  0.36869122993E+02  0.45411318485E+03  0.49354340968E+03  0.90360563977E+02 0.  0.
        -11    1    1    2    0    0 -0.18722127497E+01 -0.21468036686E+02  0.15439691723E+01  0.21604759210E+02  0.00000000000E+00 0.  1.
         11    1    1    2    0    0 -0.16498685601E+03 -0.15401086307E+02 -0.45565715403E+03  0.48485183111E+03  0.00000000000E+00 0. -1.
        -15    1    3    3    0    0  0.50661542667E+02  0.45318588186E+02  0.24386446277E+03  0.25316674401E+03  0.17770000000E+01 0. -1.
         15    1    3    3    0    0  0.11619752609E+03 -0.84494651937E+01  0.21024872208E+03  0.24037666567E+03  0.17770000000E+01 0.  1.
</event>
<event>
 6    1  0.6322078E-006  0.5439199E+03  0.7546771E-02  0.9306566E-01
        -11   -1    0    0    0    0  0.00000000000E+00  0.00000000000E+00  0.50000000000E+03  0.50000000000E+03  0.00000000000E+00 0. -1.
         11   -1    0    0    0    0 -0.00000000000E+00 -0.00000000000E+00 -0.50000000000E+03  0.50000000000E+03  0.00000000000E+00 0.  1.
        -11    1    1    2    0    0 -0.93039546871E+02 -0.68522984226E+02 -0.40317516071E+03  0.41940668433E+03  0.00000000000E+00 0.  1.
         11    1    1    2    0    0  0.12118465518E+02  0.71486622398E+01 -0.33867108673E+02  0.36673445818E+02  0.00000000000E+00 0. -1.
        -15    1    1    2    0    0  0.60518279163E+02  0.18638599454E+03  0.24281428555E+03  0.31203226768E+03  0.17770000000E+01 0. -1.
         15    1    1    2    0    0  0.20402802189E+02 -0.12501167256E+03  0.19422798382E+03  0.23188760217E+03  0.17770000000E+01 0.  1.
</event>
<event>
 7    1  0.6322078E-006  0.5139334E+03  0.7546771E-02  0.9369161E-01
        -11   -1    0    0    0    0  0.00000000000E+00  0.00000000000E+00  0.50000000000E+03  0.50000000000E+03  0.00000000000E+00 0. -1.
         11   -1    0    0    0    0 -0.00000000000E+00 -0.00000000000E+00 -0.50000000000E+03  0.50000000000E+03  0.00000000000E+00 0.  1.
         23    2    1    2    0    0  0.35009806939E+02  0.73509175101E+02 -0.17576522525E+03  0.21846678619E+03  0.10101998247E+03 0.  0.
        -11    1    1    2    0    0 -0.53338666680E+02 -0.13133191416E+03  0.46493834878E+03  0.48606661396E+03  0.00000000000E+00 0. -1.
         11    1    1    2    0    0  0.18328859741E+02  0.57822739063E+02 -0.28917312353E+03  0.29546659985E+03  0.00000000000E+00 0.  1.
        -15    1    3    3    0    0  0.45515155491E+01  0.37849788903E+02 -0.17170533238E+01  0.38202471320E+02  0.17770000000E+01 0. -1.
         15    1    3    3    0    0  0.30458291390E+02  0.35659386198E+02 -0.17404817192E+03  0.18026431487E+03  0.17770000000E+01 0.  1.
</event>
<event>
 7    1  0.6322078E-006  0.3854933E+03  0.7546771E-02  0.9700262E-01
        -11   -1    0    0    0    0  0.00000000000E+00  0.00000000000E+00  0.50000000000E+03  0.50000000000E+03  0.00000000000E+00 0.  1.
         11   -1    0    0    0    0 -0.00000000000E+00 -0.00000000000E+00 -0.50000000000E+03  0.50000000000E+03  0.00000000000E+00 0.  1.
         23    2    1    2    0    0 -0.13490254042E+03 -0.35487987412E+02  0.30022316200E+03  0.34486196902E+03  0.96631972006E+02 0.  0.
        -11    1    1    2    0    0  0.15887348759E+03 -0.33257242459E+02  0.13668722884E+03  0.21220326992E+03  0.00000000000E+00 0.  1.
         11    1    1    2    0    0 -0.23970947170E+02  0.68745229871E+02 -0.43691039084E+03  0.44293476107E+03  0.00000000000E+00 0.  1.
        -15    1    3    3    0    0 -0.64793802661E+02  0.21867982817E+02  0.72009254604E+02  0.99322384252E+02  0.17770000000E+01 0.  1.
         15    1    3    3    0    0 -0.70108737758E+02 -0.57355970230E+02  0.22821390739E+03  0.24553958477E+03  0.17770000000E+01 0. -1.
</event>
<event>
 7    1  0.6322078E-006  0.5193650E+03  0.7546771E-02  0.9357492E-01
        -11   -1    0    0    0    0  0.00000000000E+00  0.00000000000E+00  0.50000000000E+03  0.50000000000E+03  0.00000000000E+00 0.  1.
         11   -1    0    0    0    0 -0.00000000000E+00 -0.00000000000E+00 -0.50000000000E+03  0.50000000000E+03  0.00000000000E+00 0. -1.
         23    2    1    2    0    0  0.21877260285E+03  0.26316673920E+02 -0.24175590128E+03  0.33958349697E+03  0.91197678290E+02 0.  0.
        -11    1    1    2    0    0 -0.23571555659E+03 -0.89638927702E+02  0.40916142022E+03  0.48063502658E+03  0.00000000000E+00 0.  1.
         11    1    1    2    0    0  0.16942953734E+02  0.63322253782E+02 -0.16740551894E+03  0.17978147646E+03  0.00000000000E+00 0. -1.
        -15    1    3    3    0    0  0.18622591634E+03  0.46687775031E+02 -0.16263830519E+03  0.25162316328E+03  0.17770000000E+01 0.  1.
         15    1    3    3    0    0  0.32546686513E+02 -0.20371101111E+02 -0.79117596083E+02  0.87960333687E+02  0.17770000000E+01 0. -1.
</event>
<event>
 7    1  0.6322078E-006  0.4247503E+03  0.7546771E-02  0.9585972E-01
        -11   -1    0    0    0    0  0.00000000000E+00  0.00000000000E+00  0.50000000000E+03  0.50000000000E+03  0.00000000000E+00 0.  1.
         11   -1    0    0    0    0 -0.00000000000E+00 -0.00000000000E+00 -0.50000000000E+03  0.50000000000E+03  0.00000000000E+00 0. -1.
         23    2    1    2    0    0  0.89644275350E+02  0.35733603833E+03 -0.18297791744E+03  0.42092375453E+03  0.89279048306E+02 0.  0.
        -11    1    1    2    0    0 -0.85655714195E+02 -0.28628134391E+03  0.31181994096E+03  0.43188607853E+03  0.00000000000E+00 0.  1.
         11    1    1    2    0    0 -0.39885611553E+01 -0.71054694412E+02 -0.12884202352E+03  0.14719016694E+03  0.00000000000E+00 0. -1.
        -15    1    3    3    0    0  0.35176150136E+02  0.27321063030E+02 -0.20413124133E+02  0.49027088322E+02  0.17770000000E+01 0.  1.
         15    1    3    3    0    0  0.54468125215E+02  0.33001497530E+03 -0.16256479331E+03  0.37189666621E+03  0.17770000000E+01 0. -1.
</event>
<event>
 7    1  0.6322078E-006  0.5211022E+03  0.7546771E-02  0.9353792E-01
        -11   -1    0    0    0    0  0.00000000000E+00  0.00000000000E+00  0.50000000000E+03  0.50000000000E+03  0.00000000000E+00 0. -1.
         11   -1    0    0    0    0 -0.00000000000E+00 -0.00000000000E+00 -0.50000000000E+03  0.50000000000E+03  0.00000000000E+00 0.  1.
         23    2    1    2    0    0 -0.31549831928E+02 -0.22482579236E+02  0.81574459828E+02  0.12852616882E+03  0.91453405138E+02 0.  0.
        -11    1    1    2    0    0 -0.26013897281E+02 -0.16335914445E+03  0.35602392116E+03  0.39257606315E+03  0.00000000000E+00 0. -1.
         11    1    1    2    0    0  0.57563729210E+02  0.18584172368E+03 -0.43759838098E+03  0.47889776803E+03  0.00000000000E+00 0.  1.
        -15    1    3    3    0    0 -0.45630569412E+02 -0.29487754441E+02  0.93877559894E+02  0.10847963176E+03  0.17770000000E+01 0. -1.
         15    1    3    3    0    0  0.14080737483E+02  0.70051752042E+01 -0.12303100066E+02  0.20046537056E+02  0.17770000000E+01 0.  1.
</event>
<event>
 7    1  0.1315095E-005  0.5114519E+03  0.7546771E-02  0.9374544E-01
        -11   -1    0    0    0    0  0.00000000000E+00  0.00000000000E+00  0.50000000000E+03  0.50000000000E+03  0.00000000000E+00 0. -1.
         11   -1    0    0    0    0 -0.00000000000E+00 -0.00000000000E+00 -0.50000000000E+03  0.50000000000E+03  0.00000000000E+00 0.  1.
         23    2    1    2    0    0  0.49650148570E+02  0.21158823731E+02 -0.32433787049E+03  0.34089447961E+03  0.90006438204E+02 0.  0.
        -11    1    1    2    0    0 -0.13576091869E+03 -0.65571242461E+02  0.46470275238E+03  0.48854811734E+03  0.00000000000E+00 0. -1.
         11    1    1    2    0    0  0.86110770120E+02  0.44412418730E+02 -0.14036488190E+03  0.17055740306E+03  0.00000000000E+00 0.  1.
        -15    1    3    3    0    0 -0.22787963517E+02  0.18502949820E+02 -0.60409081025E+02  0.67186793587E+02  0.17770000000E+01 0. -1.
         15    1    3    3    0    0  0.72438112087E+02  0.26558739115E+01 -0.26392878946E+03  0.27370768602E+03  0.17770000000E+01 0.  1.
</event>
<event>
 7    1  0.6322078E-006  0.5173496E+03  0.7546771E-02  0.9361804E-01
        -11   -1    0    0    0    0  0.00000000000E+00  0.00000000000E+00  0.50000000000E+03  0.50000000000E+03  0.00000000000E+00 0.  1.
         11   -1    0    0    0    0 -0.00000000000E+00 -0.00000000000E+00 -0.50000000000E+03  0.50000000000E+03  0.00000000000E+00 0.  1.
         23    2    1    2    0    0  0.53475144872E+02  0.19524088094E+02  0.32710356717E+03  0.34434063549E+03  0.91284984865E+02 0.  0.
        -11    1    1    2    0    0  0.85215532372E+02  0.87289746006E+02  0.12268210741E+03  0.17300891940E+03  0.00000000000E+00 0.  1.
         11    1    1    2    0    0 -0.13869067724E+03 -0.10681383410E+03 -0.44978567457E+03  0.48265044511E+03  0.00000000000E+00 0.  1.
        -15    1    3    3    0    0 -0.16897528001E+01  0.45962131725E+02  0.15439847658E+03  0.16111306625E+03  0.17770000000E+01 0.  1.
         15    1    3    3    0    0  0.55164897672E+02 -0.26438043631E+02  0.17270509059E+03  0.18322756924E+03  0.17770000000E+01 0. -1.
</event>
<event>
 7    1  0.6322078E-006  0.5346773E+03  0.7546771E-02  0.9325394E-01
        -11   -1    0    0    0    0  0.00000000000E+00  0.00000000000E+00  0.50000000000E+03  0.50000000000E+03  0.00000000000E+00 0. -1.
         11   -1    0    0    0    0 -0.00000000000E+00 -0.00000000000E+00 -0.50000000000E+03  0.50000000000E+03  0.00000000000E+00 0.  1.
         23    2    1    2    0    0 -0.17393126775E+02 -0.80526083872E+02  0.13851464954E+03  0.18574501256E+03  0.92346794810E+02 0.  0.
        -11    1    1    2    0    0  0.17541432194E+03  0.47348782894E+02  0.29789541565E+03  0.34893232904E+03  0.00000000000E+00 0. -1.
         11    1    1    2    0    0 -0.15802119517E+03  0.33177300978E+02 -0.43641006519E+03  0.46532265840E+03  0.00000000000E+00 0.  1.
        -15    1    3    3    0    0 -0.34745183112E+02 -0.17704436258E+02  0.79942440069E+01  0.39846461310E+02  0.17770000000E+01 0.  1.
         15    1    3    3    0    0  0.17352056337E+02 -0.62821647615E+02  0.13052040553E+03  0.14589855125E+03  0.17770000000E+01 0. -1.
</event>
<event>
 7    1  0.6322078E-006  0.3303297E+03  0.7546771E-02  0.9888110E-01
        -11   -1    0    0    0    0  0.00000000000E+00  0.00000000000E+00  0.50000000000E+03  0.50000000000E+03  0.00000000000E+00 0. -1.
         11   -1    0    0    0    0 -0.00000000000E+00 -0.00000000000E+00 -0.50000000000E+03  0.50000000000E+03  0.00000000000E+00 0.  1.
         23    2    1    2    0    0  0.24417705582E+02  0.14951301320E+03  0.28064865260E+03  0.33219598375E+03  0.92952353100E+02 0.  0.
        -11    1    1    2    0    0 -0.27457371005E+03 -0.94780597619E+02 -0.35396843855E+01  0.29049374055E+03  0.00000000000E+00 0. -1.
         11    1    1    2    0    0  0.25015600446E+03 -0.54732415580E+02 -0.27710896822E+03  0.37731027570E+03  0.00000000000E+00 0.  1.
        -15    1    3    3    0    0 -0.24964153372E+02  0.19985039779E+02  0.96636957611E+02  0.10180604144E+03  0.17770000000E+01 0.  1.
         15    1    3    3    0    0  0.49381858955E+02  0.12952797342E+03  0.18401169499E+03  0.23038994230E+03  0.17770000000E+01 0. -1.
</event>
<event>
 7    1  0.6322078E-006  0.5220982E+03  0.7546771E-02  0.9351677E-01
        -11   -1    0    0    0    0  0.00000000000E+00  0.00000000000E+00  0.50000000000E+03  0.50000000000E+03  0.00000000000E+00 0. -1.
         11   -1    0    0    0    0 -0.00000000000E+00 -0.00000000000E+00 -0.50000000000E+03  0.50000000000E+03  0.00000000000E+00 0. -1.
         23    2    1    2    0    0  0.16870127527E+02 -0.12507373417E+01  0.41763438832E+03  0.42705350997E+03  0.87578836032E+02 0.  0.
        -11    1    1    2    0    0  0.73810944913E+02 -0.32362127866E+02  0.50379798800E+02  0.95044658115E+02  0.00000000000E+00 0. -1.
         11    1    1    2    0    0 -0.90681072440E+02  0.33612865208E+02 -0.46801418712E+03  0.47790183192E+03  0.00000000000E+00 0. -1.
        -15    1    3    3    0    0 -0.34765024106E+02  0.54959526348E+01  0.12765837868E+03  0.13243349943E+03  0.17770000000E+01 0.  1.
         15    1    3    3    0    0  0.51635151633E+02 -0.67466899765E+01  0.28997600964E+03  0.29462001053E+03  0.17770000000E+01 0. -1.
</event>
<event>
 7    1  0.6322078E-006  0.5172053E+03  0.7546771E-02  0.9362114E-01
        -11   -1    0    0    0    0  0.00000000000E+00  0.00000000000E+00  0.50000000000E+03  0.50000000000E+03  0.00000000000E+00 0. -1.
         11   -1    0    0    0    0 -0.00000000000E+00 -0.00000000000E+00 -0.50000000000E+03  0.50000000000E+03  0.00000000000E+00 0.  1.
         23    2    1    2    0    0  0.24366622038E+02 -0.28204550725E+02  0.22819744209E+03  0.24776275179E+03  0.89011682641E+02 0.  0.
        -11    1    1    2    0    0  0.89308568829E+02  0.93237790240E+02  0.23649525716E+03  0.26944259622E+03  0.00000000000E+00 0. -1.
         11    1    1    2    0    0 -0.11367519087E+03 -0.65033239515E+02 -0.46469269925E+03  0.48279465200E+03  0.00000000000E+00 0.  1.
        -15    1    3    3    0    0  0.36920286187E+02 -0.55282141110E+02  0.16255697392E+03  0.17563356785E+03  0.17770000000E+01 0. -1.
         15    1    3    3    0    0 -0.12553664149E+02  0.27077590386E+02  0.65640468167E+02  0.72129183933E+02  0.17770000000E+01 0.  1.
</event>
<event>
 7    1  0.6322078E-006  0.5231731E+03  0.7546771E-02  0.9349401E-01
        -11   -1    0    0    0    0  0.00000000000E+00  0.00000000000E+00  0.50000000000E+03  0.50000000000E+03  0.00000000000E+00 0. -1.
         11   -1    0    0    0    0 -0.00000000000E+00 -0.00000000000E+00 -0.50000000000E+03  0.50000000000E+03  0.00000000000E+00 0.  1.
         23    2    1    2    0    0 -0.16018309398E+01  0.34792460160E+01 -0.11303151567E+03  0.14496355078E+03  0.90684268238E+02 0.  0.
        -11    1    1    2    0    0  0.19658969465E+03 -0.95154868654E+02  0.42386549183E+03  0.47682692063E+03  0.00000000000E+00 0. -1.
         11    1    1    2    0    0 -0.19498786371E+03  0.91675622638E+02 -0.31083397616E+03  0.37820952859E+03  0.00000000000E+00 0.  1.
        -15    1    3    3    0    0 -0.19100138882E+02  0.40605601248E+02 -0.81951510766E+02  0.93449654915E+02  0.17770000000E+01 0.  1.
         15    1    3    3    0    0  0.17498307942E+02 -0.37126355232E+02 -0.31080004902E+02  0.51513895866E+02  0.17770000000E+01 0. -1.
</event>
<event>
 7    1  0.6322078E-006  0.3634042E+03  0.7546771E-02  0.9771173E-01
        -11   -1    0    0    0    0  0.00000000000E+00  0.00000000000E+00  0.50000000000E+03  0.50000000000E+03  0.00000000000E+00 0.  1.
         11   -1    0    0    0    0 -0.00000000000E+00 -0.00000000000E+00 -0.50000000000E+03  0.50000000000E+03  0.00000000000E+00 0. -1.
         23    2    1    2    0    0 -0.13481131592E+03 -0.11228642634E+03  0.23039361795E+03  0.30313881911E+03  0.89607990814E+02 0.  0.
        -11    1    1    2    0    0  0.56041366988E+02  0.99858703378E+02  0.21542437891E+03  0.24396733077E+03  0.00000000000E+00 0.  1.
         11    1    1    2    0    0  0.78769948930E+02  0.12427722964E+02 -0.44581799686E+03  0.45289385012E+03  0.00000000000E+00 0. -1.
        -15    1    3    3    0    0 -0.82158883574E+01  0.15044434223E+02  0.16402101315E+02  0.23791226936E+02  0.17770000000E+01 0. -1.
         15    1    3    3    0    0 -0.12659542756E+03 -0.12733086056E+03  0.21399151664E+03  0.27934759217E+03  0.17770000000E+01 0.  1.
</event>
<event>
 6    1  0.6322078E-006  0.4780452E+03  0.7546771E-02  0.9450321E-01
        -11   -1    0    0    0    0  0.00000000000E+00  0.00000000000E+00  0.50000000000E+03  0.50000000000E+03  0.00000000000E+00 0.  1.
         11   -1    0    0    0    0 -0.00000000000E+00 -0.00000000000E+00 -0.50000000000E+03  0.50000000000E+03  0.00000000000E+00 0. -1.
        -11    1    1    2    0    0  0.14238342219E+02 -0.17610851584E+02  0.55637166417E+02  0.60069682616E+02  0.00000000000E+00 0.  1.
         11    1    1    2    0    0 -0.12972099671E+02  0.10934728015E+03 -0.47695499943E+03  0.48950094436E+03  0.00000000000E+00 0. -1.
        -15    1    1    2    0    0 -0.58210124296E+02 -0.81832878972E+02  0.29138062530E+03  0.30820588116E+03  0.17770000000E+01 0.  1.
         15    1    1    2    0    0  0.56943881748E+02 -0.99035495964E+01  0.12993720771E+03  0.14222349187E+03  0.17770000000E+01 0. -1.
</event>
<event>
 7    1  0.6322078E-006  0.3336229E+03  0.7546771E-02  0.9875821E-01
        -11   -1    0    0    0    0  0.00000000000E+00  0.00000000000E+00  0.50000000000E+03  0.50000000000E+03  0.00000000000E+00 0. -1.
         11   -1    0    0    0    0 -0.00000000000E+00 -0.00000000000E+00 -0.50000000000E+03  0.50000000000E+03  0.00000000000E+00 0.  1.
         23    2    1    2    0    0 -0.16401255517E+03 -0.78289049930E+02  0.31773568933E+03  0.38335556356E+03  0.11391324000E+03 0.  0.
        -11    1    1    2    0    0  0.24421636500E+03 -0.13363199410E+03 -0.83252877374E+02  0.29056872573E+03  0.00000000000E+00 0. -1.
         11    1    1    2    0    0 -0.80203809826E+02  0.21192104403E+03 -0.23448281195E+03  0.32607571071E+03  0.00000000000E+00 0.  1.
        -15    1    3    3    0    0 -0.15027225195E+03 -0.61995077427E+02  0.32275635696E+03  0.36138616882E+03  0.17770000000E+01 0. -1.
         15    1    3    3    0    0 -0.13740303225E+02 -0.16293972502E+02 -0.50206676307E+01  0.21969394736E+02  0.17770000000E+01 0.  1.
</event>
<event>
 7    1  0.6322078E-006  0.4313606E+03  0.7546771E-02  0.9568025E-01
        -11   -1    0    0    0    0  0.00000000000E+00  0.00000000000E+00  0.50000000000E+03  0.50000000000E+03  0.00000000000E+00 0. -1.
         11   -1    0    0    0    0 -0.00000000000E+00 -0.00000000000E+00 -0.50000000000E+03  0.50000000000E+03  0.00000000000E+00 0.  1.
         23    2    1    2    0    0  0.76149266530E+02  0.48540944972E+02 -0.19116508241E+02  0.13235472523E+03  0.94854616506E+02 0.  0.
        -11    1    1    2    0    0 -0.11425453792E+02 -0.97866748428E+02  0.43390390086E+03  0.44495060021E+03  0.00000000000E+00 0. -1.
         11    1    1    2    0    0 -0.64723812738E+02  0.49325803455E+02 -0.41478739262E+03  0.42269467456E+03  0.00000000000E+00 0.  1.
        -15    1    3    3    0    0  0.25115277365E+02  0.67530424902E+02  0.60830416432E+01  0.72327702640E+02  0.17770000000E+01 0. -1.
         15    1    3    3    0    0  0.51033989166E+02 -0.18989479929E+02 -0.25199549885E+02  0.60027022594E+02  0.17770000000E+01 0.  1.
</event>
<event>
 7    1  0.6322078E-006  0.5224095E+03  0.7546771E-02  0.9351017E-01
        -11   -1    0    0    0    0  0.00000000000E+00  0.00000000000E+00  0.50000000000E+03  0.50000000000E+03  0.00000000000E+00 0. -1.
         11   -1    0    0    0    0 -0.00000000000E+00 -0.00000000000E+00 -0.50000000000E+03  0.50000000000E+03  0.00000000000E+00 0.  1.
         23    2    1    2    0    0 -0.14720591782E+01  0.82347025532E+02 -0.29344265220E+03  0.31827499236E+03  0.91690681406E+02 0.  0.
        -11    1    1    2    0    0 -0.10772169494E+03 -0.49108817149E+02  0.46268461217E+03  0.47759050432E+03  0.00000000000E+00 0. -1.
         11    1    1    2    0    0  0.10919375411E+03 -0.33238208383E+02 -0.16924195996E+03  0.20413450332E+03  0.00000000000E+00 0.  1.
        -15    1    3    3    0    0  0.32199856671E+02  0.82807143603E+02 -0.19727992476E+03  0.21637093207E+03  0.17770000000E+01 0.  1.
         15    1    3    3    0    0 -0.33671915849E+02 -0.46011807042E+00 -0.96162727445E+02  0.10190406029E+03  0.17770000000E+01 0. -1.
</event>
<event>
 7    1  0.6322078E-006  0.3956226E+03  0.7546771E-02  0.9669424E-01
        -11   -1    0    0    0    0  0.00000000000E+00  0.00000000000E+00  0.50000000000E+03  0.50000000000E+03  0.00000000000E+00 0.  1.
         11   -1    0    0    0    0 -0.00000000000E+00 -0.00000000000E+00 -0.50000000000E+03  0.50000000000E+03  0.00000000000E+00 0.  1.
         23    2    1    2    0    0  0.91278655106E+02  0.19296713000E+03  0.37983196925E+03  0.44531376359E+03  0.91999549123E+02 0.  0.
        -11    1    1    2    0    0  0.13147215545E+03 -0.73440419325E+02 -0.12464842766E+03  0.19548824355E+03  0.00000000000E+00 0.  1.
         11    1    1    2    0    0 -0.22275081056E+03 -0.11952671068E+03 -0.25518354160E+03  0.35919799285E+03  0.00000000000E+00 0.  1.
        -15    1    3    3    0    0  0.10616405385E+03  0.15161614402E+03  0.27354394776E+03  0.33028428746E+03  0.17770000000E+01 0.  1.
         15    1    3    3    0    0 -0.14885398745E+02  0.41350985984E+02  0.10628802149E+03  0.11502947613E+03  0.17770000000E+01 0. -1.
</event>
<event>
 7    1  0.6322078E-006  0.3772653E+03  0.7546771E-02  0.9726067E-01
        -11   -1    0    0    0    0  0.00000000000E+00  0.00000000000E+00  0.50000000000E+03  0.50000000000E+03  0.00000000000E+00 0.  1.
         11   -1    0    0    0    0 -0.00000000000E+00 -0.00000000000E+00 -0.50000000000E+03  0.50000000000E+03  0.00000000000E+00 0.  1.
         23    2    1    2    0    0 -0.19923817332E+03 -0.30426059365E+02 -0.19795968001E+02  0.21876388537E+03  0.82729453003E+02 0.  0.
        -11    1    1    2    0    0  0.12115629448E+03  0.75769090977E+02  0.38204962836E+03  0.40789915589E+03  0.00000000000E+00 0.  1.
         11    1    1    2    0    0  0.78081878846E+02 -0.45343031612E+02 -0.36225366036E+03  0.37333695875E+03  0.00000000000E+00 0.  1.
        -15    1    3    3    0    0 -0.18800498957E+03 -0.18395310027E+02  0.49671299408E+01  0.18897643674E+03  0.17770000000E+01 0.  1.
         15    1    3    3    0    0 -0.11233183749E+02 -0.12030749338E+02 -0.24763097942E+02  0.29787448622E+02  0.17770000000E+01 0. -1.
</event>
<event>
 7    1  0.6322078E-006  0.5105804E+03  0.7546771E-02  0.9376442E-01
        -11   -1    0    0    0    0  0.00000000000E+00  0.00000000000E+00  0.50000000000E+03  0.50000000000E+03  0.00000000000E+00 0.  1.
         11   -1    0    0    0    0 -0.00000000000E+00 -0.00000000000E+00 -0.50000000000E+03  0.50000000000E+03  0.00000000000E+00 0. -1.
         23    2    1    2    0    0 -0.26315452820E+02  0.27560478886E+02  0.38351052312E+03  0.39691416947E+03  0.94912873372E+02 0.  0.
        -11    1    1    2    0    0 -0.58286273022E+02  0.41982132027E+01  0.97494111897E+02  0.11366625036E+03  0.00000000000E+00 0.  1.
         11    1    1    2    0    0  0.84601725842E+02 -0.31758692089E+02 -0.48100463502E+03  0.48941958016E+03  0.00000000000E+00 0. -1.
        -15    1    3    3    0    0  0.17055546100E+02  0.50389562065E+02  0.19767638515E+03  0.20471714777E+03  0.17770000000E+01 0.  1.
         15    1    3    3    0    0 -0.43370998920E+02 -0.22829083179E+02  0.18583413798E+03  0.19219702170E+03  0.17770000000E+01 0. -1.
</event>
<event>
 7    1  0.6322078E-006  0.5173312E+03  0.7546771E-02  0.9361844E-01
        -11   -1    0    0    0    0  0.00000000000E+00  0.00000000000E+00  0.50000000000E+03  0.50000000000E+03  0.00000000000E+00 0.  1.
         11   -1    0    0    0    0 -0.00000000000E+00 -0.00000000000E+00 -0.50000000000E+03  0.50000000000E+03  0.00000000000E+00 0. -1.
         23    2    1    2    0    0  0.53362687463E+02 -0.50073582899E+02  0.20515059634E+03  0.23623705600E+03  0.91467148921E+02 0.  0.
        -11    1    1    2    0    0  0.46157009201E+02  0.76973758577E+02  0.26638031990E+03  0.28109411918E+03  0.00000000000E+00 0.  1.
         11    1    1    2    0    0 -0.99519696664E+02 -0.26900175678E+02 -0.47153091624E+03  0.48266882482E+03  0.00000000000E+00 0. -1.
        -15    1    3    3    0    0  0.71734552898E+02 -0.61061754948E+02  0.17994409628E+03  0.20311922487E+03  0.17770000000E+01 0.  1.
         15    1    3    3    0    0 -0.18371865435E+02  0.10988172050E+02  0.25206500063E+02  0.33117831133E+02  0.17770000000E+01 0. -1.
</event>
<event>
 7    1  0.6322078E-006  0.3705955E+03  0.7546771E-02  0.9747508E-01
        -11   -1    0    0    0    0  0.00000000000E+00  0.00000000000E+00  0.50000000000E+03  0.50000000000E+03  0.00000000000E+00 0.  1.
         11   -1    0    0    0    0 -0.00000000000E+00 -0.00000000000E+00 -0.50000000000E+03  0.50000000000E+03  0.00000000000E+00 0. -1.
         23    2    1    2    0    0 -0.84791812588E+01 -0.60191456464E+02  0.30201864168E+03  0.32132296060E+03  0.91314167249E+02 0.  0.
        -11    1    1    2    0    0 -0.18941063687E+03  0.98978823192E+02  0.94617932802E+02  0.23372152234E+03  0.00000000000E+00 0.  1.
         11    1    1    2    0    0  0.19788981813E+03 -0.38787366728E+02 -0.39663657449E+03  0.44495551705E+03  0.00000000000E+00 0. -1.
        -15    1    3    3    0    0 -0.15424605845E+02  0.21980401983E+02  0.84964874316E+02  0.89124879429E+02  0.17770000000E+01 0. -1.
         15    1    3    3    0    0  0.69454245864E+01 -0.82171858447E+02  0.21705376737E+03  0.23219808117E+03  0.17770000000E+01 0.  1.
</event>
<event>
 7    1  0.6322078E-006  0.5013988E+03  0.7546771E-02  0.9396685E-01
        -11   -1    0    0    0    0  0.00000000000E+00  0.00000000000E+00  0.50000000000E+03  0.50000000000E+03  0.00000000000E+00 0.  1.
         11   -1    0    0    0    0 -0.00000000000E+00 -0.00000000000E+00 -0.50000000000E+03  0.50000000000E+03  0.00000000000E+00 0.  1.
         23    2    1    2    0    0 -0.15104096066E+03  0.17931905870E+03  0.43336247456E+03  0.50139881659E+03  0.92892638600E+02 0.  0.
        -11    1    1    2    0    0  0.13960992674E+03 -0.18607807277E+03 -0.40053268217E+03  0.46318723028E+03  0.00000000000E+00 0.  1.
         11    1    1    2    0    0  0.11431033925E+02  0.67590140695E+01 -0.32829792389E+02  0.35413953127E+02  0.00000000000E+00 0.  1.
        -15    1    3    3    0    0 -0.86012071649E+02  0.78654043644E+02  0.30127056266E+03  0.32303505182E+03  0.17770000000E+01 0.  1.
         15    1    3    3    0    0 -0.65028889014E+02  0.10066501505E+03  0.13209191190E+03  0.17836376477E+03  0.17770000000E+01 0. -1.
</event>
<event>
 7    1  0.6322078E-006  0.3484277E+03  0.7546771E-02  0.9822396E-01
        -11   -1    0    0    0    0  0.00000000000E+00  0.00000000000E+00  0.50000000000E+03  0.50000000000E+03  0.00000000000E+00 0.  1.
         11   -1    0    0    0    0 -0.00000000000E+00 -0.00000000000E+00 -0.50000000000E+03  0.50000000000E+03  0.00000000000E+00 0.  1.
         23    2    1    2    0    0 -0.33716197242E+02  0.20936117925E+02  0.28889410103E+03  0.30539447345E+03  0.90724196406E+02 0.  0.
        -11    1    1    2    0    0  0.48941423035E+02  0.25838442932E+03  0.36498462493E+02  0.26549936717E+03  0.00000000000E+00 0.  1.
         11    1    1    2    0    0 -0.15225225793E+02 -0.27932054725E+03 -0.32539256353E+03  0.42910615937E+03  0.00000000000E+00 0.  1.
        -15    1    3    3    0    0 -0.36201409539E+02  0.53888693488E+02  0.21081071371E+03  0.22058750663E+03  0.17770000000E+01 0. -1.
         15    1    3    3    0    0  0.24852122967E+01 -0.32952575563E+02  0.78083387328E+02  0.84806966825E+02  0.17770000000E+01 0.  1.
</event>
<event>
 7    1  0.6322078E-006  0.4628778E+03  0.7546771E-02  0.9486933E-01
        -11   -1    0    0    0    0  0.00000000000E+00  0.00000000000E+00  0.50000000000E+03  0.50000000000E+03  0.00000000000E+00 0.  1.
         11   -1    0    0    0    0 -0.00000000000E+00 -0.00000000000E+00 -0.50000000000E+03  0.50000000000E+03  0.00000000000E+00 0. -1.
         23    2    1    2    0    0  0.24765366465E+03 -0.23837136258E+03 -0.25576448735E+03  0.43745100139E+03  0.88287380264E+02 0.  0.
        -11    1    1    2    0    0 -0.26235408117E+03  0.23136539861E+03  0.33339394983E+03  0.48322990115E+03  0.00000000000E+00 0.  1.
         11    1    1    2    0    0  0.14700416520E+02  0.70059639693E+01 -0.77629462482E+02  0.79319097462E+02  0.00000000000E+00 0. -1.
        -15    1    3    3    0    0  0.44768906602E+02 -0.46907611181E+01 -0.39376286850E+02  0.59832331839E+02  0.17770000000E+01 0.  1.
         15    1    3    3    0    0  0.20288475805E+03 -0.23368060146E+03 -0.21638820050E+03  0.37761866955E+03  0.17770000000E+01 0. -1.
</event>
<event>
 7    1  0.6322078E-006  0.5175621E+03  0.7546771E-02  0.9361349E-01
        -11   -1    0    0    0    0  0.00000000000E+00  0.00000000000E+00  0.50000000000E+03  0.50000000000E+03  0.00000000000E+00 0. -1.
         11   -1    0    0    0    0 -0.00000000000E+00 -0.00000000000E+00 -0.50000000000E+03  0.50000000000E+03  0.00000000000E+00 0. -1.
         23    2    1    2    0    0  0.87451706733E+02 -0.10646017238E+03 -0.27813124812E+03  0.32410686152E+03  0.93309684346E+02 0.  0.
        -11    1    1    2    0    0 -0.97376771669E+02  0.68358565046E+02  0.46753738761E+03  0.48243791091E+03  0.00000000000E+00 0. -1.
         11    1    1    2    0    0  0.99250649357E+01  0.38101607332E+02 -0.18940613949E+03  0.19345522756E+03  0.00000000000E+00 0. -1.
        -15    1    3    3    0    0  0.43323924373E+02 -0.10639462278E+03 -0.15247139264E+03  0.19091218265E+03  0.17770000000E+01 0.  1.
         15    1    3    3    0    0  0.44127782360E+02 -0.65549592477E-01 -0.12565985548E+03  0.13319467887E+03  0.17770000000E+01 0. -1.
</event>
<event>
 7    1  0.6322078E-006  0.5244661E+03  0.7546771E-02  0.9346670E-01
        -11   -1    0    0    0    0  0.00000000000E+00  0.00000000000E+00  0.50000000000E+03  0.50000000000E+03  0.00000000000E+00 0.  1.
         11   -1    0    0    0    0 -0.00000000000E+00 -0.00000000000E+00 -0.50000000000E+03  0.50000000000E+03  0.00000000000E+00 0. -1.
         23    2    1    2    0    0 -0.98108802916E+02 -0.10953298140E+02  0.37845792452E+03  0.40173954785E+03  0.91754845819E+02 0.  0.
        -11    1    1    2    0    0 -0.39316644739E+02 -0.97223548953E+02  0.63746245853E+02  0.12272652886E+03  0.00000000000E+00 0.  1.
         11    1    1    2    0    0  0.13742544765E+03  0.10817684709E+03 -0.44220417037E+03  0.47553392329E+03  0.00000000000E+00 0. -1.
        -15    1    3    3    0    0  0.17064921087E+02  0.41786972092E+01  0.35716711562E+02  0.39843622524E+02  0.17770000000E+01 0. -1.
         15    1    3    3    0    0 -0.11517372400E+03 -0.15131995349E+02  0.34274121295E+03  0.36189592533E+03  0.17770000000E+01 0.  1.
</event>
<event>
 7    1  0.6322078E-006  0.3735240E+03  0.7546771E-02  0.9738035E-01
        -11   -1    0    0    0    0  0.00000000000E+00  0.00000000000E+00  0.50000000000E+03  0.50000000000E+03  0.00000000000E+00 0.  1.
         11   -1    0    0    0    0 -0.00000000000E+00 -0.00000000000E+00 -0.50000000000E+03  0.50000000000E+03  0.00000000000E+00 0. -1.
         23    2    1    2    0    0  0.37060263432E+02  0.19214832105E+03  0.30162810931E+03  0.36969578570E+03  0.86029164989E+02 0.  0.
        -11    1    1    2    0    0 -0.16835523026E+03 -0.13548954071E+03  0.73964157483E+02  0.22841102379E+03  0.00000000000E+00 0.  1.
         11    1    1    2    0    0  0.13129496682E+03 -0.56658780337E+02 -0.37559226679E+03  0.40189319051E+03  0.00000000000E+00 0. -1.
        -15    1    3    3    0    0  0.15496046653E+02  0.13463371319E+03  0.26632044591E+03  0.29882453351E+03  0.17770000000E+01 0. -1.
         15    1    3    3    0    0  0.21564216779E+02  0.57514607864E+02  0.35307663400E+02  0.70871252188E+02  0.17770000000E+01 0.  1.
</event>
<event>
 7    1  0.6322078E-006  0.5158091E+03  0.7546771E-02  0.9365114E-01
        -11   -1    0    0    0    0  0.00000000000E+00  0.00000000000E+00  0.50000000000E+03  0.50000000000E+03  0.00000000000E+00 0. -1.
         11   -1    0    0    0    0 -0.00000000000E+00 -0.00000000000E+00 -0.50000000000E+03  0.50000000000E+03  0.00000000000E+00 0.  1.
         23    2    1    2    0    0 -0.12312825707E+02 -0.50043242645E+02  0.22275025890E+03  0.24626880017E+03  0.91513454131E+02 0.  0.
        -11    1    1    2    0    0  0.13883610704E+02 -0.17052035766E+03  0.20828348439E+03  0.26954026952E+03  0.00000000000E+00 0. -1.
         11    1    1    2    0    0 -0.15707849970E+01  0.22056360030E+03 -0.43103374329E+03  0.48419093031E+03  0.00000000000E+00 0.  1.
        -15    1    3    3    0    0  0.16736134615E+02 -0.52769372366E+02  0.20436290474E+03  0.21173582461E+03  0.17770000000E+01 0. -1.
         15    1    3    3    0    0 -0.29048960321E+02  0.27261297209E+01  0.18387354160E+02  0.34532975560E+02  0.17770000000E+01 0.  1.
</event>
<event>
 7    1  0.6322078E-006  0.5190578E+03  0.7546771E-02  0.9358148E-01
        -11   -1    0    0    0    0  0.00000000000E+00  0.00000000000E+00  0.50000000000E+03  0.50000000000E+03  0.00000000000E+00 0.  1.
         11   -1    0    0    0    0 -0.00000000000E+00 -0.00000000000E+00 -0.50000000000E+03  0.50000000000E+03  0.00000000000E+00 0. -1.
         23    2    1    2    0    0  0.12013993842E+02  0.62925376834E+02  0.14739365789E+03  0.18771945903E+03  0.97003947424E+02 0.  0.
        -11    1    1    2    0    0  0.66527167940E+02 -0.12121446532E+02  0.32436441976E+03  0.33133830196E+03  0.00000000000E+00 0.  1.
         11    1    1    2    0    0 -0.78541161782E+02 -0.50803930302E+02 -0.47175807765E+03  0.48094223900E+03  0.00000000000E+00 0. -1.
        -15    1    3    3    0    0  0.45138056603E+02  0.48115883979E+02  0.13331947133E+03  0.14876095459E+03  0.17770000000E+01 0.  1.
         15    1    3    3    0    0 -0.33124062762E+02  0.14809492855E+02  0.14074186564E+02  0.38958504449E+02  0.17770000000E+01 0. -1.
</event>
<event>
 7    1  0.6322078E-006  0.5424845E+03  0.7546771E-02  0.9309464E-01
        -11   -1    0    0    0    0  0.00000000000E+00  0.00000000000E+00  0.50000000000E+03  0.50000000000E+03  0.00000000000E+00 0.  1.
         11   -1    0    0    0    0 -0.00000000000E+00 -0.00000000000E+00 -0.50000000000E+03  0.50000000000E+03  0.00000000000E+00 0.  1.
         23    2    1    2    0    0  0.11299784604E+03  0.61042072749E+02  0.15458433508E+03  0.22036452981E+03  0.90385626553E+02 0.  0.
        -11    1    1    2    0    0 -0.55490017632E+02 -0.11368522534E+03  0.29623938279E+03  0.32211992244E+03  0.00000000000E+00 0.  1.
         11    1    1    2    0    0 -0.57507828412E+02  0.52643152588E+02 -0.45082371787E+03  0.45751554776E+03  0.00000000000E+00 0.  1.
        -15    1    3    3    0    0  0.34751945928E+02 -0.31879105852E+01 -0.74468827047E+00  0.34951005841E+02  0.17770000000E+01 0. -1.
         15    1    3    3    0    0  0.78245900116E+02  0.64229983334E+02  0.15532902336E+03  0.18541352397E+03  0.17770000000E+01 0.  1.
</event>
<event>
 7    1  0.6322078E-006  0.5136628E+03  0.7546771E-02  0.9369747E-01
        -11   -1    0    0    0    0  0.00000000000E+00  0.00000000000E+00  0.50000000000E+03  0.50000000000E+03  0.00000000000E+00 0. -1.
         11   -1    0    0    0    0 -0.00000000000E+00 -0.00000000000E+00 -0.50000000000E+03  0.50000000000E+03  0.00000000000E+00 0.  1.
         23    2    1    2    0    0  0.94332423709E+02 -0.64036722054E+02  0.26894182977E+03  0.30611627707E+03  0.91532285853E+02 0.  0.
        -11    1    1    2    0    0  0.12442568553E+02 -0.12168589190E+03  0.16767019665E+03  0.20754654573E+03  0.00000000000E+00 0. -1.
         11    1    1    2    0    0 -0.10677499226E+03  0.18572261396E+03 -0.43661202642E+03  0.48633717720E+03  0.00000000000E+00 0.  1.
        -15    1    3    3    0    0  0.47722250979E+02 -0.25740746431E+02  0.22503884912E+03  0.23148572441E+03  0.17770000000E+01 0. -1.
         15    1    3    3    0    0  0.46610172730E+02 -0.38295975623E+02  0.43902980648E+02  0.74630552655E+02  0.17770000000E+01 0.  1.
</event>
<event>
 7    1  0.6322078E-006  0.5273066E+03  0.7546771E-02  0.9340700E-01
        -11   -1    0    0    0    0  0.00000000000E+00  0.00000000000E+00  0.50000000000E+03  0.50000000000E+03  0.00000000000E+00 0. -1.
         11   -1    0    0    0    0 -0.00000000000E+00 -0.00000000000E+00 -0.50000000000E+03  0.50000000000E+03  0.00000000000E+00 0.  1.
         23    2    1    2    0    0 -0.50828748541E+01  0.95405151105E+02 -0.11274466988E+03  0.17379630520E+03  0.91464838273E+02 0.  0.
        -11    1    1    2    0    0  0.78710350713E+02 -0.84685179299E+02  0.45833631558E+03  0.47269342822E+03  0.00000000000E+00 0. -1.
         11    1    1    2    0    0 -0.73627475859E+02 -0.10719971806E+02 -0.34559164570E+03  0.35351026658E+03  0.00000000000E+00 0.  1.
        -15    1    3    3    0    0 -0.36144840592E+02  0.74448592563E+02 -0.39970839689E+02  0.91923164602E+02  0.17770000000E+01 0. -1.
         15    1    3    3    0    0  0.31061965738E+02  0.20956558542E+02 -0.72773830194E+02  0.81873140599E+02  0.17770000000E+01 0.  1.
</event>
<event>
 7    1  0.6322078E-006  0.5271167E+03  0.7546771E-02  0.9341098E-01
        -11   -1    0    0    0    0  0.00000000000E+00  0.00000000000E+00  0.50000000000E+03  0.50000000000E+03  0.00000000000E+00 0. -1.
         11   -1    0    0    0    0 -0.00000000000E+00 -0.00000000000E+00 -0.50000000000E+03  0.50000000000E+03  0.00000000000E+00 0.  1.
         23    2    1    2    0    0 -0.75566836228E+02  0.22118985824E+03 -0.29262452698E+03  0.38474584090E+03  0.88118943341E+02 0.  0.
        -11    1    1    2    0    0  0.85748682471E+01 -0.34224007938E+03  0.32621590713E+03  0.47288330312E+03  0.00000000000E+00 0. -1.
         11    1    1    2    0    0  0.66991967981E+02  0.12105022114E+03 -0.33591380152E+02  0.14237085598E+03  0.00000000000E+00 0.  1.
        -15    1    3    3    0    0 -0.69091918193E+02  0.15288982661E+03 -0.25830033821E+03  0.30801171194E+03  0.17770000000E+01 0.  1.
         15    1    3    3    0    0 -0.64749180352E+01  0.68300031636E+02 -0.34324188767E+02  0.76734128968E+02  0.17770000000E+01 0. -1.
</event>
<event>
 7    1  0.6322078E-006  0.5143393E+03  0.7546771E-02  0.9368284E-01
        -11   -1    0    0    0    0  0.00000000000E+00  0.00000000000E+00  0.50000000000E+03  0.50000000000E+03  0.00000000000E+00 0. -1.
         11   -1    0    0    0    0 -0.00000000000E+00 -0.00000000000E+00 -0.50000000000E+03  0.50000000000E+03  0.00000000000E+00 0. -1.
         23    2    1    2    0    0  0.28421561047E+02 -0.21583330828E+02  0.27457925952E+03  0.29238201086E+03  0.93914030975E+02 0.  0.
        -11    1    1    2    0    0  0.45103114282E+02  0.80546534569E+02  0.20184892230E+03  0.22195725395E+03  0.00000000000E+00 0. -1.
         11    1    1    2    0    0 -0.73524675329E+02 -0.58963203741E+02 -0.47642818182E+03  0.48566073519E+03  0.00000000000E+00 0. -1.
        -15    1    3    3    0    0  0.26962605116E+02 -0.51380800991E+02  0.23883874343E+03  0.24579274171E+03  0.17770000000E+01 0. -1.
         15    1    3    3    0    0  0.14589559315E+01  0.29797470163E+02  0.35740516089E+02  0.46589269149E+02  0.17770000000E+01 0.  1.
</event>
<event>
 7    1  0.6322078E-006  0.4737853E+03  0.7546771E-02  0.9460457E-01
        -11   -1    0    0    0    0  0.00000000000E+00  0.00000000000E+00  0.50000000000E+03  0.50000000000E+03  0.00000000000E+00 0.  1.
         11   -1    0    0    0    0 -0.00000000000E+00 -0.00000000000E+00 -0.50000000000E+03  0.50000000000E+03  0.00000000000E+00 0.  1.
         23    2    1    2    0    0  0.30669616961E+02  0.22972804260E+02  0.46732183432E+03  0.47772727283E+03  0.91461878606E+02 0.  0.
        -11    1    1    2    0    0  0.56530551329E+02  0.11834415673E+02 -0.14132946547E+02  0.59460043777E+02  0.00000000000E+00 0.  1.
         11    1    1    2    0    0 -0.87200168290E+02 -0.34807219933E+02 -0.45318888777E+03  0.46281268339E+03  0.00000000000E+00 0.  1.
        -15    1    3    3    0    0 -0.29602258410E+02  0.24876287862E+02  0.19467104573E+03  0.19848198199E+03  0.17770000000E+01 0.  1.
         15    1    3    3    0    0  0.60271875371E+02 -0.19034836012E+01  0.27265078859E+03  0.27924529084E+03  0.17770000000E+01 0. -1.
</event>
<event>
 7    1  0.6322078E-006  0.5149107E+03  0.7546771E-02  0.9367050E-01
        -11   -1    0    0    0    0  0.00000000000E+00  0.00000000000E+00  0.50000000000E+03  0.50000000000E+03  0.00000000000E+00 0. -1.
         11   -1    0    0    0    0 -0.00000000000E+00 -0.00000000000E+00 -0.50000000000E+03  0.50000000000E+03  0.00000000000E+00 0.  1.
         23    2    1    2    0    0 -0.27557920681E+02 -0.21700518882E+03 -0.22308417239E+03  0.32221676643E+03  0.78780744046E+02 0.  0.
        -11    1    1    2    0    0 -0.45306732499E+02  0.29119366473E+03  0.38531173560E+03  0.48508925362E+03  0.00000000000E+00 0. -1.
         11    1    1    2    0    0  0.72864653180E+02 -0.74188475910E+02 -0.16222756321E+03  0.19269397994E+03  0.00000000000E+00 0.  1.
        -15    1    3    3    0    0  0.48302785783E+01 -0.18606055228E+03 -0.19358410076E+03  0.26855134053E+03  0.17770000000E+01 0.  1.
         15    1    3    3    0    0 -0.32388199259E+02 -0.30944636537E+02 -0.29500071631E+02  0.53665425899E+02  0.17770000000E+01 0. -1.
</event>
<event>
 7    1  0.6322078E-006  0.3915087E+03  0.7546771E-02  0.9681828E-01
        -11   -1    0    0    0    0  0.00000000000E+00  0.00000000000E+00  0.50000000000E+03  0.50000000000E+03  0.00000000000E+00 0.  1.
         11   -1    0    0    0    0 -0.00000000000E+00 -0.00000000000E+00 -0.50000000000E+03  0.50000000000E+03  0.00000000000E+00 0. -1.
         23    2    1    2    0    0 -0.92339973396E+02 -0.25910893320E+02  0.40416141639E+03  0.42544353831E+03  0.91965801832E+02 0.  0.
        -11    1    1    2    0    0 -0.64292682718E+02 -0.15185405074E+03 -0.11659521666E+03  0.20195951655E+03  0.00000000000E+00 0.  1.
         11    1    1    2    0    0  0.15663265611E+03  0.17776494406E+03 -0.28756619973E+03  0.37259694514E+03  0.00000000000E+00 0. -1.
        -15    1    3    3    0    0 -0.19223946582E+02 -0.50498253229E+02  0.13445843299E+03  0.14492019056E+03  0.17770000000E+01 0. -1.
         15    1    3    3    0    0 -0.73116026814E+02  0.24587359909E+02  0.26970298341E+03  0.28052334775E+03  0.17770000000E+01 0.  1.
</event>
<event>
 7    1  0.6322078E-006  0.5365375E+03  0.7546771E-02  0.9321572E-01
        -11   -1    0    0    0    0  0.00000000000E+00  0.00000000000E+00  0.50000000000E+03  0.50000000000E+03  0.00000000000E+00 0.  1.
         11   -1    0    0    0    0 -0.00000000000E+00 -0.00000000000E+00 -0.50000000000E+03  0.50000000000E+03  0.00000000000E+00 0. -1.
         23    2    1    2    0    0 -0.20684476097E+02  0.47592405453E+02  0.11353615539E+03  0.15512767147E+03  0.92093709152E+02 0.  0.
        -11    1    1    2    0    0 -0.42230869025E+02 -0.20868367315E+03  0.31645080148E+03  0.38140979471E+03  0.00000000000E+00 0.  1.
         11    1    1    2    0    0  0.62915345122E+02  0.16109126770E+03 -0.42998695688E+03  0.46346253383E+03  0.00000000000E+00 0. -1.
        -15    1    3    3    0    0 -0.33321036513E+02  0.56025400296E+02  0.12149237824E+03  0.13788652092E+03  0.17770000000E+01 0.  1.
         15    1    3    3    0    0  0.12636560416E+02 -0.84329948428E+01 -0.79562228467E+01  0.17241150546E+02  0.17770000000E+01 0. -1.
</event>
<event>
 7    1  0.6322078E-006  0.5095218E+03  0.7546771E-02  0.9378752E-01
        -11   -1    0    0    0    0  0.00000000000E+00  0.00000000000E+00  0.50000000000E+03  0.50000000000E+03  0.00000000000E+00 0.  1.
         11   -1    0    0    0    0 -0.00000000000E+00 -0.00000000000E+00 -0.50000000000E+03  0.50000000000E+03  0.00000000000E+00 0. -1.
         23    2    1    2    0    0  0.78832696833E+02  0.11426689463E+02  0.31166173456E+03  0.33317883835E+03  0.86775216556E+02 0.  0.
        -11    1    1    2    0    0  0.55342085973E+02  0.66630433781E+02  0.15360494176E+03  0.17634295936E+03  0.00000000000E+00 0.  1.
         11    1    1    2    0    0 -0.13417478281E+03 -0.78057123244E+02 -0.46526667632E+03  0.49047820229E+03  0.00000000000E+00 0. -1.
        -15    1    3    3    0    0  0.13255872177E+02  0.42722815470E+02  0.13132237843E+03  0.13874322295E+03  0.17770000000E+01 0. -1.
         15    1    3    3    0    0  0.65576824655E+02 -0.31296126007E+02  0.18033935613E+03  0.19443561539E+03  0.17770000000E+01 0.  1.
</event>
<event>
 7    1  0.6322078E-006  0.3764088E+03  0.7546771E-02  0.9728794E-01
        -11   -1    0    0    0    0  0.00000000000E+00  0.00000000000E+00  0.50000000000E+03  0.50000000000E+03  0.00000000000E+00 0.  1.
         11   -1    0    0    0    0 -0.00000000000E+00 -0.00000000000E+00 -0.50000000000E+03  0.50000000000E+03  0.00000000000E+00 0. -1.
         23    2    1    2    0    0  0.20470453661E+02  0.52947868109E+02  0.34421193881E+03  0.36146304560E+03  0.94610561259E+02 0.  0.
        -11    1    1    2    0    0 -0.15894773277E+03  0.15914440910E+03 -0.18158554366E+02  0.22565694715E+03  0.00000000000E+00 0.  1.
         11    1    1    2    0    0  0.13847727911E+03 -0.21209227721E+03 -0.32605338445E+03  0.41288000725E+03  0.00000000000E+00 0. -1.
        -15    1    3    3    0    0  0.38404704501E+02  0.59416738475E+02  0.33029561169E+03  0.33779227192E+03  0.17770000000E+01 0.  1.
         15    1    3    3    0    0 -0.17934250840E+02 -0.64688703658E+01  0.13916327126E+02  0.23670773681E+02  0.17770000000E+01 0. -1.
</event>
<event>
 7    1  0.6322078E-006  0.4686933E+03  0.7546771E-02  0.9472721E-01
        -11   -1    0    0    0    0  0.00000000000E+00  0.00000000000E+00  0.50000000000E+03  0.50000000000E+03  0.00000000000E+00 0.  1.
         11   -1    0    0    0    0 -0.00000000000E+00 -0.00000000000E+00 -0.50000000000E+03  0.50000000000E+03  0.00000000000E+00 0. -1.
         23    2    1    2    0    0  0.29332579134E+00  0.97511126287E+02 -0.42389650222E+03  0.44434494110E+03  0.90805706274E+02 0.  0.
        -11    1    1    2    0    0 -0.43684771280E+02 -0.12891362303E+03  0.46729654403E+03  0.48671669533E+03  0.00000000000E+00 0.  1.
         11    1    1    2    0    0  0.43391445489E+02  0.31402496745E+02 -0.43400041808E+02  0.68938363575E+02  0.00000000000E+00 0. -1.
        -15    1    3    3    0    0 -0.30476396023E+02  0.95671245697E+02 -0.28869900645E+03  0.30566660273E+03  0.17770000000E+01 0. -1.
         15    1    3    3    0    0  0.30769721814E+02  0.18398805903E+01 -0.13519749577E+03  0.13867833837E+03  0.17770000000E+01 0.  1.
</event>
<event>
 7    1  0.6322078E-006  0.3573354E+03  0.7546771E-02  0.9791605E-01
        -11   -1    0    0    0    0  0.00000000000E+00  0.00000000000E+00  0.50000000000E+03  0.50000000000E+03  0.00000000000E+00 0. -1.
         11   -1    0    0    0    0 -0.00000000000E+00 -0.00000000000E+00 -0.50000000000E+03  0.50000000000E+03  0.00000000000E+00 0. -1.
         23    2    1    2    0    0 -0.60346952695E+01  0.20981239395E+03  0.98584494215E+02  0.24864721719E+03  0.89715538880E+02 0.  0.
        -11    1    1    2    0    0  0.10865915168E+03 -0.22462229249E+03  0.27048179381E+03  0.36799780748E+03  0.00000000000E+00 0. -1.
         11    1    1    2    0    0 -0.10262445641E+03  0.14809898545E+02 -0.36906628803E+03  0.38335497533E+03  0.00000000000E+00 0. -1.
        -15    1    3    3    0    0 -0.37361329939E+02  0.37504810051E+02  0.19007762396E+02  0.56275505436E+02  0.17770000000E+01 0.  1.
         15    1    3    3    0    0  0.31326634669E+02  0.17230758389E+03  0.79576731819E+02  0.19237171175E+03  0.17770000000E+01 0. -1.
</event>
<event>
 7    1  0.6322078E-006  0.5277974E+03  0.7546771E-02  0.9339673E-01
        -11   -1    0    0    0    0  0.00000000000E+00  0.00000000000E+00  0.50000000000E+03  0.50000000000E+03  0.00000000000E+00 0.  1.
         11   -1    0    0    0    0 -0.00000000000E+00 -0.00000000000E+00 -0.50000000000E+03  0.50000000000E+03  0.00000000000E+00 0. -1.
         23    2    1    2    0    0 -0.33753772043E+02 -0.77057384092E+02  0.33961052477E+03  0.36161874805E+03  0.91409260131E+02 0.  0.
        -11    1    1    2    0    0 -0.11535349825E+03  0.51990898557E+02  0.10773049873E+03  0.16617864919E+03  0.00000000000E+00 0.  1.
         11    1    1    2    0    0  0.14910727029E+03  0.25066485535E+02 -0.44734102350E+03  0.47220260276E+03  0.00000000000E+00 0. -1.
        -15    1    3    3    0    0 -0.36347930841E+02  0.94642289340E+01  0.10751677128E+03  0.11390240358E+03  0.17770000000E+01 0.  1.
         15    1    3    3    0    0  0.25941587981E+01 -0.86521613026E+02  0.23209375349E+03  0.24771634447E+03  0.17770000000E+01 0. -1.
</event>
<event>
 7    1  0.6322078E-006  0.5073275E+03  0.7546771E-02  0.9383562E-01
        -11   -1    0    0    0    0  0.00000000000E+00  0.00000000000E+00  0.50000000000E+03  0.50000000000E+03  0.00000000000E+00 0.  1.
         11   -1    0    0    0    0 -0.00000000000E+00 -0.00000000000E+00 -0.50000000000E+03  0.50000000000E+03  0.00000000000E+00 0. -1.
         23    2    1    2    0    0  0.10000743286E+03 -0.13935939202E+02  0.34696597600E+03  0.37284755859E+03  0.91837990068E+02 0.  0.
        -11    1    1    2    0    0  0.60805992526E+02 -0.26648515070E+02  0.11695014036E+03  0.13447991454E+03  0.00000000000E+00 0.  1.
         11    1    1    2    0    0 -0.16081342538E+03  0.40584454272E+02 -0.46391611636E+03  0.49267252687E+03  0.00000000000E+00 0. -1.
        -15    1    3    3    0    0  0.13275656406E+02 -0.39975801506E+02  0.15425901893E+03  0.15991657328E+03  0.17770000000E+01 0. -1.
         15    1    3    3    0    0  0.86731776449E+02  0.26039862304E+02  0.19270695707E+03  0.21293098532E+03  0.17770000000E+01 0.  1.
</event>
<event>
 7    1  0.6322078E-006  0.3891929E+03  0.7546771E-02  0.9688883E-01
        -11   -1    0    0    0    0  0.00000000000E+00  0.00000000000E+00  0.50000000000E+03  0.50000000000E+03  0.00000000000E+00 0.  1.
         11   -1    0    0    0    0 -0.00000000000E+00 -0.00000000000E+00 -0.50000000000E+03  0.50000000000E+03  0.00000000000E+00 0.  1.
         23    2    1    2    0    0 -0.35377468358E+02 -0.66409993022E+02  0.37988176921E+03  0.39770037688E+03  0.90518389051E+02 0.  0.
        -11    1    1    2    0    0  0.90227370507E+02 -0.17179228244E+03 -0.67066737563E+02  0.20530833880E+03  0.00000000000E+00 0.  1.
         11    1    1    2    0    0 -0.54849902149E+02  0.23820227546E+03 -0.31281503164E+03  0.39699128432E+03  0.00000000000E+00 0.  1.
        -15    1    3    3    0    0  0.29846393967E+02 -0.30234296413E+02  0.11942216516E+03  0.12676644340E+03  0.17770000000E+01 0.  1.
         15    1    3    3    0    0 -0.65223862325E+02 -0.36175696609E+02  0.26045960405E+03  0.27093393348E+03  0.17770000000E+01 0. -1.
</event>
<event>
 7    1  0.6322078E-006  0.5098908E+03  0.7546771E-02  0.9377946E-01
        -11   -1    0    0    0    0  0.00000000000E+00  0.00000000000E+00  0.50000000000E+03  0.50000000000E+03  0.00000000000E+00 0. -1.
         11   -1    0    0    0    0 -0.00000000000E+00 -0.00000000000E+00 -0.50000000000E+03  0.50000000000E+03  0.00000000000E+00 0.  1.
         23    2    1    2    0    0 -0.61879611452E+02  0.30099373876E+02 -0.27897339356E+03  0.30137070044E+03  0.90901518934E+02 0.  0.
        -11    1    1    2    0    0  0.64562466173E+02 -0.99825985429E+02  0.47547184252E+03  0.49010918420E+03  0.00000000000E+00 0. -1.
         11    1    1    2    0    0 -0.26828547215E+01  0.69726611552E+02 -0.19649844896E+03  0.20852011536E+03  0.00000000000E+00 0.  1.
        -15    1    3    3    0    0 -0.20727661694E+01  0.38916964122E+02 -0.44300748416E+02  0.59029996572E+02  0.17770000000E+01 0. -1.
         15    1    3    3    0    0 -0.59806845282E+02 -0.88175902456E+01 -0.23467264515E+03  0.24234070387E+03  0.17770000000E+01 0.  1.
</event>
<event>
 7    1  0.6322078E-006  0.5100168E+03  0.7546771E-02  0.9377671E-01
        -11   -1    0    0    0    0  0.00000000000E+00  0.00000000000E+00  0.50000000000E+03  0.50000000000E+03  0.00000000000E+00 0.  1.
         11   -1    0    0    0    0 -0.00000000000E+00 -0.00000000000E+00 -0.50000000000E+03  0.50000000000E+03  0.00000000000E+00 0.  1.
         23    2    1    2    0    0  0.10553040329E+03  0.47509655437E+02  0.46851252048E+03  0.48998323358E+03  0.84768826613E+02 0.  0.
        -11    1    1    2    0    0  0.29099850006E+02 -0.54731096575E+02 -0.10042898356E+03  0.11801811277E+03  0.00000000000E+00 0.  1.
         11    1    1    2    0    0 -0.13463025330E+03  0.72214411389E+01 -0.36808353692E+03  0.39199865365E+03  0.00000000000E+00 0.  1.
        -15    1    3    3    0    0  0.49199287541E+01  0.38231447573E+02  0.84440945894E+02  0.92840079464E+02  0.17770000000E+01 0. -1.
         15    1    3    3    0    0  0.10061047454E+03  0.92782078638E+01  0.38407157458E+03  0.39714315411E+03  0.17770000000E+01 0.  1.
</event>
<event>
 7    1  0.6322078E-006  0.4569165E+03  0.7546771E-02  0.9501734E-01
        -11   -1    0    0    0    0  0.00000000000E+00  0.00000000000E+00  0.50000000000E+03  0.50000000000E+03  0.00000000000E+00 0. -1.
         11   -1    0    0    0    0 -0.00000000000E+00 -0.00000000000E+00 -0.50000000000E+03  0.50000000000E+03  0.00000000000E+00 0.  1.
         23    2    1    2    0    0 -0.11477120614E+03  0.17560725213E+03  0.34947923382E+03  0.41784914760E+03  0.91933881216E+02 0.  0.
        -11    1    1    2    0    0 -0.48349563710E+02  0.58098296232E+02  0.50585032802E+02  0.90950194500E+02  0.00000000000E+00 0. -1.
         11    1    1    2    0    0  0.16312076985E+03 -0.23370554836E+03 -0.40006426663E+03  0.49120065790E+03  0.00000000000E+00 0.  1.
        -15    1    3    3    0    0 -0.14315181636E+02  0.57656489522E+02  0.39674236831E+02  0.71459065250E+02  0.17770000000E+01 0.  1.
         15    1    3    3    0    0 -0.10045602450E+03  0.11795076261E+03  0.30980499699E+03  0.34639008235E+03  0.17770000000E+01 0. -1.
</event>
<event>
 7    1  0.6322078E-006  0.3846392E+03  0.7546771E-02  0.9702909E-01
        -11   -1    0    0    0    0  0.00000000000E+00  0.00000000000E+00  0.50000000000E+03  0.50000000000E+03  0.00000000000E+00 0. -1.
         11   -1    0    0    0    0 -0.00000000000E+00 -0.00000000000E+00 -0.50000000000E+03  0.50000000000E+03  0.00000000000E+00 0.  1.
         23    2    1    2    0    0  0.47080154135E+02 -0.35343679311E+03  0.53354230006E+02  0.37292938435E+03  0.95370562624E+02 0.  0.
        -11    1    1    2    0    0 -0.90747686420E+02  0.37299943544E+03  0.15448191831E+03  0.41379751632E+03  0.00000000000E+00 0. -1.
         11    1    1    2    0    0  0.43667532285E+02 -0.19562642325E+02 -0.20783614831E+03  0.21327309933E+03  0.00000000000E+00 0.  1.
        -15    1    3    3    0    0  0.65880605266E+02 -0.29006511640E+03  0.18136462739E+02  0.29801025974E+03  0.17770000000E+01 0. -1.
         15    1    3    3    0    0 -0.18800451131E+02 -0.63371676714E+02  0.35217767267E+02  0.74919124611E+02  0.17770000000E+01 0.  1.
</event>
<event>
 7    1  0.8884989E-006  0.3881821E+03  0.7546771E-02  0.9691978E-01
        -11   -1    0    0    0    0  0.00000000000E+00  0.00000000000E+00  0.50000000000E+03  0.50000000000E+03  0.00000000000E+00 0.  1.
         11   -1    0    0    0    0 -0.00000000000E+00 -0.00000000000E+00 -0.50000000000E+03  0.50000000000E+03  0.00000000000E+00 0. -1.
         23    2    1    2    0    0  0.11669657743E+03 -0.11495444256E+03 -0.43886486528E+02  0.20533034489E+03  0.11576662639E+03 0.  0.
        -11    1    1    2    0    0 -0.77012500256E+02  0.57675992786E+02  0.41043227789E+03  0.42155912999E+03  0.00000000000E+00 0.  1.
         11    1    1    2    0    0 -0.39684077169E+02  0.57278449775E+02 -0.36654579137E+03  0.37311052512E+03  0.00000000000E+00 0. -1.
        -15    1    3    3    0    0  0.21388164793E+02 -0.18818936647E+02 -0.62464547460E+02  0.68677386293E+02  0.17770000000E+01 0. -1.
         15    1    3    3    0    0  0.95308412633E+02 -0.96135505914E+02  0.18578060932E+02  0.13665295860E+03  0.17770000000E+01 0.  1.
</event>
<event>
 7    1  0.6322078E-006  0.4803308E+03  0.7546771E-02  0.9444930E-01
        -11   -1    0    0    0    0  0.00000000000E+00  0.00000000000E+00  0.50000000000E+03  0.50000000000E+03  0.00000000000E+00 0.  1.
         11   -1    0    0    0    0 -0.00000000000E+00 -0.00000000000E+00 -0.50000000000E+03  0.50000000000E+03  0.00000000000E+00 0. -1.
         23    2    1    2    0    0 -0.10113394302E+03  0.19077633231E+03 -0.40964663885E+03  0.47193711562E+03  0.91052671501E+02 0.  0.
        -11    1    1    2    0    0  0.12725319659E+03 -0.16130051209E+03  0.43510117169E+03  0.48116967989E+03  0.00000000000E+00 0.  1.
         11    1    1    2    0    0 -0.26119253568E+02 -0.29475820218E+02 -0.25454532844E+02  0.46893204484E+02  0.00000000000E+00 0. -1.
        -15    1    3    3    0    0 -0.22736811693E+02  0.10252692438E+03 -0.12186612741E+03  0.16088270127E+03  0.17770000000E+01 0.  1.
         15    1    3    3    0    0 -0.78397131324E+02  0.88249407931E+02 -0.28778051143E+03  0.31105441436E+03  0.17770000000E+01 0. -1.
</event>
<event>
 7    1  0.6322078E-006  0.5201188E+03  0.7546771E-02  0.9355885E-01
        -11   -1    0    0    0    0  0.00000000000E+00  0.00000000000E+00  0.50000000000E+03  0.50000000000E+03  0.00000000000E+00 0.  1.
         11   -1    0    0    0    0 -0.00000000000E+00 -0.00000000000E+00 -0.50000000000E+03  0.50000000000E+03  0.00000000000E+00 0. -1.
         23    2    1    2    0    0 -0.11742629394E+03  0.25947072645E+02  0.45439065710E+03  0.47988124086E+03  0.96710655997E+02 0.  0.
        -11    1    1    2    0    0  0.78272317710E+02 -0.87700454444E+02 -0.88887336805E+02  0.14737328141E+03  0.00000000000E+00 0.  1.
         11    1    1    2    0    0  0.39153976230E+02  0.61753381799E+02 -0.36550332030E+03  0.37274547773E+03  0.00000000000E+00 0. -1.
        -15    1    3    3    0    0 -0.12359159344E+03  0.45924944827E+02  0.41191205110E+03  0.43250280704E+03  0.17770000000E+01 0.  1.
         15    1    3    3    0    0  0.61652994975E+01 -0.19977872181E+02  0.42478606000E+02  0.47378433823E+02  0.17770000000E+01 0. -1.
</event>
<event>
 7    1  0.6322078E-006  0.5230727E+03  0.7546771E-02  0.9349613E-01
        -11   -1    0    0    0    0  0.00000000000E+00  0.00000000000E+00  0.50000000000E+03  0.50000000000E+03  0.00000000000E+00 0.  1.
         11   -1    0    0    0    0 -0.00000000000E+00 -0.00000000000E+00 -0.50000000000E+03  0.50000000000E+03  0.00000000000E+00 0. -1.
         23    2    1    2    0    0 -0.28458077482E+02 -0.76608626075E-01  0.32689526237E+03  0.34025504184E+03  0.90017292206E+02 0.  0.
        -11    1    1    2    0    0  0.86653860005E+02 -0.80110794765E+02  0.13962686220E+03  0.18281764559E+03  0.00000000000E+00 0.  1.
         11    1    1    2    0    0 -0.58195782524E+02  0.80187403391E+02 -0.46652212457E+03  0.47692731257E+03  0.00000000000E+00 0. -1.
        -15    1    3    3    0    0 -0.14604636041E+02  0.43448231177E+02  0.20503191173E+03  0.21010065859E+03  0.17770000000E+01 0. -1.
         15    1    3    3    0    0 -0.13853441441E+02 -0.43524839803E+02  0.12186335064E+03  0.13015438324E+03  0.17770000000E+01 0.  1.
</event>
<event>
 6    1  0.6322078E-006  0.4373614E+03  0.7546771E-02  0.9552027E-01
        -11   -1    0    0    0    0  0.00000000000E+00  0.00000000000E+00  0.50000000000E+03  0.50000000000E+03  0.00000000000E+00 0.  1.
         11   -1    0    0    0    0 -0.00000000000E+00 -0.00000000000E+00 -0.50000000000E+03  0.50000000000E+03  0.00000000000E+00 0. -1.
        -11    1    1    2    0    0 -0.55876837139E+02 -0.11598791641E+03  0.41758675563E+02  0.13534845646E+03  0.00000000000E+00 0.  1.
         11    1    1    2    0    0  0.14780176103E+03  0.20331508153E+02 -0.41814980117E+03  0.44396845272E+03  0.00000000000E+00 0. -1.
        -15    1    1    2    0    0 -0.65125541987E+02  0.11841429233E+03  0.35409858933E+03  0.37901484079E+03  0.17770000000E+01 0.  1.
         15    1    1    2    0    0 -0.26799381899E+02 -0.22757884073E+02  0.22292536282E+02  0.41668250029E+02  0.17770000000E+01 0. -1.
</event>
<event>
 7    1  0.6322078E-006  0.5299325E+03  0.7546771E-02  0.9335217E-01
        -11   -1    0    0    0    0  0.00000000000E+00  0.00000000000E+00  0.50000000000E+03  0.50000000000E+03  0.00000000000E+00 0. -1.
         11   -1    0    0    0    0 -0.00000000000E+00 -0.00000000000E+00 -0.50000000000E+03  0.50000000000E+03  0.00000000000E+00 0. -1.
         23    2    1    2    0    0  0.53258508469E+02 -0.42802449924E+02  0.24047303941E+03  0.26617956790E+03  0.91409853082E+02 0.  0.
        -11    1    1    2    0    0 -0.55247109571E+02  0.13326311784E+03  0.22080381528E+03  0.26375296498E+03  0.00000000000E+00 0. -1.
         11    1    1    2    0    0  0.19886011018E+01 -0.90460667921E+02 -0.46127685469E+03  0.47006746712E+03  0.00000000000E+00 0. -1.
        -15    1    3    3    0    0 -0.17026444754E+02 -0.36649526785E+01  0.63639132278E+01  0.18627635912E+02  0.17770000000E+01 0.  1.
         15    1    3    3    0    0  0.70284953223E+02 -0.39137497245E+02  0.23410912618E+03  0.24755193199E+03  0.17770000000E+01 0. -1.
</event>
<event>
 7    1  0.6322078E-006  0.4090309E+03  0.7546771E-02  0.9630087E-01
        -11   -1    0    0    0    0  0.00000000000E+00  0.00000000000E+00  0.50000000000E+03  0.50000000000E+03  0.00000000000E+00 0.  1.
         11   -1    0    0    0    0 -0.00000000000E+00 -0.00000000000E+00 -0.50000000000E+03  0.50000000000E+03  0.00000000000E+00 0. -1.
         23    2    1    2    0    0 -0.39036193736E+02 -0.10418704157E+03  0.98199011040E+02  0.16858732307E+03  0.79999222984E+02 0.  0.
        -11    1    1    2    0    0  0.29937896879E+03  0.93130805343E+02  0.24683639681E+03  0.39903548795E+03  0.00000000000E+00 0.  1.
         11    1    1    2    0    0 -0.26034277505E+03  0.11056236230E+02 -0.34503540785E+03  0.43237718898E+03  0.00000000000E+00 0. -1.
        -15    1    3    3    0    0 -0.81390370777E+01  0.10686610326E+02 -0.11387150084E+01  0.13597866218E+02  0.17770000000E+01 0. -1.
         15    1    3    3    0    0 -0.30897156658E+02 -0.11487365190E+03  0.99337726049E+02  0.15498945685E+03  0.17770000000E+01 0.  1.
</event>
<event>
 7    1  0.6322078E-006  0.5117978E+03  0.7546771E-02  0.9373791E-01
        -11   -1    0    0    0    0  0.00000000000E+00  0.00000000000E+00  0.50000000000E+03  0.50000000000E+03  0.00000000000E+00 0. -1.
         11   -1    0    0    0    0 -0.00000000000E+00 -0.00000000000E+00 -0.50000000000E+03  0.50000000000E+03  0.00000000000E+00 0. -1.
         23    2    1    2    0    0  0.42048844489E+01  0.59757673029E+01  0.16431121860E+03  0.18586515259E+03  0.86569553188E+02 0.  0.
        -11    1    1    2    0    0  0.59315893794E+02  0.51694271612E+02  0.31629325352E+03  0.32593265438E+03  0.00000000000E+00 0. -1.
         11    1    1    2    0    0 -0.63520778243E+02 -0.57670038915E+02 -0.48060447212E+03  0.48820219303E+03  0.00000000000E+00 0. -1.
        -15    1    3    3    0    0 -0.18914753496E+02 -0.33148577402E+02  0.50662298735E+02  0.63454096209E+02  0.17770000000E+01 0.  1.
         15    1    3    3    0    0  0.23119637945E+02  0.39124344704E+02  0.11364891987E+03  0.12241105638E+03  0.17770000000E+01 0. -1.
</event>
<event>
 7    1  0.6322078E-006  0.4030779E+03  0.7546771E-02  0.9647350E-01
        -11   -1    0    0    0    0  0.00000000000E+00  0.00000000000E+00  0.50000000000E+03  0.50000000000E+03  0.00000000000E+00 0.  1.
         11   -1    0    0    0    0 -0.00000000000E+00 -0.00000000000E+00 -0.50000000000E+03  0.50000000000E+03  0.00000000000E+00 0. -1.
         23    2    1    2    0    0  0.47207812128E+02 -0.15332736986E+02 -0.14791572845E+03  0.17888488735E+03  0.87504684718E+02 0.  0.
        -11    1    1    2    0    0  0.15564595245E+03  0.23798432550E+03  0.35555148505E+03  0.45527910145E+03  0.00000000000E+00 0.  1.
         11    1    1    2    0    0 -0.20285376458E+03 -0.22265158852E+03 -0.20763575660E+03  0.36583601120E+03  0.00000000000E+00 0. -1.
        -15    1    3    3    0    0  0.46397598457E+02  0.24371413945E+02 -0.46989625020E+02  0.70412254251E+02  0.17770000000E+01 0.  1.
         15    1    3    3    0    0  0.81021367139E+00 -0.39704150930E+02 -0.10092610343E+03  0.10847263309E+03  0.17770000000E+01 0. -1.
</event>
<event>
 6    1  0.6322078E-006  0.3860543E+03  0.7546771E-02  0.9698528E-01
        -11   -1    0    0    0    0  0.00000000000E+00  0.00000000000E+00  0.50000000000E+03  0.50000000000E+03  0.00000000000E+00 0.  1.
         11   -1    0    0    0    0 -0.00000000000E+00 -0.00000000000E+00 -0.50000000000E+03  0.50000000000E+03  0.00000000000E+00 0.  1.
        -11    1    1    2    0    0  0.49655694365E+02 -0.14255787634E+03  0.41634276829E+03  0.44286537096E+03  0.00000000000E+00 0.  1.
         11    1    1    2    0    0 -0.69060039796E+02  0.50796298869E+01 -0.33847176292E+03  0.34548259873E+03  0.00000000000E+00 0.  1.
        -15    1    1    2    0    0 -0.19621820636E+02  0.13997220876E+03 -0.93525719807E+02  0.16949174925E+03  0.17770000000E+01 0.  1.
         15    1    1    2    0    0  0.39026166068E+02 -0.24939622981E+01  0.15654714437E+02  0.42160281059E+02  0.17770000000E+01 0. -1.
</event>
<event>
 7    1  0.6322078E-006  0.5185535E+03  0.7546771E-02  0.9359226E-01
        -11   -1    0    0    0    0  0.00000000000E+00  0.00000000000E+00  0.50000000000E+03  0.50000000000E+03  0.00000000000E+00 0.  1.
         11   -1    0    0    0    0 -0.00000000000E+00 -0.00000000000E+00 -0.50000000000E+03  0.50000000000E+03  0.00000000000E+00 0. -1.
         23    2    1    2    0    0 -0.33312656531E+02 -0.57193098709E+02  0.35469000202E+03  0.37196379739E+03  0.90395162529E+02 0.  0.
        -11    1    1    2    0    0  0.84202748171E+02 -0.31657217728E+02  0.11574225965E+03  0.14658974351E+03  0.00000000000E+00 0.  1.
         11    1    1    2    0    0 -0.50890091640E+02  0.88850316437E+02 -0.47043226167E+03  0.48144645910E+03  0.00000000000E+00 0. -1.
        -15    1    3    3    0    0  0.10934986086E+02 -0.22281643929E+02  0.18320965306E+02  0.30900826455E+02  0.17770000000E+01 0. -1.
         15    1    3    3    0    0 -0.44247642617E+02 -0.34911454780E+02  0.33636903672E+03  0.34106297093E+03  0.17770000000E+01 0.  1.
</event>
<event>
 7    1  0.6322078E-006  0.5224192E+03  0.7546771E-02  0.9350997E-01
        -11   -1    0    0    0    0  0.00000000000E+00  0.00000000000E+00  0.50000000000E+03  0.50000000000E+03  0.00000000000E+00 0. -1.
         11   -1    0    0    0    0 -0.00000000000E+00 -0.00000000000E+00 -0.50000000000E+03  0.50000000000E+03  0.00000000000E+00 0.  1.
         23    2    1    2    0    0 -0.82621137338E+02 -0.84027540851E+02 -0.16946750559E+03  0.22543425534E+03  0.90633813063E+02 0.  0.
        -11    1    1    2    0    0  0.29775700904E+02  0.13416482708E+03  0.45738014556E+03  0.47758076882E+03  0.00000000000E+00 0. -1.
         11    1    1    2    0    0  0.52845436434E+02 -0.50137286229E+02 -0.28791263997E+03  0.29698497584E+03  0.00000000000E+00 0.  1.
        -15    1    3    3    0    0 -0.10229259466E+03 -0.64959832162E+02 -0.13968722133E+03  0.18493034432E+03  0.17770000000E+01 0.  1.
         15    1    3    3    0    0  0.19671457326E+02 -0.19067708690E+02 -0.29780284265E+02  0.40503911020E+02  0.17770000000E+01 0. -1.
</event>
<event>
 7    1  0.6322078E-006  0.5301073E+03  0.7546771E-02  0.9334853E-01
        -11   -1    0    0    0    0  0.00000000000E+00  0.00000000000E+00  0.50000000000E+03  0.50000000000E+03  0.00000000000E+00 0.  1.
         11   -1    0    0    0    0 -0.00000000000E+00 -0.00000000000E+00 -0.50000000000E+03  0.50000000000E+03  0.00000000000E+00 0. -1.
         23    2    1    2    0    0 -0.33179253037E+01  0.19638008048E+02  0.46930963444E+02  0.10122719464E+03  0.87451527239E+02 0.  0.
        -11    1    1    2    0    0  0.46396250211E+02 -0.10646967554E+03  0.41285558848E+03  0.42888010071E+03  0.00000000000E+00 0.  1.
         11    1    1    2    0    0 -0.43078324907E+02  0.86831667497E+02 -0.45978655192E+03  0.46989270465E+03  0.00000000000E+00 0. -1.
        -15    1    3    3    0    0 -0.43473341711E+02  0.23097877578E+02  0.28012012461E+02  0.56668103543E+02  0.17770000000E+01 0.  1.
         15    1    3    3    0    0  0.40155416407E+02 -0.34598695299E+01  0.18918950983E+02  0.44559091096E+02  0.17770000000E+01 0. -1.
</event>
<event>
 7    1  0.8065925E-006  0.5107847E+03  0.7546771E-02  0.9375996E-01
        -11   -1    0    0    0    0  0.00000000000E+00  0.00000000000E+00  0.50000000000E+03  0.50000000000E+03  0.00000000000E+00 0.  1.
         11   -1    0    0    0    0 -0.00000000000E+00 -0.00000000000E+00 -0.50000000000E+03  0.50000000000E+03  0.00000000000E+00 0. -1.
         23    2    1    2    0    0  0.22522340296E+02  0.12873238614E+02 -0.20846470939E+03  0.22965377424E+03  0.92791944029E+02 0.  0.
        -11    1    1    2    0    0 -0.95178720165E+02 -0.28319866203E+01  0.47985893259E+03  0.48921529423E+03  0.00000000000E+00 0.  1.
         11    1    1    2    0    0  0.72656379869E+02 -0.10041251994E+02 -0.27139422320E+03  0.28113093153E+03  0.00000000000E+00 0. -1.
        -15    1    3    3    0    0 -0.19574933213E+02  0.40476177247E+02 -0.82145232825E+02  0.93661603338E+02  0.17770000000E+01 0. -1.
         15    1    3    3    0    0  0.42097273509E+02 -0.27602938633E+02 -0.12631947657E+03  0.13599217091E+03  0.17770000000E+01 0.  1.
</event>
<event>
 7    1  0.6322078E-006  0.4593387E+03  0.7546771E-02  0.9495691E-01
        -11   -1    0    0    0    0  0.00000000000E+00  0.00000000000E+00  0.50000000000E+03  0.50000000000E+03  0.00000000000E+00 0.  1.
         11   -1    0    0    0    0 -0.00000000000E+00 -0.00000000000E+00 -0.50000000000E+03  0.50000000000E+03  0.00000000000E+00 0. -1.
         23    2    1    2    0    0  0.19260630426E+02  0.25022657821E+02  0.41770907920E+03  0.42905652954E+03  0.92798304992E+02 0.  0.
        -11    1    1    2    0    0  0.34589321560E+02  0.55631348049E+02  0.56752336469E+02  0.86672347069E+02  0.00000000000E+00 0.  1.
         11    1    1    2    0    0 -0.53849951985E+02 -0.80654005870E+02 -0.47446141567E+03  0.48427112339E+03  0.00000000000E+00 0. -1.
        -15    1    3    3    0    0  0.18720100919E+02  0.59757790468E+02  0.24528352106E+03  0.25315726166E+03  0.17770000000E+01 0.  1.
         15    1    3    3    0    0  0.54052950632E+00 -0.34735132647E+02  0.17242555814E+03  0.17589926788E+03  0.17770000000E+01 0. -1.
</event>
<event>
 7    1  0.6322078E-006  0.5078512E+03  0.7546771E-02  0.9382411E-01
        -11   -1    0    0    0    0  0.00000000000E+00  0.00000000000E+00  0.50000000000E+03  0.50000000000E+03  0.00000000000E+00 0. -1.
         11   -1    0    0    0    0 -0.00000000000E+00 -0.00000000000E+00 -0.50000000000E+03  0.50000000000E+03  0.00000000000E+00 0.  1.
         23    2    1    2    0    0  0.17803188499E+03  0.22947214617E+03  0.38765185598E+03  0.49214876092E+03  0.87084002473E+02 0.  0.
        -11    1    1    2    0    0 -0.13650206177E+03 -0.22812781080E+03 -0.25322297555E+03  0.36714709079E+03  0.00000000000E+00 0. -1.
         11    1    1    2    0    0 -0.41529823218E+02 -0.13443353796E+01 -0.13442888043E+03  0.14070414829E+03  0.00000000000E+00 0.  1.
        -15    1    3    3    0    0  0.25640040872E+02  0.22434894145E+02  0.10468079483E+02  0.35685775714E+02  0.17770000000E+01 0.  1.
         15    1    3    3    0    0  0.15239184411E+03  0.20703725203E+03  0.37718377650E+03  0.45646298521E+03  0.17770000000E+01 0. -1.
</event>
<event>
 7    1  0.6322078E-006  0.5148200E+03  0.7546771E-02  0.9367246E-01
        -11   -1    0    0    0    0  0.00000000000E+00  0.00000000000E+00  0.50000000000E+03  0.50000000000E+03  0.00000000000E+00 0.  1.
         11   -1    0    0    0    0 -0.00000000000E+00 -0.00000000000E+00 -0.50000000000E+03  0.50000000000E+03  0.00000000000E+00 0. -1.
         23    2    1    2    0    0 -0.82683685600E+02 -0.49219793183E+02  0.31559115450E+03  0.34279901211E+03  0.93027985049E+02 0.  0.
        -11    1    1    2    0    0  0.80653643388E+01 -0.99309563565E+02  0.14022762024E+03  0.17202100161E+03  0.00000000000E+00 0.  1.
         11    1    1    2    0    0  0.74618321261E+02  0.14852935675E+03 -0.45581877474E+03  0.48517998628E+03  0.00000000000E+00 0. -1.
        -15    1    3    3    0    0 -0.47894163274E+02 -0.56695628273E+02  0.28888850875E+03  0.29827499620E+03  0.17770000000E+01 0.  1.
         15    1    3    3    0    0 -0.34789522326E+02  0.74758350899E+01  0.26702645745E+02  0.44524015910E+02  0.17770000000E+01 0. -1.
</event>
<event>
 7    1  0.6322078E-006  0.5227643E+03  0.7546771E-02  0.9350266E-01
        -11   -1    0    0    0    0  0.00000000000E+00  0.00000000000E+00  0.50000000000E+03  0.50000000000E+03  0.00000000000E+00 0.  1.
         11   -1    0    0    0    0 -0.00000000000E+00 -0.00000000000E+00 -0.50000000000E+03  0.50000000000E+03  0.00000000000E+00 0. -1.
         23    2    1    2    0    0 -0.23017534410E+02  0.53364870766E+02 -0.57143553584E+02  0.12184389393E+03  0.90570041680E+02 0.  0.
        -11    1    1    2    0    0  0.11415505271E+03 -0.41028639567E+03  0.21537792518E+03  0.47723574173E+03  0.00000000000E+00 0.  1.
         11    1    1    2    0    0 -0.91137518301E+02  0.35692152491E+03 -0.15823437159E+03  0.40092036433E+03  0.00000000000E+00 0. -1.
        -15    1    3    3    0    0  0.26044648372E+02  0.32255203225E+02 -0.54283565916E+02  0.68327045168E+02  0.17770000000E+01 0. -1.
         15    1    3    3    0    0 -0.49062182782E+02  0.21109667542E+02 -0.28599876679E+01  0.53516848763E+02  0.17770000000E+01 0.  1.
</event>
<event>
 7    1  0.6322078E-006  0.4585315E+03  0.7546771E-02  0.9497701E-01
        -11   -1    0    0    0    0  0.00000000000E+00  0.00000000000E+00  0.50000000000E+03  0.50000000000E+03  0.00000000000E+00 0.  1.
         11   -1    0    0    0    0 -0.00000000000E+00 -0.00000000000E+00 -0.50000000000E+03  0.50000000000E+03  0.00000000000E+00 0. -1.
         23    2    1    2    0    0 -0.14561259552E+02  0.38701839818E+01  0.46024592608E+03  0.46958502542E+03  0.91960725450E+02 0.  0.
        -11    1    1    2    0    0  0.76902238284E+02  0.35402436204E+02 -0.24007365719E+02  0.87997956516E+02  0.00000000000E+00 0.  1.
         11    1    1    2    0    0 -0.62340978732E+02 -0.39272620186E+02 -0.43623856036E+03  0.44241701806E+03  0.00000000000E+00 0. -1.
        -15    1    3    3    0    0 -0.11843207497E+02  0.47446326188E+02  0.21742211457E+03  0.22286082892E+03  0.17770000000E+01 0.  1.
         15    1    3    3    0    0 -0.27180520552E+01 -0.43576142206E+02  0.24282381151E+03  0.24672419651E+03  0.17770000000E+01 0. -1.
</event>
<event>
 7    1  0.6322078E-006  0.5070776E+03  0.7546771E-02  0.9384111E-01
        -11   -1    0    0    0    0  0.00000000000E+00  0.00000000000E+00  0.50000000000E+03  0.50000000000E+03  0.00000000000E+00 0.  1.
         11   -1    0    0    0    0 -0.00000000000E+00 -0.00000000000E+00 -0.50000000000E+03  0.50000000000E+03  0.00000000000E+00 0. -1.
         23    2    1    2    0    0  0.50059246054E+02  0.19703845259E+02  0.35712605900E+03  0.37263380515E+03  0.91775601844E+02 0.  0.
        -11    1    1    2    0    0  0.35867715373E+02  0.32468914284E+02  0.12543691274E+03  0.13444382648E+03  0.00000000000E+00 0.  1.
         11    1    1    2    0    0 -0.85926961427E+02 -0.52172759543E+02 -0.48256297174E+03  0.49292236836E+03  0.00000000000E+00 0. -1.
        -15    1    3    3    0    0 -0.12490565474E+02  0.34691959781E+02  0.18991865185E+03  0.19347299126E+03  0.17770000000E+01 0.  1.
         15    1    3    3    0    0  0.62549811527E+02 -0.14988114522E+02  0.16720740715E+03  0.17916081389E+03  0.17770000000E+01 0. -1.
</event>
<event>
 7    1  0.6322078E-006  0.5169618E+03  0.7546771E-02  0.9362636E-01
        -11   -1    0    0    0    0  0.00000000000E+00  0.00000000000E+00  0.50000000000E+03  0.50000000000E+03  0.00000000000E+00 0. -1.
         11   -1    0    0    0    0 -0.00000000000E+00 -0.00000000000E+00 -0.50000000000E+03  0.50000000000E+03  0.00000000000E+00 0.  1.
         23    2    1    2    0    0  0.19159948344E+02  0.10747483351E+02 -0.11135503705E+03  0.14350106218E+03  0.87806597422E+02 0.  0.
        -11    1    1    2    0    0  0.25300791916E+02 -0.77163503936E+02  0.47616334711E+03  0.48303816572E+03  0.00000000000E+00 0. -1.
         11    1    1    2    0    0 -0.44460740260E+02  0.66416020585E+02 -0.36480831006E+03  0.37346077211E+03  0.00000000000E+00 0.  1.
        -15    1    3    3    0    0  0.14657509617E+02 -0.22416899690E+02 -0.10626283120E+03  0.10960067064E+03  0.17770000000E+01 0. -1.
         15    1    3    3    0    0  0.45024387271E+01  0.33164383042E+02 -0.50922058435E+01  0.33900391537E+02  0.17770000000E+01 0.  1.
</event>
<event>
 7    1  0.6322078E-006  0.5320935E+03  0.7546771E-02  0.9330729E-01
        -11   -1    0    0    0    0  0.00000000000E+00  0.00000000000E+00  0.50000000000E+03  0.50000000000E+03  0.00000000000E+00 0. -1.
         11   -1    0    0    0    0 -0.00000000000E+00 -0.00000000000E+00 -0.50000000000E+03  0.50000000000E+03  0.00000000000E+00 0. -1.
         23    2    1    2    0    0  0.15644750001E+02  0.48333468652E+02  0.24579994333E+03  0.26812717026E+03  0.94306335406E+02 0.  0.
        -11    1    1    2    0    0 -0.55416325789E+02 -0.15166554738E+03  0.20881767937E+03  0.26396634377E+03  0.00000000000E+00 0. -1.
         11    1    1    2    0    0  0.39771575788E+02  0.10333207873E+03 -0.45461762270E+03  0.46790648596E+03  0.00000000000E+00 0. -1.
        -15    1    3    3    0    0 -0.33480384803E+02  0.50693873163E+01  0.13705637803E+03  0.14118867994E+03  0.17770000000E+01 0. -1.
         15    1    3    3    0    0  0.49125134803E+02  0.43264081336E+02  0.10874356530E+03  0.12693849032E+03  0.17770000000E+01 0.  1.
</event>
<event>
 7    1  0.6322078E-006  0.5077934E+03  0.7546771E-02  0.9382538E-01
        -11   -1    0    0    0    0  0.00000000000E+00  0.00000000000E+00  0.50000000000E+03  0.50000000000E+03  0.00000000000E+00 0.  1.
         11   -1    0    0    0    0 -0.00000000000E+00 -0.00000000000E+00 -0.50000000000E+03  0.50000000000E+03  0.00000000000E+00 0. -1.
         23    2    1    2    0    0 -0.80426423877E+02  0.57020966054E+02  0.27848465293E+03  0.30913064262E+03  0.91039837750E+02 0.  0.
        -11    1    1    2    0    0 -0.44543838398E+02  0.71507241349E+02  0.17991507732E+03  0.19866271455E+03  0.00000000000E+00 0.  1.
         11    1    1    2    0    0  0.12497026228E+03 -0.12852820740E+03 -0.45839973026E+03  0.49220664283E+03  0.00000000000E+00 0. -1.
        -15    1    3    3    0    0 -0.38327921555E+02  0.45136168690E+02  0.24994545526E+03  0.25686998974E+03  0.17770000000E+01 0. -1.
         15    1    3    3    0    0 -0.42098502322E+02  0.11884797364E+02  0.28539197671E+02  0.52260652874E+02  0.17770000000E+01 0.  1.
</event>
<event>
 7    1  0.1036329E-005  0.5166885E+03  0.7546771E-02  0.9363223E-01
        -11   -1    0    0    0    0  0.00000000000E+00  0.00000000000E+00  0.50000000000E+03  0.50000000000E+03  0.00000000000E+00 0.  1.
         11   -1    0    0    0    0 -0.00000000000E+00 -0.00000000000E+00 -0.50000000000E+03  0.50000000000E+03  0.00000000000E+00 0. -1.
         23    2    1    2    0    0 -0.42271012147E+02  0.23519860901E+02 -0.28946589481E+03  0.30687983063E+03  0.89692273146E+02 0.  0.
        -11    1    1    2    0    0  0.14682381282E+03 -0.11745105692E+03  0.44523924483E+03  0.48331146057E+03  0.00000000000E+00 0.  1.
         11    1    1    2    0    0 -0.10455280067E+03  0.93931196016E+02 -0.15577335001E+03  0.20980870880E+03  0.00000000000E+00 0. -1.
        -15    1    3    3    0    0 -0.59380671979E+02 -0.11129909003E+02 -0.20956400215E+03  0.21810586376E+03  0.17770000000E+01 0. -1.
         15    1    3    3    0    0  0.17109659832E+02  0.34649769904E+02 -0.79901892662E+02  0.88773966871E+02  0.17770000000E+01 0.  1.
</event>
<event>
 7    1  0.6322078E-006  0.4255883E+03  0.7546771E-02  0.9583678E-01
        -11   -1    0    0    0    0  0.00000000000E+00  0.00000000000E+00  0.50000000000E+03  0.50000000000E+03  0.00000000000E+00 0.  1.
         11   -1    0    0    0    0 -0.00000000000E+00 -0.00000000000E+00 -0.50000000000E+03  0.50000000000E+03  0.00000000000E+00 0.  1.
         23    2    1    2    0    0  0.41976735477E+03 -0.30893452359E+02 -0.41178956086E+02  0.43227975215E+03  0.89504414196E+02 0.  0.
        -11    1    1    2    0    0 -0.37751563737E+03  0.67943944704E+02  0.17572010057E+03  0.42191467126E+03  0.00000000000E+00 0.  1.
         11    1    1    2    0    0 -0.42251717407E+02 -0.37050492345E+02 -0.13454114448E+03  0.14580557659E+03  0.00000000000E+00 0.  1.
        -15    1    3    3    0    0  0.60919719293E+02 -0.29707708358E+02  0.13935986296E+02  0.69217985941E+02  0.17770000000E+01 0. -1.
         15    1    3    3    0    0  0.35884763548E+03 -0.11857440004E+01 -0.55114942382E+02  0.36306176621E+03  0.17770000000E+01 0.  1.
</event>
<event>
 6    1  0.6322078E-006  0.3618567E+03  0.7546771E-02  0.9776343E-01
        -11   -1    0    0    0    0  0.00000000000E+00  0.00000000000E+00  0.50000000000E+03  0.50000000000E+03  0.00000000000E+00 0. -1.
         11   -1    0    0    0    0 -0.00000000000E+00 -0.00000000000E+00 -0.50000000000E+03  0.50000000000E+03  0.00000000000E+00 0. -1.
        -11    1    1    2    0    0 -0.47781139504E+02 -0.55026608080E+02 -0.10752587566E+02  0.73665344827E+02  0.00000000000E+00 0. -1.
         11    1    1    2    0    0  0.29558727194E+02 -0.77190366893E+02 -0.40272752541E+03  0.41112228207E+03  0.00000000000E+00 0. -1.
        -15    1    1    2    0    0 -0.10853245932E+03  0.42447942212E+02  0.30286846717E+03  0.32452055198E+03  0.17770000000E+01 0. -1.
         15    1    1    2    0    0  0.12675487163E+03  0.89769032760E+02  0.11061164581E+03  0.19069182112E+03  0.17770000000E+01 0.  1.
</event>
<event>
 7    1  0.6322078E-006  0.4305296E+03  0.7546771E-02  0.9570262E-01
        -11   -1    0    0    0    0  0.00000000000E+00  0.00000000000E+00  0.50000000000E+03  0.50000000000E+03  0.00000000000E+00 0.  1.
         11   -1    0    0    0    0 -0.00000000000E+00 -0.00000000000E+00 -0.50000000000E+03  0.50000000000E+03  0.00000000000E+00 0. -1.
         23    2    1    2    0    0 -0.38817933595E+03  0.99706192599E+02  0.23784418141E+03  0.47476266206E+03  0.90582608473E+02 0.  0.
        -11    1    1    2    0    0  0.34805741843E+03 -0.13065241926E+03 -0.10997760769E+03  0.38769716968E+03  0.00000000000E+00 0.  1.
         11    1    1    2    0    0  0.40121917515E+02  0.30946226658E+02 -0.12786657372E+03  0.13754016826E+03  0.00000000000E+00 0. -1.
        -15    1    3    3    0    0 -0.33229840825E+03  0.10649355912E+03  0.17499442467E+03  0.39037074257E+03  0.17770000000E+01 0.  1.
         15    1    3    3    0    0 -0.55880927697E+02 -0.67873665178E+01  0.62849756737E+02  0.84391919491E+02  0.17770000000E+01 0. -1.
</event>
<event>
 7    1  0.6322078E-006  0.4292773E+03  0.7546771E-02  0.9573644E-01
        -11   -1    0    0    0    0  0.00000000000E+00  0.00000000000E+00  0.50000000000E+03  0.50000000000E+03  0.00000000000E+00 0.  1.
         11   -1    0    0    0    0 -0.00000000000E+00 -0.00000000000E+00 -0.50000000000E+03  0.50000000000E+03  0.00000000000E+00 0. -1.
         23    2    1    2    0    0  0.29460743166E+02  0.11206598841E+03  0.40918677858E+03  0.43516342729E+03  0.92231597277E+02 0.  0.
        -11    1    1    2    0    0  0.13296490503E+03 -0.36709699907E+02 -0.23925312865E+02  0.13999888797E+03  0.00000000000E+00 0.  1.
         11    1    1    2    0    0 -0.16242564820E+03 -0.75356288499E+02 -0.38526146572E+03  0.42483768474E+03  0.00000000000E+00 0. -1.
        -15    1    3    3    0    0 -0.25600262244E+02  0.38331108888E+02  0.21988632047E+03  0.22467264852E+03  0.17770000000E+01 0.  1.
         15    1    3    3    0    0  0.55061005409E+02  0.73734879517E+02  0.18930045812E+03  0.21049077877E+03  0.17770000000E+01 0. -1.
</event>
<event>
 7    1  0.6322078E-006  0.3560087E+03  0.7546771E-02  0.9796130E-01
        -11   -1    0    0    0    0  0.00000000000E+00  0.00000000000E+00  0.50000000000E+03  0.50000000000E+03  0.00000000000E+00 0. -1.
         11   -1    0    0    0    0 -0.00000000000E+00 -0.00000000000E+00 -0.50000000000E+03  0.50000000000E+03  0.00000000000E+00 0.  1.
         23    2    1    2    0    0 -0.14473186484E+03  0.21741677073E+03  0.17838328023E+03  0.32902106702E+03  0.90647134430E+02 0.  0.
        -11    1    1    2    0    0  0.21838647499E+03  0.11916760328E+03  0.55047029293E+02  0.25480138454E+03  0.00000000000E+00 0. -1.
         11    1    1    2    0    0 -0.73654610153E+02 -0.33658437401E+03 -0.23343030953E+03  0.41617754844E+03  0.00000000000E+00 0.  1.
        -15    1    3    3    0    0 -0.91428457041E+02  0.96021920856E+02  0.13569430125E+03  0.18972472997E+03  0.17770000000E+01 0.  1.
         15    1    3    3    0    0 -0.53303407795E+02  0.12139484987E+03  0.42688978982E+02  0.13929633704E+03  0.17770000000E+01 0. -1.
</event>
<event>
 7    1  0.6322078E-006  0.3882281E+03  0.7546771E-02  0.9691837E-01
        -11   -1    0    0    0    0  0.00000000000E+00  0.00000000000E+00  0.50000000000E+03  0.50000000000E+03  0.00000000000E+00 0.  1.
         11   -1    0    0    0    0 -0.00000000000E+00 -0.00000000000E+00 -0.50000000000E+03  0.50000000000E+03  0.00000000000E+00 0.  1.
         23    2    1    2    0    0  0.14420975965E+03  0.11406056060E+03  0.39542299504E+03  0.44557823687E+03  0.91511495987E+02 0.  0.
        -11    1    1    2    0    0 -0.19280355924E+03 -0.48357708785E+02 -0.57740870266E+02  0.20699200118E+03  0.00000000000E+00 0.  1.
         11    1    1    2    0    0  0.48593799589E+02 -0.65702851815E+02 -0.33768212478E+03  0.34742976195E+03  0.00000000000E+00 0.  1.
        -15    1    3    3    0    0 -0.39305622459E+01 -0.93091791937E+01  0.39314549203E+02  0.40631288988E+02  0.17770000000E+01 0. -1.
         15    1    3    3    0    0  0.14814032190E+03  0.12336973979E+03  0.35610844584E+03  0.40494694788E+03  0.17770000000E+01 0.  1.
</event>
<event>
 7    1  0.6322078E-006  0.5076770E+03  0.7546771E-02  0.9382794E-01
        -11   -1    0    0    0    0  0.00000000000E+00  0.00000000000E+00  0.50000000000E+03  0.50000000000E+03  0.00000000000E+00 0.  1.
         11   -1    0    0    0    0 -0.00000000000E+00 -0.00000000000E+00 -0.50000000000E+03  0.50000000000E+03  0.00000000000E+00 0. -1.
         23    2    1    2    0    0 -0.45364492849E+02 -0.38563887347E+02 -0.27670217962E+03  0.29714025387E+03  0.90460619309E+02 0.  0.
        -11    1    1    2    0    0  0.52807206315E+02  0.82234794136E+02  0.48252538373E+03  0.49232297159E+03  0.00000000000E+00 0.  1.
         11    1    1    2    0    0 -0.74427134658E+01 -0.43670906789E+02 -0.20582320411E+03  0.21053677454E+03  0.00000000000E+00 0. -1.
        -15    1    3    3    0    0  0.11669300003E+02  0.30399767916E+01 -0.65834431850E+00  0.12206767291E+02  0.17770000000E+01 0.  1.
         15    1    3    3    0    0 -0.57033792852E+02 -0.41603864138E+02 -0.27604383530E+03  0.28493348658E+03  0.17770000000E+01 0. -1.
</event>
<event>
 7    1  0.6322078E-006  0.5084578E+03  0.7546771E-02  0.9381081E-01
        -11   -1    0    0    0    0  0.00000000000E+00  0.00000000000E+00  0.50000000000E+03  0.50000000000E+03  0.00000000000E+00 0.  1.
         11   -1    0    0    0    0 -0.00000000000E+00 -0.00000000000E+00 -0.50000000000E+03  0.50000000000E+03  0.00000000000E+00 0. -1.
         23    2    1    2    0    0 -0.22859503102E+02  0.39370922240E+01  0.30705005403E+03  0.31998834985E+03  0.87033044192E+02 0.  0.
        -11    1    1    2    0    0 -0.35372111907E+02  0.51158968567E+02  0.17791098427E+03  0.18846947946E+03  0.00000000000E+00 0.  1.
         11    1    1    2    0    0  0.58231615010E+02 -0.55096060791E+02 -0.48496103830E+03  0.49154217069E+03  0.00000000000E+00 0. -1.
        -15    1    3    3    0    0 -0.51676067792E+02  0.15928528521E+02  0.23978657856E+03  0.24581475747E+03  0.17770000000E+01 0.  1.
         15    1    3    3    0    0  0.28816564690E+02 -0.11991436297E+02  0.67263475463E+02  0.74173592372E+02  0.17770000000E+01 0. -1.
</event>
<event>
 7    1  0.6322078E-006  0.3877039E+03  0.7546771E-02  0.9693446E-01
        -11   -1    0    0    0    0  0.00000000000E+00  0.00000000000E+00  0.50000000000E+03  0.50000000000E+03  0.00000000000E+00 0. -1.
         11   -1    0    0    0    0 -0.00000000000E+00 -0.00000000000E+00 -0.50000000000E+03  0.50000000000E+03  0.00000000000E+00 0. -1.
         23    2    1    2    0    0  0.25220117633E+02  0.40104205245E+02  0.32770332807E+03  0.34379069090E+03  0.92510357866E+02 0.  0.
        -11    1    1    2    0    0  0.17772189310E+03 -0.82591508030E+02  0.69672999840E+02  0.20799220032E+03  0.00000000000E+00 0. -1.
         11    1    1    2    0    0 -0.20294201074E+03  0.42487302786E+02 -0.39737632791E+03  0.44821710878E+03  0.00000000000E+00 0. -1.
        -15    1    3    3    0    0  0.25716761643E+02  0.66009304434E+02  0.17347135351E+03  0.18738742839E+03  0.17770000000E+01 0. -1.
         15    1    3    3    0    0 -0.49664400971E+00 -0.25905099189E+02  0.15423197456E+03  0.15640326251E+03  0.17770000000E+01 0.  1.
</event>
<event>
 7    1  0.6322078E-006  0.5234453E+03  0.7546771E-02  0.9348825E-01
        -11   -1    0    0    0    0  0.00000000000E+00  0.00000000000E+00  0.50000000000E+03  0.50000000000E+03  0.00000000000E+00 0. -1.
         11   -1    0    0    0    0 -0.00000000000E+00 -0.00000000000E+00 -0.50000000000E+03  0.50000000000E+03  0.00000000000E+00 0. -1.
         23    2    1    2    0    0  0.15699417472E+03 -0.22713238424E+03 -0.25135293723E+03  0.38396922340E+03  0.89542027026E+02 0.  0.
        -11    1    1    2    0    0 -0.21506747018E+03  0.20009694086E+03  0.37524868064E+03  0.47655469234E+03  0.00000000000E+00 0. -1.
         11    1    1    2    0    0  0.58073295464E+02  0.27035443377E+02 -0.12389574341E+03  0.13947608426E+03  0.00000000000E+00 0. -1.
        -15    1    3    3    0    0 -0.10084851270E+02 -0.99564233170E+01 -0.23947742322E+02  0.27883448167E+02  0.17770000000E+01 0.  1.
         15    1    3    3    0    0  0.16707902599E+03 -0.21717596092E+03 -0.22740519490E+03  0.35608577524E+03  0.17770000000E+01 0. -1.
</event>
<event>
 7    1  0.6322078E-006  0.3795233E+03  0.7546771E-02  0.9718916E-01
        -11   -1    0    0    0    0  0.00000000000E+00  0.00000000000E+00  0.50000000000E+03  0.50000000000E+03  0.00000000000E+00 0. -1.
         11   -1    0    0    0    0 -0.00000000000E+00 -0.00000000000E+00 -0.50000000000E+03  0.50000000000E+03  0.00000000000E+00 0. -1.
         23    2    1    2    0    0 -0.10722649412E+03  0.62439733481E+02  0.28349949742E+03  0.32292816348E+03  0.92273465178E+02 0.  0.
        -11    1    1    2    0    0  0.35012715385E+02 -0.14872361949E+03  0.15898782524E+03  0.22050336462E+03  0.00000000000E+00 0. -1.
         11    1    1    2    0    0  0.72213778737E+02  0.86283886008E+02 -0.44248732266E+03  0.45656847190E+03  0.00000000000E+00 0. -1.
        -15    1    3    3    0    0 -0.86845346070E+02  0.76931653822E+01  0.11329690514E+03  0.14297078503E+03  0.17770000000E+01 0. -1.
         15    1    3    3    0    0 -0.20381148052E+02  0.54746568099E+02  0.17020259227E+03  0.17995737845E+03  0.17770000000E+01 0.  1.
</event>
<event>
 7    1  0.6322078E-006  0.5101271E+03  0.7546771E-02  0.9377430E-01
        -11   -1    0    0    0    0  0.00000000000E+00  0.00000000000E+00  0.50000000000E+03  0.50000000000E+03  0.00000000000E+00 0.  1.
         11   -1    0    0    0    0 -0.00000000000E+00 -0.00000000000E+00 -0.50000000000E+03  0.50000000000E+03  0.00000000000E+00 0.  1.
         23    2    1    2    0    0 -0.54942157007E+02  0.10754156842E+03  0.27326603955E+03  0.31245854188E+03  0.91499630964E+02 0.  0.
        -11    1    1    2    0    0 -0.97172659944E+02  0.54728768123E+02  0.16320261240E+03  0.19766855237E+03  0.00000000000E+00 0.  1.
         11    1    1    2    0    0  0.15211481695E+03 -0.16227033655E+03 -0.43646865195E+03  0.48987290575E+03  0.00000000000E+00 0.  1.
        -15    1    3    3    0    0 -0.39825233349E+02  0.10526277457E+03  0.27483207043E+03  0.29698842669E+03  0.17770000000E+01 0.  1.
         15    1    3    3    0    0 -0.15116923658E+02  0.22787938581E+01 -0.15660308803E+01  0.15470115192E+02  0.17770000000E+01 0. -1.
</event>
<event>
 7    1  0.6322078E-006  0.5215963E+03  0.7546771E-02  0.9352742E-01
        -11   -1    0    0    0    0  0.00000000000E+00  0.00000000000E+00  0.50000000000E+03  0.50000000000E+03  0.00000000000E+00 0.  1.
         11   -1    0    0    0    0 -0.00000000000E+00 -0.00000000000E+00 -0.50000000000E+03  0.50000000000E+03  0.00000000000E+00 0. -1.
         23    2    1    2    0    0  0.46894884643E+02  0.13289350606E+03  0.25091572896E+03  0.30227400958E+03  0.92471939917E+02 0.  0.
        -11    1    1    2    0    0 -0.75468441734E+02  0.65385909044E+01  0.20582525489E+03  0.21932230716E+03  0.00000000000E+00 0.  1.
         11    1    1    2    0    0  0.28573557091E+02 -0.13943209696E+03 -0.45674098385E+03  0.47840368326E+03  0.00000000000E+00 0. -1.
        -15    1    3    3    0    0  0.27906988198E+02  0.12440179939E+03  0.25085259701E+03  0.28139792259E+03  0.17770000000E+01 0.  1.
         15    1    3    3    0    0  0.18987896445E+02  0.84917066715E+01  0.63131949218E-01  0.20876086995E+02  0.17770000000E+01 0. -1.
</event>
<event>
 7    1  0.6322078E-006  0.5260172E+03  0.7546771E-02  0.9343405E-01
        -11   -1    0    0    0    0  0.00000000000E+00  0.00000000000E+00  0.50000000000E+03  0.50000000000E+03  0.00000000000E+00 0.  1.
         11   -1    0    0    0    0 -0.00000000000E+00 -0.00000000000E+00 -0.50000000000E+03  0.50000000000E+03  0.00000000000E+00 0. -1.
         23    2    1    2    0    0 -0.69091722019E+02 -0.12621462105E+03  0.23581206125E+03  0.28548141401E+03  0.72031332751E+02 0.  0.
        -11    1    1    2    0    0  0.34138228048E+02  0.55452348299E+02  0.23155360717E+03  0.24053576562E+03  0.00000000000E+00 0.  1.
         11    1    1    2    0    0  0.34953493971E+02  0.70762272756E+02 -0.46736566842E+03  0.47398282037E+03  0.00000000000E+00 0. -1.
        -15    1    3    3    0    0 -0.48411550916E+02 -0.82141457408E+02  0.20933952392E+03  0.23003715198E+03  0.17770000000E+01 0.  1.
         15    1    3    3    0    0 -0.20680171103E+02 -0.44073163647E+02  0.26472537324E+02  0.55444262030E+02  0.17770000000E+01 0. -1.
</event>
<event>
 7    1  0.6322078E-006  0.4823840E+03  0.7546771E-02  0.9440113E-01
        -11   -1    0    0    0    0  0.00000000000E+00  0.00000000000E+00  0.50000000000E+03  0.50000000000E+03  0.00000000000E+00 0.  1.
         11   -1    0    0    0    0 -0.00000000000E+00 -0.00000000000E+00 -0.50000000000E+03  0.50000000000E+03  0.00000000000E+00 0. -1.
         23    2    1    2    0    0 -0.93436653810E+02  0.19430430110E+03  0.41491566430E+03  0.47629810223E+03  0.90665892148E+02 0.  0.
        -11    1    1    2    0    0 -0.17919582280E+02 -0.31093444722E+02  0.23447929150E+02  0.42868626234E+02  0.00000000000E+00 0.  1.
         11    1    1    2    0    0  0.11135623609E+03 -0.16321085638E+03 -0.43836359345E+03  0.48083327154E+03  0.00000000000E+00 0. -1.
        -15    1    3    3    0    0 -0.30616757467E+02  0.19603815190E+02  0.13933964702E+03  0.14401524353E+03  0.17770000000E+01 0. -1.
         15    1    3    3    0    0 -0.62819896343E+02  0.17470048591E+03  0.27557601728E+03  0.33228285870E+03  0.17770000000E+01 0.  1.
</event>
<event>
 6    1  0.6322078E-006  0.4761004E+03  0.7546771E-02  0.9454934E-01
        -11   -1    0    0    0    0  0.00000000000E+00  0.00000000000E+00  0.50000000000E+03  0.50000000000E+03  0.00000000000E+00 0.  1.
         11   -1    0    0    0    0 -0.00000000000E+00 -0.00000000000E+00 -0.50000000000E+03  0.50000000000E+03  0.00000000000E+00 0.  1.
        -11    1    1    2    0    0 -0.36668711229E+02 -0.39212103051E+02  0.46618744710E+02  0.71101974425E+02  0.00000000000E+00 0.  1.
         11    1    1    2    0    0  0.18379248652E+03 -0.36174243278E+02 -0.43810137815E+03  0.47646728274E+03  0.00000000000E+00 0.  1.
        -15    1    1    2    0    0 -0.65034674470E+02 -0.20987386929E+02  0.26420540296E+03  0.27290590315E+03  0.17770000000E+01 0.  1.
         15    1    1    2    0    0 -0.82089100824E+02  0.96373733258E+02  0.12727723048E+03  0.17952483969E+03  0.17770000000E+01 0. -1.
</event>
<event>
 7    1  0.6322078E-006  0.4121350E+03  0.7546771E-02  0.9621210E-01
        -11   -1    0    0    0    0  0.00000000000E+00  0.00000000000E+00  0.50000000000E+03  0.50000000000E+03  0.00000000000E+00 0.  1.
         11   -1    0    0    0    0 -0.00000000000E+00 -0.00000000000E+00 -0.50000000000E+03  0.50000000000E+03  0.00000000000E+00 0. -1.
         23    2    1    2    0    0 -0.59127512804E+02 -0.47734197404E+02  0.34864294270E+03  0.36881138435E+03  0.93248696293E+02 0.  0.
        -11    1    1    2    0    0  0.13300523019E+03 -0.11727797438E+02  0.10366884033E+03  0.16904189110E+03  0.00000000000E+00 0.  1.
         11    1    1    2    0    0 -0.73877717386E+02  0.59461994842E+02 -0.45231178302E+03  0.46214672456E+03  0.00000000000E+00 0. -1.
        -15    1    3    3    0    0 -0.21814226764E+02  0.19726123748E+02  0.34628334561E+02  0.45467128026E+02  0.17770000000E+01 0. -1.
         15    1    3    3    0    0 -0.37313286040E+02 -0.67460321152E+02  0.31401460814E+03  0.32334425632E+03  0.17770000000E+01 0.  1.
</event>
<event>
 7    1  0.6322078E-006  0.5278280E+03  0.7546771E-02  0.9339609E-01
        -11   -1    0    0    0    0  0.00000000000E+00  0.00000000000E+00  0.50000000000E+03  0.50000000000E+03  0.00000000000E+00 0.  1.
         11   -1    0    0    0    0 -0.00000000000E+00 -0.00000000000E+00 -0.50000000000E+03  0.50000000000E+03  0.00000000000E+00 0. -1.
         23    2    1    2    0    0  0.63156535832E+01 -0.43949519819E+01  0.22223642245E+03  0.24128173133E+03  0.93641034400E+02 0.  0.
        -11    1    1    2    0    0  0.16362699378E+03 -0.12627886046E+03  0.19846566694E+03  0.28654626964E+03  0.00000000000E+00 0.  1.
         11    1    1    2    0    0 -0.16994264736E+03  0.13067381245E+03 -0.42070208939E+03  0.47217199903E+03  0.00000000000E+00 0. -1.
        -15    1    3    3    0    0  0.32245898884E+02 -0.37303310473E+02  0.14815506758E+03  0.15615510477E+03  0.17770000000E+01 0. -1.
         15    1    3    3    0    0 -0.25930245301E+02  0.32908358491E+02  0.74081354878E+02  0.85126626561E+02  0.17770000000E+01 0.  1.
</event>
<event>
 7    1  0.6322078E-006  0.4061253E+03  0.7546771E-02  0.9638473E-01
        -11   -1    0    0    0    0  0.00000000000E+00  0.00000000000E+00  0.50000000000E+03  0.50000000000E+03  0.00000000000E+00 0.  1.
         11   -1    0    0    0    0 -0.00000000000E+00 -0.00000000000E+00 -0.50000000000E+03  0.50000000000E+03  0.00000000000E+00 0. -1.
         23    2    1    2    0    0 -0.24202293824E+02  0.41557007363E+02  0.35773550508E+03  0.37109593256E+03  0.86167068435E+02 0.  0.
        -11    1    1    2    0    0 -0.21038801129E+02  0.17240508533E+03  0.37050649114E+02  0.17759193451E+03  0.00000000000E+00 0.  1.
         11    1    1    2    0    0  0.45241094953E+02 -0.21396209270E+03 -0.39478615420E+03  0.45131213293E+03  0.00000000000E+00 0. -1.
        -15    1    3    3    0    0 -0.31396567708E+02 -0.11954123723E+02  0.62699876519E+02  0.71155307478E+02  0.17770000000E+01 0. -1.
         15    1    3    3    0    0  0.71942738835E+01  0.53511131086E+02  0.29503562856E+03  0.29994062509E+03  0.17770000000E+01 0.  1.
</event>
<event>
 7    1  0.6322078E-006  0.4732133E+03  0.7546771E-02  0.9461826E-01
        -11   -1    0    0    0    0  0.00000000000E+00  0.00000000000E+00  0.50000000000E+03  0.50000000000E+03  0.00000000000E+00 0. -1.
         11   -1    0    0    0    0 -0.00000000000E+00 -0.00000000000E+00 -0.50000000000E+03  0.50000000000E+03  0.00000000000E+00 0. -1.
         23    2    1    2    0    0 -0.11020292917E+03  0.33386578968E+03 -0.27331667266E+03  0.45453039926E+03  0.91021037007E+02 0.  0.
        -11    1    1    2    0    0  0.15575229301E+03 -0.33615002621E+03  0.31301201609E+03  0.48500735986E+03  0.00000000000E+00 0. -1.
         11    1    1    2    0    0 -0.45549363837E+02  0.22842365310E+01 -0.39695343426E+02  0.60462240879E+02  0.00000000000E+00 0. -1.
        -15    1    3    3    0    0 -0.45842064033E+02  0.26421766129E+03 -0.20767991279E+03  0.33918515781E+03  0.17770000000E+01 0. -1.
         15    1    3    3    0    0 -0.64360865137E+02  0.69648128392E+02 -0.65636759877E+02  0.11534524145E+03  0.17770000000E+01 0.  1.
</event>
<event>
 7    1  0.6322078E-006  0.5266321E+03  0.7546771E-02  0.9342114E-01
        -11   -1    0    0    0    0  0.00000000000E+00  0.00000000000E+00  0.50000000000E+03  0.50000000000E+03  0.00000000000E+00 0. -1.
         11   -1    0    0    0    0 -0.00000000000E+00 -0.00000000000E+00 -0.50000000000E+03  0.50000000000E+03  0.00000000000E+00 0.  1.
         23    2    1    2    0    0  0.17139551677E+02 -0.45927177374E+00  0.18164307499E+03  0.20418831242E+03  0.91677069512E+02 0.  0.
        -11    1    1    2    0    0  0.22818267218E+03 -0.68504212292E+02  0.21727824196E+03  0.32244378334E+03  0.00000000000E+00 0. -1.
         11    1    1    2    0    0 -0.24532222386E+03  0.68963484065E+02 -0.39892131695E+03  0.47336790424E+03  0.00000000000E+00 0.  1.
        -15    1    3    3    0    0  0.47450190956E+02 -0.12204977082E+02  0.15355153860E+03  0.16118844507E+03  0.17770000000E+01 0.  1.
         15    1    3    3    0    0 -0.30310639279E+02  0.11745705308E+02  0.28091536392E+02  0.42999867355E+02  0.17770000000E+01 0. -1.
</event>
<event>
 7    1  0.6322078E-006  0.5206033E+03  0.7546771E-02  0.9354853E-01
        -11   -1    0    0    0    0  0.00000000000E+00  0.00000000000E+00  0.50000000000E+03  0.50000000000E+03  0.00000000000E+00 0.  1.
         11   -1    0    0    0    0 -0.00000000000E+00 -0.00000000000E+00 -0.50000000000E+03  0.50000000000E+03  0.00000000000E+00 0. -1.
         23    2    1    2    0    0  0.44517419823E+02 -0.10466446824E+02  0.30939194118E+03  0.32588198998E+03  0.91566101508E+02 0.  0.
        -11    1    1    2    0    0  0.48410985784E+02  0.11563293378E+03  0.14900259915E+03  0.19472127124E+03  0.00000000000E+00 0.  1.
         11    1    1    2    0    0 -0.92928405606E+02 -0.10516648696E+03 -0.45839454033E+03  0.47939673878E+03  0.00000000000E+00 0. -1.
        -15    1    3    3    0    0  0.25131210097E+02 -0.51053331867E+02  0.18702456194E+03  0.19549773634E+03  0.17770000000E+01 0.  1.
         15    1    3    3    0    0  0.19386209726E+02  0.40586885042E+02  0.12236737924E+03  0.13038425364E+03  0.17770000000E+01 0. -1.
</event>
<event>
 7    1  0.6322078E-006  0.5322830E+03  0.7546771E-02  0.9330337E-01
        -11   -1    0    0    0    0  0.00000000000E+00  0.00000000000E+00  0.50000000000E+03  0.50000000000E+03  0.00000000000E+00 0.  1.
         11   -1    0    0    0    0 -0.00000000000E+00 -0.00000000000E+00 -0.50000000000E+03  0.50000000000E+03  0.00000000000E+00 0. -1.
         23    2    1    2    0    0 -0.22224279833E+01  0.13456031767E+03 -0.20177570139E+03  0.26019466636E+03  0.94214714622E+02 0.  0.
        -11    1    1    2    0    0  0.84584786772E+02 -0.74212169483E+02  0.45397922528E+03  0.46771697557E+03  0.00000000000E+00 0.  1.
         11    1    1    2    0    0 -0.82362358789E+02 -0.60348148184E+02 -0.25220352389E+03  0.27208835807E+03  0.00000000000E+00 0. -1.
        -15    1    3    3    0    0  0.80843414470E+01  0.63832152085E+02 -0.24199435776E+02  0.68765330198E+02  0.17770000000E+01 0.  1.
         15    1    3    3    0    0 -0.10306769430E+02  0.70728165582E+02 -0.17757626562E+03  0.19142933616E+03  0.17770000000E+01 0. -1.
</event>
<event>
 7    1  0.6322078E-006  0.5263238E+03  0.7546771E-02  0.9342761E-01
        -11   -1    0    0    0    0  0.00000000000E+00  0.00000000000E+00  0.50000000000E+03  0.50000000000E+03  0.00000000000E+00 0. -1.
         11   -1    0    0    0    0 -0.00000000000E+00 -0.00000000000E+00 -0.50000000000E+03  0.50000000000E+03  0.00000000000E+00 0.  1.
         23    2    1    2    0    0  0.32692323535E+02  0.35998985578E+02  0.31979837892E+03  0.33358017406E+03  0.81486283389E+02 0.  0.
        -11    1    1    2    0    0  0.12600786197E+03  0.10141400009E+03  0.10482038399E+03  0.19274359546E+03  0.00000000000E+00 0. -1.
         11    1    1    2    0    0 -0.15870018550E+03 -0.13741298567E+03 -0.42461876291E+03  0.47367623048E+03  0.00000000000E+00 0.  1.
        -15    1    3    3    0    0  0.24051088974E+02 -0.13594780560E+02  0.36356590248E+02  0.45697180687E+02  0.17770000000E+01 0.  1.
         15    1    3    3    0    0  0.86412345606E+01  0.49593766137E+02  0.28344178868E+03  0.28788299337E+03  0.17770000000E+01 0. -1.
</event>
<event>
 7    1  0.6322078E-006  0.3479324E+03  0.7546771E-02  0.9824137E-01
        -11   -1    0    0    0    0  0.00000000000E+00  0.00000000000E+00  0.50000000000E+03  0.50000000000E+03  0.00000000000E+00 0.  1.
         11   -1    0    0    0    0 -0.00000000000E+00 -0.00000000000E+00 -0.50000000000E+03  0.50000000000E+03  0.00000000000E+00 0.  1.
         23    2    1    2    0    0 -0.18406847164E+03 -0.10936298964E+03  0.27542756163E+03  0.36048417928E+03  0.90813193146E+02 0.  0.
        -11    1    1    2    0    0  0.25418066430E+03  0.12264425141E+02  0.78149200442E+02  0.26620579212E+03  0.00000000000E+00 0.  1.
         11    1    1    2    0    0 -0.70112192654E+02  0.97098564497E+02 -0.35357676207E+03  0.37331002861E+03  0.00000000000E+00 0.  1.
        -15    1    3    3    0    0 -0.13654634905E+03 -0.64124791031E+02  0.12343841816E+03  0.19492843577E+03  0.17770000000E+01 0.  1.
         15    1    3    3    0    0 -0.47522122596E+02 -0.45238198607E+02  0.15198914346E+03  0.16555574351E+03  0.17770000000E+01 0. -1.
</event>
<event>
 7    1  0.6322078E-006  0.4614391E+03  0.7546771E-02  0.9490483E-01
        -11   -1    0    0    0    0  0.00000000000E+00  0.00000000000E+00  0.50000000000E+03  0.50000000000E+03  0.00000000000E+00 0. -1.
         11   -1    0    0    0    0 -0.00000000000E+00 -0.00000000000E+00 -0.50000000000E+03  0.50000000000E+03  0.00000000000E+00 0. -1.
         23    2    1    2    0    0 -0.22867536815E+03  0.85270263562E+02 -0.34192683455E+03  0.42946779818E+03  0.89247899939E+02 0.  0.
        -11    1    1    2    0    0  0.22360981212E+03 -0.98721811190E+02  0.42281062576E+03  0.48838117217E+03  0.00000000000E+00 0. -1.
         11    1    1    2    0    0  0.50655560364E+01  0.13451547628E+02 -0.80883791207E+02  0.82151029644E+02  0.00000000000E+00 0. -1.
        -15    1    3    3    0    0 -0.18326955334E+03  0.10387077662E+03 -0.28180989230E+03  0.35184775194E+03  0.17770000000E+01 0. -1.
         15    1    3    3    0    0 -0.45405814812E+02 -0.18600513055E+02 -0.60116942249E+02  0.77620046244E+02  0.17770000000E+01 0.  1.
</event>
<event>
 7    1  0.6322078E-006  0.5186540E+03  0.7546771E-02  0.9359011E-01
        -11   -1    0    0    0    0  0.00000000000E+00  0.00000000000E+00  0.50000000000E+03  0.50000000000E+03  0.00000000000E+00 0.  1.
         11   -1    0    0    0    0 -0.00000000000E+00 -0.00000000000E+00 -0.50000000000E+03  0.50000000000E+03  0.00000000000E+00 0. -1.
         23    2    1    2    0    0 -0.17058870730E+02 -0.31928296007E+02 -0.10634798609E+03  0.14607753870E+03  0.93372008711E+02 0.  0.
        -11    1    1    2    0    0 -0.19513502629E+02  0.87108762080E+02  0.47299604365E+03  0.48134599876E+03  0.00000000000E+00 0.  1.
         11    1    1    2    0    0  0.36572373359E+02 -0.55180466072E+02 -0.36664805756E+03  0.37257646254E+03  0.00000000000E+00 0. -1.
        -15    1    3    3    0    0  0.19431108412E+02  0.25479806780E+02 -0.33467918850E+02  0.46368608442E+02  0.17770000000E+01 0.  1.
         15    1    3    3    0    0 -0.36489979141E+02 -0.57408102788E+02 -0.72880067236E+02  0.99708930256E+02  0.17770000000E+01 0. -1.
</event>
<event>
 7    1  0.6322078E-006  0.5088547E+03  0.7546771E-02  0.9380212E-01
        -11   -1    0    0    0    0  0.00000000000E+00  0.00000000000E+00  0.50000000000E+03  0.50000000000E+03  0.00000000000E+00 0.  1.
         11   -1    0    0    0    0 -0.00000000000E+00 -0.00000000000E+00 -0.50000000000E+03  0.50000000000E+03  0.00000000000E+00 0. -1.
         23    2    1    2    0    0  0.10548387051E+03  0.92520648841E+02 -0.35843500953E+03  0.39501219355E+03  0.88724627937E+02 0.  0.
        -11    1    1    2    0    0 -0.89638495288E+02 -0.11825069327E+03  0.46819382204E+03  0.49114533622E+03  0.00000000000E+00 0.  1.
         11    1    1    2    0    0 -0.15845375225E+02  0.25730044426E+02 -0.10975881251E+03  0.11384247022E+03  0.00000000000E+00 0. -1.
        -15    1    3    3    0    0  0.11844193627E+03  0.95890352470E+02 -0.33282411195E+03  0.36605805440E+03  0.17770000000E+01 0. -1.
         15    1    3    3    0    0 -0.12958065757E+02 -0.33697036297E+01 -0.25610897573E+02  0.28954139155E+02  0.17770000000E+01 0.  1.
</event>
<event>
 7    1  0.6322078E-006  0.4368757E+03  0.7546771E-02  0.9553312E-01
        -11   -1    0    0    0    0  0.00000000000E+00  0.00000000000E+00  0.50000000000E+03  0.50000000000E+03  0.00000000000E+00 0. -1.
         11   -1    0    0    0    0 -0.00000000000E+00 -0.00000000000E+00 -0.50000000000E+03  0.50000000000E+03  0.00000000000E+00 0.  1.
         23    2    1    2    0    0  0.23500484618E+03 -0.15647377498E+03 -0.27529495653E+03  0.40460293277E+03  0.90580903800E+02 0.  0.
        -11    1    1    2    0    0 -0.21867424838E+03  0.12278658033E+03  0.39615910334E+03  0.46886779200E+03  0.00000000000E+00 0. -1.
         11    1    1    2    0    0 -0.16330597793E+02  0.33687194642E+02 -0.12086414681E+03  0.12652927523E+03  0.00000000000E+00 0.  1.
        -15    1    3    3    0    0  0.18020431288E+03 -0.16032703131E+03 -0.23147628814E+03  0.33430940915E+03  0.17770000000E+01 0.  1.
         15    1    3    3    0    0  0.54800533294E+02  0.38532563327E+01 -0.43818668396E+02  0.70293523618E+02  0.17770000000E+01 0. -1.
</event>
<event>
 7    1  0.6322078E-006  0.5190579E+03  0.7546771E-02  0.9358148E-01
        -11   -1    0    0    0    0  0.00000000000E+00  0.00000000000E+00  0.50000000000E+03  0.50000000000E+03  0.00000000000E+00 0. -1.
         11   -1    0    0    0    0 -0.00000000000E+00 -0.00000000000E+00 -0.50000000000E+03  0.50000000000E+03  0.00000000000E+00 0.  1.
         23    2    1    2    0    0  0.21642315084E+02 -0.56762182872E+02  0.21556022146E+03  0.24217462673E+03  0.92152078388E+02 0.  0.
        -11    1    1    2    0    0  0.17040722223E+03 -0.42509652863E+02  0.21405287907E+03  0.27688323714E+03  0.00000000000E+00 0. -1.
         11    1    1    2    0    0 -0.19204953731E+03  0.99271835735E+02 -0.42961310053E+03  0.48094213612E+03  0.00000000000E+00 0.  1.
        -15    1    3    3    0    0  0.30783077077E+02  0.14568393166E+02  0.40719972493E+02  0.53114120558E+02  0.17770000000E+01 0. -1.
         15    1    3    3    0    0 -0.91407619932E+01 -0.71330576038E+02  0.17484024897E+03  0.18906050618E+03  0.17770000000E+01 0.  1.
</event>
<event>
 7    1  0.6322078E-006  0.3464430E+03  0.7546771E-02  0.9829392E-01
        -11   -1    0    0    0    0  0.00000000000E+00  0.00000000000E+00  0.50000000000E+03  0.50000000000E+03  0.00000000000E+00 0. -1.
         11   -1    0    0    0    0 -0.00000000000E+00 -0.00000000000E+00 -0.50000000000E+03  0.50000000000E+03  0.00000000000E+00 0.  1.
         23    2    1    2    0    0 -0.20711352138E+02  0.19836995527E+03  0.14701091682E+03  0.26414485359E+03  0.91546134572E+02 0.  0.
        -11    1    1    2    0    0 -0.10947473223E+03 -0.34694048168E+03  0.13798581497E+03  0.38909189141E+03  0.00000000000E+00 0. -1.
         11    1    1    2    0    0  0.13018608437E+03  0.14857052642E+03 -0.28499673179E+03  0.34676325500E+03  0.00000000000E+00 0.  1.
        -15    1    3    3    0    0 -0.28379164240E+02  0.39531504804E+02  0.75341014701E+02  0.89708099189E+02  0.17770000000E+01 0. -1.
         15    1    3    3    0    0  0.76678121016E+01  0.15883845046E+03  0.71669902120E+02  0.17443675440E+03  0.17770000000E+01 0.  1.
</event>
<event>
 7    1  0.6322078E-006  0.5276925E+03  0.7546771E-02  0.9339892E-01
        -11   -1    0    0    0    0  0.00000000000E+00  0.00000000000E+00  0.50000000000E+03  0.50000000000E+03  0.00000000000E+00 0.  1.
         11   -1    0    0    0    0 -0.00000000000E+00 -0.00000000000E+00 -0.50000000000E+03  0.50000000000E+03  0.00000000000E+00 0. -1.
         23    2    1    2    0    0  0.37574839787E+02 -0.13261904531E+03 -0.25903162798E+03  0.30730309976E+03  0.91313367378E+02 0.  0.
        -11    1    1    2    0    0 -0.18575758382E+03  0.27750735457E+03  0.33400323266E+03  0.47230749646E+03  0.00000000000E+00 0.  1.
         11    1    1    2    0    0  0.14818274403E+03 -0.14488830926E+03 -0.74971604681E+02  0.22038940378E+03  0.00000000000E+00 0. -1.
        -15    1    3    3    0    0 -0.25984991652E+02 -0.74973019519E+02 -0.13094216840E+03  0.15311819827E+03  0.17770000000E+01 0.  1.
         15    1    3    3    0    0  0.63559831439E+02 -0.57646025791E+02 -0.12808945958E+03  0.15418490149E+03  0.17770000000E+01 0. -1.
</event>
<event>
 7    1  0.6322078E-006  0.3494404E+03  0.7546771E-02  0.9818847E-01
        -11   -1    0    0    0    0  0.00000000000E+00  0.00000000000E+00  0.50000000000E+03  0.50000000000E+03  0.00000000000E+00 0. -1.
         11   -1    0    0    0    0 -0.00000000000E+00 -0.00000000000E+00 -0.50000000000E+03  0.50000000000E+03  0.00000000000E+00 0.  1.
         23    2    1    2    0    0 -0.20016247983E+03  0.10018748064E+03 -0.98451770281E+02  0.25957473469E+03  0.87084684111E+02 0.  0.
        -11    1    1    2    0    0  0.18714654045E+03 -0.40229239807E+02  0.39428564708E+03  0.43829600823E+03  0.00000000000E+00 0. -1.
         11    1    1    2    0    0  0.13015939379E+02 -0.59958240834E+02 -0.29583387680E+03  0.30212925708E+03  0.00000000000E+00 0.  1.
        -15    1    3    3    0    0 -0.12646752637E+03  0.15674518404E+02 -0.61404077599E+02  0.14146852734E+03  0.17770000000E+01 0.  1.
         15    1    3    3    0    0 -0.73694953466E+02  0.84512962236E+02 -0.37047692683E+02  0.11810620735E+03  0.17770000000E+01 0. -1.
</event>
<event>
 7    1  0.6322078E-006  0.4460953E+03  0.7546771E-02  0.9529225E-01
        -11   -1    0    0    0    0  0.00000000000E+00  0.00000000000E+00  0.50000000000E+03  0.50000000000E+03  0.00000000000E+00 0.  1.
         11   -1    0    0    0    0 -0.00000000000E+00 -0.00000000000E+00 -0.50000000000E+03  0.50000000000E+03  0.00000000000E+00 0. -1.
         23    2    1    2    0    0  0.12841908975E+03  0.17919708859E+03  0.37392559038E+03  0.44382733197E+03  0.92516454173E+02 0.  0.
        -11    1    1    2    0    0 -0.94217434911E+02 -0.34901618167E+02  0.46241333339E+02  0.11060428970E+03  0.00000000000E+00 0.  1.
         11    1    1    2    0    0 -0.34201654837E+02 -0.14429547042E+03 -0.42016692372E+03  0.44556837833E+03  0.00000000000E+00 0. -1.
        -15    1    3    3    0    0  0.80508874558E+02  0.56929560562E+02  0.10217332945E+03  0.14200422785E+03  0.17770000000E+01 0. -1.
         15    1    3    3    0    0  0.47910215191E+02  0.12226752803E+03  0.27175226093E+03  0.30182310412E+03  0.17770000000E+01 0.  1.
</event>
<event>
 7    1  0.6322078E-006  0.3279570E+03  0.7546771E-02  0.9897060E-01
        -11   -1    0    0    0    0  0.00000000000E+00  0.00000000000E+00  0.50000000000E+03  0.50000000000E+03  0.00000000000E+00 0. -1.
         11   -1    0    0    0    0 -0.00000000000E+00 -0.00000000000E+00 -0.50000000000E+03  0.50000000000E+03  0.00000000000E+00 0. -1.
         23    2    1    2    0    0  0.46819905702E+02  0.28867202354E+02  0.36268418043E+03  0.37824573182E+03  0.92220388008E+02 0.  0.
        -11    1    1    2    0    0  0.12723522095E+03 -0.21316170443E+03 -0.21479498032E+03  0.32827366214E+03  0.00000000000E+00 0. -1.
         11    1    1    2    0    0 -0.17405512666E+03  0.18429450207E+03 -0.14788920011E+03  0.29348060604E+03  0.00000000000E+00 0. -1.
        -15    1    3    3    0    0  0.61954210498E+02 -0.64183720250E+01  0.15537921082E+03  0.16740781518E+03  0.17770000000E+01 0. -1.
         15    1    3    3    0    0 -0.15134304796E+02  0.35285574379E+02  0.20730496961E+03  0.21083791664E+03  0.17770000000E+01 0.  1.
</event>
<event>
 7    1  0.6322078E-006  0.3635408E+03  0.7546771E-02  0.9770718E-01
        -11   -1    0    0    0    0  0.00000000000E+00  0.00000000000E+00  0.50000000000E+03  0.50000000000E+03  0.00000000000E+00 0.  1.
         11   -1    0    0    0    0 -0.00000000000E+00 -0.00000000000E+00 -0.50000000000E+03  0.50000000000E+03  0.00000000000E+00 0. -1.
         23    2    1    2    0    0 -0.26114054822E+03  0.63288821710E+02  0.31320572209E+03  0.42270933665E+03  0.91572365176E+02 0.  0.
        -11    1    1    2    0    0  0.22083431138E+03 -0.10297216049E+03  0.15117983087E+02  0.24413031834E+03  0.00000000000E+00 0.  1.
         11    1    1    2    0    0  0.40306236833E+02  0.39683338784E+02 -0.32832370518E+03  0.33316034501E+03  0.00000000000E+00 0. -1.
        -15    1    3    3    0    0 -0.18429874596E+03  0.84972076167E+02  0.20779772043E+03  0.29046399404E+03  0.17770000000E+01 0.  1.
         15    1    3    3    0    0 -0.76841802262E+02 -0.21683254457E+02  0.10540800166E+03  0.13224534261E+03  0.17770000000E+01 0. -1.
</event>
<event>
 7    1  0.6322078E-006  0.5082102E+03  0.7546771E-02  0.9381624E-01
        -11   -1    0    0    0    0  0.00000000000E+00  0.00000000000E+00  0.50000000000E+03  0.50000000000E+03  0.00000000000E+00 0.  1.
         11   -1    0    0    0    0 -0.00000000000E+00 -0.00000000000E+00 -0.50000000000E+03  0.50000000000E+03  0.00000000000E+00 0.  1.
         23    2    1    2    0    0 -0.10795517048E+02  0.48327706713E+02  0.34738078230E+03  0.36122602944E+03  0.85783017032E+02 0.  0.
        -11    1    1    2    0    0 -0.51050049152E+02  0.29500777135E+01  0.13780256756E+03  0.14698421038E+03  0.00000000000E+00 0.  1.
         11    1    1    2    0    0  0.61845566200E+02 -0.51277784426E+02 -0.48518334986E+03  0.49178976017E+03  0.00000000000E+00 0.  1.
        -15    1    3    3    0    0  0.29291524943E+02  0.29565695782E+02  0.79948847595E+02  0.90150428514E+02  0.17770000000E+01 0.  1.
         15    1    3    3    0    0 -0.40087041991E+02  0.18762010931E+02  0.26743193470E+03  0.27107560093E+03  0.17770000000E+01 0. -1.
</event>
<event>
 7    1  0.6322078E-006  0.5157089E+03  0.7546771E-02  0.9365330E-01
        -11   -1    0    0    0    0  0.00000000000E+00  0.00000000000E+00  0.50000000000E+03  0.50000000000E+03  0.00000000000E+00 0.  1.
         11   -1    0    0    0    0 -0.00000000000E+00 -0.00000000000E+00 -0.50000000000E+03  0.50000000000E+03  0.00000000000E+00 0. -1.
         23    2    1    2    0    0 -0.11470582686E+02 -0.38586742877E+02 -0.83318664969E+02  0.12315715230E+03  0.81272216890E+02 0.  0.
        -11    1    1    2    0    0  0.41986255244E+02  0.25062367790E+03  0.41226546122E+03  0.48429111500E+03  0.00000000000E+00 0.  1.
         11    1    1    2    0    0 -0.30515672558E+02 -0.21203693502E+03 -0.32894679625E+03  0.39255173270E+03  0.00000000000E+00 0. -1.
        -15    1    3    3    0    0 -0.25732962563E+02 -0.13270960417E+02  0.56445659783E+01  0.29552032193E+02  0.17770000000E+01 0. -1.
         15    1    3    3    0    0  0.14262379877E+02 -0.25315782460E+02 -0.88963230947E+02  0.93605120110E+02  0.17770000000E+01 0.  1.
</event>
<event>
 7    1  0.6322078E-006  0.5269950E+03  0.7546771E-02  0.9341353E-01
        -11   -1    0    0    0    0  0.00000000000E+00  0.00000000000E+00  0.50000000000E+03  0.50000000000E+03  0.00000000000E+00 0.  1.
         11   -1    0    0    0    0 -0.00000000000E+00 -0.00000000000E+00 -0.50000000000E+03  0.50000000000E+03  0.00000000000E+00 0.  1.
         23    2    1    2    0    0  0.15174431003E+03 -0.35131280783E+01 -0.23585251018E+03  0.29436916880E+03  0.89376301582E+02 0.  0.
        -11    1    1    2    0    0 -0.99713955672E+02  0.21359769133E+02  0.46188156684E+03  0.47300496242E+03  0.00000000000E+00 0.  1.
         11    1    1    2    0    0 -0.52030354356E+02 -0.17846641055E+02 -0.22602905666E+03  0.23262586878E+03  0.00000000000E+00 0.  1.
        -15    1    3    3    0    0  0.14139127976E+03  0.26444476422E+02 -0.20166791533E+03  0.24771739973E+03  0.17770000000E+01 0.  1.
         15    1    3    3    0    0  0.10353030269E+02 -0.29957604501E+02 -0.34184594852E+02  0.46651769070E+02  0.17770000000E+01 0. -1.
</event>
<event>
 7    1  0.6322078E-006  0.4612119E+03  0.7546771E-02  0.9491045E-01
        -11   -1    0    0    0    0  0.00000000000E+00  0.00000000000E+00  0.50000000000E+03  0.50000000000E+03  0.00000000000E+00 0. -1.
         11   -1    0    0    0    0 -0.00000000000E+00 -0.00000000000E+00 -0.50000000000E+03  0.50000000000E+03  0.00000000000E+00 0.  1.
         23    2    1    2    0    0 -0.76040756561E+02 -0.16667888099E+02  0.44930050270E+03  0.47080498278E+03  0.11715961303E+03 0.  0.
        -11    1    1    2    0    0  0.49522610087E+02 -0.70957332903E+02 -0.18125553433E+02  0.88407961688E+02  0.00000000000E+00 0. -1.
         11    1    1    2    0    0  0.26518146474E+02  0.87625221003E+02 -0.43117494927E+03  0.44078705553E+03  0.00000000000E+00 0.  1.
        -15    1    3    3    0    0 -0.58974271282E+02 -0.65319997326E+02  0.31017023086E+03  0.32241804628E+03  0.17770000000E+01 0. -1.
         15    1    3    3    0    0 -0.17066485279E+02  0.48652109226E+02  0.13913027184E+03  0.14838693650E+03  0.17770000000E+01 0.  1.
</event>
<event>
 7    1  0.6322078E-006  0.5252052E+03  0.7546771E-02  0.9345113E-01
        -11   -1    0    0    0    0  0.00000000000E+00  0.00000000000E+00  0.50000000000E+03  0.50000000000E+03  0.00000000000E+00 0.  1.
         11   -1    0    0    0    0 -0.00000000000E+00 -0.00000000000E+00 -0.50000000000E+03  0.50000000000E+03  0.00000000000E+00 0.  1.
         23    2    1    2    0    0 -0.79558133452E+02 -0.12642201906E+03 -0.23447571238E+03  0.29250346837E+03  0.90925220999E+02 0.  0.
        -11    1    1    2    0    0  0.62577242731E+02  0.85228107962E+02  0.46287186823E+03  0.47479480630E+03  0.00000000000E+00 0.  1.
         11    1    1    2    0    0  0.16980890721E+02  0.41193911103E+02 -0.22839615585E+03  0.23270172532E+03  0.00000000000E+00 0.  1.
        -15    1    3    3    0    0 -0.97978186848E+02 -0.86165059451E+02 -0.17870346708E+03  0.22127410478E+03  0.17770000000E+01 0.  1.
         15    1    3    3    0    0  0.18420053396E+02 -0.40256959614E+02 -0.55772245296E+02  0.71229363600E+02  0.17770000000E+01 0. -1.
</event>
<event>
 7    1  0.6322078E-006  0.5124346E+03  0.7546771E-02  0.9372408E-01
        -11   -1    0    0    0    0  0.00000000000E+00  0.00000000000E+00  0.50000000000E+03  0.50000000000E+03  0.00000000000E+00 0. -1.
         11   -1    0    0    0    0 -0.00000000000E+00 -0.00000000000E+00 -0.50000000000E+03  0.50000000000E+03  0.00000000000E+00 0.  1.
         23    2    1    2    0    0  0.81067311312E+01 -0.57464212035E+02  0.25056080138E+03  0.27294283610E+03  0.91374076391E+02 0.  0.
        -11    1    1    2    0    0  0.93464408564E+02 -0.72278396715E+02  0.20831841710E+03  0.23949180613E+03  0.00000000000E+00 0. -1.
         11    1    1    2    0    0 -0.10157113970E+03  0.12974260875E+03 -0.45887921848E+03  0.48756535777E+03  0.00000000000E+00 0.  1.
        -15    1    3    3    0    0  0.36971415919E+02  0.64779427892E+01  0.10009995365E+03  0.10692056766E+03  0.17770000000E+01 0.  1.
         15    1    3    3    0    0 -0.28864684788E+02 -0.63942154824E+02  0.15046084773E+03  0.16602226844E+03  0.17770000000E+01 0. -1.
</event>
<event>
 7    1  0.6322078E-006  0.5094390E+03  0.7546771E-02  0.9378934E-01
        -11   -1    0    0    0    0  0.00000000000E+00  0.00000000000E+00  0.50000000000E+03  0.50000000000E+03  0.00000000000E+00 0. -1.
         11   -1    0    0    0    0 -0.00000000000E+00 -0.00000000000E+00 -0.50000000000E+03  0.50000000000E+03  0.00000000000E+00 0. -1.
         23    2    1    2    0    0  0.30041023184E+02 -0.14342083912E+03  0.45906384171E+03  0.49056102635E+03  0.91861360949E+02 0.  0.
        -11    1    1    2    0    0  0.21898607874E+02  0.13651559587E+03 -0.18805305606E+03  0.23340953030E+03  0.00000000000E+00 0. -1.
         11    1    1    2    0    0 -0.51939631058E+02  0.69052432519E+01 -0.27101078565E+03  0.27602944335E+03  0.00000000000E+00 0. -1.
        -15    1    3    3    0    0 -0.72643048227E+01  0.10354447604E+02  0.18862309114E+02  0.22780016327E+02  0.17770000000E+01 0.  1.
         15    1    3    3    0    0  0.37305328007E+02 -0.15377528672E+03  0.44020153260E+03  0.46778101002E+03  0.17770000000E+01 0. -1.
</event>
<event>
 7    1  0.6322078E-006  0.3126563E+03  0.7546771E-02  0.9956797E-01
        -11   -1    0    0    0    0  0.00000000000E+00  0.00000000000E+00  0.50000000000E+03  0.50000000000E+03  0.00000000000E+00 0.  1.
         11   -1    0    0    0    0 -0.00000000000E+00 -0.00000000000E+00 -0.50000000000E+03  0.50000000000E+03  0.00000000000E+00 0.  1.
         23    2    1    2    0    0 -0.24525632567E+03 -0.17367497456E+03 -0.30885869755E+02  0.31894112580E+03  0.10225381514E+03 0.  0.
        -11    1    1    2    0    0  0.13998750891E+03  0.10781299807E+03  0.32048219369E+03  0.36596308786E+03  0.00000000000E+00 0.  1.
         11    1    1    2    0    0  0.10526881676E+03  0.65861976486E+02 -0.28959632394E+03  0.31509578633E+03  0.00000000000E+00 0.  1.
        -15    1    3    3    0    0 -0.15716529027E+03 -0.14480656564E+03  0.17370392120E+02  0.21441725250E+03  0.17770000000E+01 0.  1.
         15    1    3    3    0    0 -0.88091035399E+02 -0.28868408914E+02 -0.48256261875E+02  0.10452387330E+03  0.17770000000E+01 0. -1.
</event>
<event>
 7    1  0.6322078E-006  0.5167141E+03  0.7546771E-02  0.9363168E-01
        -11   -1    0    0    0    0  0.00000000000E+00  0.00000000000E+00  0.50000000000E+03  0.50000000000E+03  0.00000000000E+00 0.  1.
         11   -1    0    0    0    0 -0.00000000000E+00 -0.00000000000E+00 -0.50000000000E+03  0.50000000000E+03  0.00000000000E+00 0. -1.
         23    2    1    2    0    0 -0.54176613332E+02  0.22300973385E+03 -0.29435078436E+03  0.38447396322E+03  0.92246394614E+02 0.  0.
        -11    1    1    2    0    0 -0.13399115946E+01 -0.32491134817E+03  0.35776545208E+03  0.48328593838E+03  0.00000000000E+00 0.  1.
         11    1    1    2    0    0  0.55516524927E+02  0.10190161433E+03 -0.63414667724E+02  0.13224009840E+03  0.00000000000E+00 0. -1.
        -15    1    3    3    0    0  0.29688053442E+01  0.48436336445E+02 -0.12703668258E+03  0.13600135640E+03  0.17770000000E+01 0.  1.
         15    1    3    3    0    0 -0.57145418676E+02  0.17457339740E+03 -0.16731410178E+03  0.24847260682E+03  0.17770000000E+01 0. -1.
</event>
<event>
 7    1  0.6322078E-006  0.4297978E+03  0.7546771E-02  0.9572237E-01
        -11   -1    0    0    0    0  0.00000000000E+00  0.00000000000E+00  0.50000000000E+03  0.50000000000E+03  0.00000000000E+00 0.  1.
         11   -1    0    0    0    0 -0.00000000000E+00 -0.00000000000E+00 -0.50000000000E+03  0.50000000000E+03  0.00000000000E+00 0. -1.
         23    2    1    2    0    0 -0.12834283791E+01  0.20708785651E+02  0.38353181139E+03  0.39446635261E+03  0.89869638907E+02 0.  0.
        -11    1    1    2    0    0  0.12035755285E+03 -0.12050459716E+02  0.67809031653E+02  0.13866945908E+03  0.00000000000E+00 0.  1.
         11    1    1    2    0    0 -0.11907412447E+03 -0.86583259348E+01 -0.45134084305E+03  0.46686418831E+03  0.00000000000E+00 0. -1.
        -15    1    3    3    0    0  0.35191158417E+02 -0.12233744033E+02  0.10060496556E+03  0.10729677976E+03  0.17770000000E+01 0. -1.
         15    1    3    3    0    0 -0.36474586796E+02  0.32942529683E+02  0.28292684583E+03  0.28716957284E+03  0.17770000000E+01 0.  1.
</event>
<event>
 7    1  0.6322078E-006  0.4398075E+03  0.7546771E-02  0.9545584E-01
        -11   -1    0    0    0    0  0.00000000000E+00  0.00000000000E+00  0.50000000000E+03  0.50000000000E+03  0.00000000000E+00 0.  1.
         11   -1    0    0    0    0 -0.00000000000E+00 -0.00000000000E+00 -0.50000000000E+03  0.50000000000E+03  0.00000000000E+00 0. -1.
         23    2    1    2    0    0  0.47919811313E+02  0.55305292379E+02 -0.10132307471E+02  0.11728822650E+03  0.91098192840E+02 0.  0.
        -11    1    1    2    0    0 -0.31903007331E+03  0.10553601660E+03  0.30297225213E+03  0.45244913973E+03  0.00000000000E+00 0.  1.
         11    1    1    2    0    0  0.27111026200E+03 -0.16084130898E+03 -0.29283994466E+03  0.43026263378E+03  0.00000000000E+00 0. -1.
        -15    1    3    3    0    0  0.45784724011E+01  0.37984964836E+02  0.35330495121E+02  0.52107788070E+02  0.17770000000E+01 0.  1.
         15    1    3    3    0    0  0.43341338912E+02  0.17320327543E+02 -0.45462802592E+02  0.65180438426E+02  0.17770000000E+01 0. -1.
</event>
<event>
 7    1  0.6322078E-006  0.3986490E+03  0.7546771E-02  0.9660401E-01
        -11   -1    0    0    0    0  0.00000000000E+00  0.00000000000E+00  0.50000000000E+03  0.50000000000E+03  0.00000000000E+00 0. -1.
         11   -1    0    0    0    0 -0.00000000000E+00 -0.00000000000E+00 -0.50000000000E+03  0.50000000000E+03  0.00000000000E+00 0. -1.
         23    2    1    2    0    0  0.37376956955E+02 -0.73533298993E+02 -0.14363726339E+03  0.18567824563E+03  0.83908071691E+02 0.  0.
        -11    1    1    2    0    0  0.64803101315E+01 -0.10485309062E+03  0.44727145968E+03  0.45944305815E+03  0.00000000000E+00 0. -1.
         11    1    1    2    0    0 -0.43857267086E+02  0.17838638961E+03 -0.30363419629E+03  0.35487869622E+03  0.00000000000E+00 0. -1.
        -15    1    3    3    0    0  0.61193390418E+02 -0.58776133429E+02 -0.82287940612E+02  0.11821052318E+03  0.17770000000E+01 0. -1.
         15    1    3    3    0    0 -0.23816433463E+02 -0.14757165564E+02 -0.61349322778E+02  0.67467722451E+02  0.17770000000E+01 0.  1.
</event>
<event>
 7    1  0.6322078E-006  0.5126348E+03  0.7546771E-02  0.9371974E-01
        -11   -1    0    0    0    0  0.00000000000E+00  0.00000000000E+00  0.50000000000E+03  0.50000000000E+03  0.00000000000E+00 0.  1.
         11   -1    0    0    0    0 -0.00000000000E+00 -0.00000000000E+00 -0.50000000000E+03  0.50000000000E+03  0.00000000000E+00 0. -1.
         23    2    1    2    0    0 -0.30475353340E+02  0.77123206390E+02 -0.11366889583E+03  0.16564776051E+03  0.87417541466E+02 0.  0.
        -11    1    1    2    0    0  0.81591638817E+02 -0.28095282715E+03  0.38978598173E+03  0.48736515895E+03  0.00000000000E+00 0.  1.
         11    1    1    2    0    0 -0.51116285477E+02  0.20382962076E+03 -0.27611708589E+03  0.34698708054E+03  0.00000000000E+00 0. -1.
        -15    1    3    3    0    0  0.25763742339E+02  0.49650203293E+02 -0.39072821105E+02  0.68255081748E+02  0.17770000000E+01 0. -1.
         15    1    3    3    0    0 -0.56239095679E+02  0.27473003097E+02 -0.74596074729E+02  0.97392678759E+02  0.17770000000E+01 0.  1.
</event>
<event>
 7    1  0.6322078E-006  0.5160738E+03  0.7546771E-02  0.9364545E-01
        -11   -1    0    0    0    0  0.00000000000E+00  0.00000000000E+00  0.50000000000E+03  0.50000000000E+03  0.00000000000E+00 0.  1.
         11   -1    0    0    0    0 -0.00000000000E+00 -0.00000000000E+00 -0.50000000000E+03  0.50000000000E+03  0.00000000000E+00 0. -1.
         23    2    1    2    0    0 -0.47376278559E+02  0.14974667446E+02 -0.10573842735E+03  0.14761562537E+03  0.90227520194E+02 0.  0.
        -11    1    1    2    0    0  0.14298835457E+03 -0.95315273057E+02  0.45238688006E+03  0.48392619280E+03  0.00000000000E+00 0.  1.
         11    1    1    2    0    0 -0.95612076009E+02  0.80340605610E+02 -0.34664845272E+03  0.36845818183E+03  0.00000000000E+00 0. -1.
        -15    1    3    3    0    0 -0.30540426271E+02 -0.36465692329E+02 -0.38101930148E+02  0.60970313791E+02  0.17770000000E+01 0. -1.
         15    1    3    3    0    0 -0.16835852288E+02  0.51440359775E+02 -0.67636497201E+02  0.86645311579E+02  0.17770000000E+01 0.  1.
</event>
<event>
 7    1  0.6322078E-006  0.5219378E+03  0.7546771E-02  0.9352017E-01
        -11   -1    0    0    0    0  0.00000000000E+00  0.00000000000E+00  0.50000000000E+03  0.50000000000E+03  0.00000000000E+00 0.  1.
         11   -1    0    0    0    0 -0.00000000000E+00 -0.00000000000E+00 -0.50000000000E+03  0.50000000000E+03  0.00000000000E+00 0. -1.
         23    2    1    2    0    0 -0.29268062884E+02  0.25254280759E+02 -0.14332597950E+03  0.18155223672E+03  0.10452023755E+03 0.  0.
        -11    1    1    2    0    0 -0.55765560567E+02 -0.56101712240E+02  0.47147240606E+03  0.47806216075E+03  0.00000000000E+00 0.  1.
         11    1    1    2    0    0  0.85033623451E+02  0.30847431481E+02 -0.32814642656E+03  0.34038560253E+03  0.00000000000E+00 0. -1.
        -15    1    3    3    0    0 -0.18313487239E+01  0.55829173711E+02 -0.35643767064E+02  0.66286396303E+02  0.17770000000E+01 0.  1.
         15    1    3    3    0    0 -0.27436714161E+02 -0.30574892952E+02 -0.10768221244E+03  0.11526584042E+03  0.17770000000E+01 0. -1.
</event>
<event>
 7    1  0.6322078E-006  0.5391808E+03  0.7546771E-02  0.9316170E-01
        -11   -1    0    0    0    0  0.00000000000E+00  0.00000000000E+00  0.50000000000E+03  0.50000000000E+03  0.00000000000E+00 0.  1.
         11   -1    0    0    0    0 -0.00000000000E+00 -0.00000000000E+00 -0.50000000000E+03  0.50000000000E+03  0.00000000000E+00 0. -1.
         23    2    1    2    0    0  0.10840214813E+01  0.14578745958E+03 -0.16073341101E+03  0.23900260886E+03  0.10015916911E+03 0.  0.
        -11    1    1    2    0    0  0.46825554306E+02 -0.84305617049E+02  0.45061544449E+03  0.46081921446E+03  0.00000000000E+00 0.  1.
         11    1    1    2    0    0 -0.47909575787E+02 -0.61481842530E+02 -0.28988203349E+03  0.30017817667E+03  0.00000000000E+00 0. -1.
        -15    1    3    3    0    0 -0.48124457756E+02  0.55883641993E+02 -0.77103867415E+02  0.10671039769E+03  0.17770000000E+01 0.  1.
         15    1    3    3    0    0  0.49208479238E+02  0.89903817586E+02 -0.83629543591E+02  0.13229221117E+03  0.17770000000E+01 0. -1.
</event>
<event>
 7    1  0.6322078E-006  0.5130774E+03  0.7546771E-02  0.9371014E-01
        -11   -1    0    0    0    0  0.00000000000E+00  0.00000000000E+00  0.50000000000E+03  0.50000000000E+03  0.00000000000E+00 0. -1.
         11   -1    0    0    0    0 -0.00000000000E+00 -0.00000000000E+00 -0.50000000000E+03  0.50000000000E+03  0.00000000000E+00 0.  1.
         23    2    1    2    0    0  0.31434993223E+02 -0.23738625620E+02  0.38851144844E+03  0.40182110006E+03  0.94696197045E+02 0.  0.
        -11    1    1    2    0    0  0.61978200851E+02  0.23457821703E+02  0.89366670114E+02  0.11125631895E+03  0.00000000000E+00 0. -1.
         11    1    1    2    0    0 -0.93413194075E+02  0.28080391761E+00 -0.47787811856E+03  0.48692258099E+03  0.00000000000E+00 0.  1.
        -15    1    3    3    0    0 -0.11007194866E+02 -0.48998663817E+02  0.14843428909E+03  0.15670967839E+03  0.17770000000E+01 0.  1.
         15    1    3    3    0    0  0.42442188089E+02  0.25260038197E+02  0.24007715935E+03  0.24511142167E+03  0.17770000000E+01 0. -1.
</event>
<event>
 7    1  0.6322078E-006  0.4102157E+03  0.7546771E-02  0.9626689E-01
        -11   -1    0    0    0    0  0.00000000000E+00  0.00000000000E+00  0.50000000000E+03  0.50000000000E+03  0.00000000000E+00 0. -1.
         11   -1    0    0    0    0 -0.00000000000E+00 -0.00000000000E+00 -0.50000000000E+03  0.50000000000E+03  0.00000000000E+00 0.  1.
         23    2    1    2    0    0  0.93675522786E+02 -0.10659863878E+03  0.20136643133E+02  0.16714251976E+03  0.85981184898E+02 0.  0.
        -11    1    1    2    0    0 -0.13370197158E+03  0.42774547025E+02  0.39070889143E+03  0.41516179608E+03  0.00000000000E+00 0. -1.
         11    1    1    2    0    0  0.40026448790E+02  0.63824091759E+02 -0.41084553457E+03  0.41769568416E+03  0.00000000000E+00 0.  1.
        -15    1    3    3    0    0  0.88416443194E+02 -0.88550473954E+02  0.47532274873E+02  0.13386982015E+03  0.17770000000E+01 0.  1.
         15    1    3    3    0    0  0.52590795912E+01 -0.18048164830E+02 -0.27395631740E+02  0.33272699609E+02  0.17770000000E+01 0. -1.
</event>
<event>
 7    1  0.6322078E-006  0.5277379E+03  0.7546771E-02  0.9339797E-01
        -11   -1    0    0    0    0  0.00000000000E+00  0.00000000000E+00  0.50000000000E+03  0.50000000000E+03  0.00000000000E+00 0. -1.
         11   -1    0    0    0    0 -0.00000000000E+00 -0.00000000000E+00 -0.50000000000E+03  0.50000000000E+03  0.00000000000E+00 0.  1.
         23    2    1    2    0    0 -0.65013836804E+02  0.21543259868E+02  0.25377532674E+03  0.27829871419E+03  0.91418525666E+02 0.  0.
        -11    1    1    2    0    0  0.12842836812E+03  0.38504141387E+02  0.21034142295E+03  0.24943922877E+03  0.00000000000E+00 0. -1.
         11    1    1    2    0    0 -0.63414531316E+02 -0.60047401255E+02 -0.46411674969E+03  0.47226205704E+03  0.00000000000E+00 0.  1.
        -15    1    3    3    0    0  0.73627755922E+01 -0.18312164867E+02  0.11566351611E+03  0.11734884973E+03  0.17770000000E+01 0.  1.
         15    1    3    3    0    0 -0.72376612396E+02  0.39855424735E+02  0.13811181064E+03  0.16094986446E+03  0.17770000000E+01 0. -1.
</event>
<event>
 7    1  0.6322078E-006  0.4084904E+03  0.7546771E-02  0.9631642E-01
        -11   -1    0    0    0    0  0.00000000000E+00  0.00000000000E+00  0.50000000000E+03  0.50000000000E+03  0.00000000000E+00 0.  1.
         11   -1    0    0    0    0 -0.00000000000E+00 -0.00000000000E+00 -0.50000000000E+03  0.50000000000E+03  0.00000000000E+00 0. -1.
         23    2    1    2    0    0 -0.12456028379E+03  0.31788152481E+00  0.75890512014E+02  0.17010091059E+03  0.87519052914E+02 0.  0.
        -11    1    1    2    0    0  0.13167431791E+02 -0.97521452353E+02  0.35812261777E+03  0.37139685552E+03  0.00000000000E+00 0.  1.
         11    1    1    2    0    0  0.11139285199E+03  0.97203570828E+02 -0.43401312979E+03  0.45850223389E+03  0.00000000000E+00 0. -1.
        -15    1    3    3    0    0 -0.13077859511E+03 -0.14218929296E+02  0.79594498370E+02  0.15376495305E+03  0.17770000000E+01 0. -1.
         15    1    3    3    0    0  0.62183113202E+01  0.14536810821E+02 -0.37039863564E+01  0.16335957531E+02  0.17770000000E+01 0.  1.
</event>
<event>
 7    1  0.6322078E-006  0.5142491E+03  0.7546771E-02  0.9368479E-01
        -11   -1    0    0    0    0  0.00000000000E+00  0.00000000000E+00  0.50000000000E+03  0.50000000000E+03  0.00000000000E+00 0.  1.
         11   -1    0    0    0    0 -0.00000000000E+00 -0.00000000000E+00 -0.50000000000E+03  0.50000000000E+03  0.00000000000E+00 0. -1.
         23    2    1    2    0    0  0.21308464165E+03  0.26200252581E+01 -0.34359650848E+03  0.41450703372E+03  0.91354208073E+02 0.  0.
        -11    1    1    2    0    0 -0.24844112224E+03 -0.65814438160E+02  0.41218854357E+03  0.48575088980E+03  0.00000000000E+00 0.  1.
         11    1    1    2    0    0  0.35356480594E+02  0.63194412901E+02 -0.68592035092E+02  0.99742076477E+02  0.00000000000E+00 0. -1.
        -15    1    3    3    0    0  0.72587495521E+02  0.44521200766E+02 -0.12166244216E+03  0.14851258998E+03  0.17770000000E+01 0.  1.
         15    1    3    3    0    0  0.14049714613E+03 -0.41901175508E+02 -0.22193406632E+03  0.26599444374E+03  0.17770000000E+01 0. -1.
</event>
<event>
 7    1  0.6322078E-006  0.4210339E+03  0.7546771E-02  0.9596216E-01
        -11   -1    0    0    0    0  0.00000000000E+00  0.00000000000E+00  0.50000000000E+03  0.50000000000E+03  0.00000000000E+00 0. -1.
         11   -1    0    0    0    0 -0.00000000000E+00 -0.00000000000E+00 -0.50000000000E+03  0.50000000000E+03  0.00000000000E+00 0.  1.
         23    2    1    2    0    0  0.30110609267E+03 -0.74192318908E+02 -0.22787274853E+03  0.39523931271E+03  0.90104081814E+02 0.  0.
        -11    1    1    2    0    0 -0.25335638895E+03  0.43800679680E+02  0.37069311554E+03  0.45113340075E+03  0.00000000000E+00 0. -1.
         11    1    1    2    0    0 -0.47749703716E+02  0.30391639228E+02 -0.14282036700E+03  0.15362728654E+03  0.00000000000E+00 0.  1.
        -15    1    3    3    0    0  0.12981732347E+03 -0.71255238762E+01 -0.49874506226E+02  0.13926210778E+03  0.17770000000E+01 0. -1.
         15    1    3    3    0    0  0.17128876920E+03 -0.67066795032E+02 -0.17799824231E+03  0.25597720493E+03  0.17770000000E+01 0.  1.
</event>
<event>
 7    1  0.6322078E-006  0.3699575E+03  0.7546771E-02  0.9749584E-01
        -11   -1    0    0    0    0  0.00000000000E+00  0.00000000000E+00  0.50000000000E+03  0.50000000000E+03  0.00000000000E+00 0.  1.
         11   -1    0    0    0    0 -0.00000000000E+00 -0.00000000000E+00 -0.50000000000E+03  0.50000000000E+03  0.00000000000E+00 0. -1.
         23    2    1    2    0    0 -0.25119426045E+03  0.11766938161E+03 -0.13415360626E+03  0.32162809154E+03  0.92210624881E+02 0.  0.
        -11    1    1    2    0    0  0.18946096640E+03 -0.21361291387E+03  0.33941140206E+03  0.44353808698E+03  0.00000000000E+00 0.  1.
         11    1    1    2    0    0  0.61733294053E+02  0.95943532251E+02 -0.20525779579E+03  0.23483382148E+03  0.00000000000E+00 0. -1.
        -15    1    3    3    0    0 -0.15004237988E+03  0.80061825652E+02 -0.32080923636E+02  0.17307499842E+03  0.17770000000E+01 0.  1.
         15    1    3    3    0    0 -0.10115188057E+03  0.37607555963E+02 -0.10207268263E+03  0.14855309312E+03  0.17770000000E+01 0. -1.
</event>
<event>
 7    1  0.6322078E-006  0.5228621E+03  0.7546771E-02  0.9350059E-01
        -11   -1    0    0    0    0  0.00000000000E+00  0.00000000000E+00  0.50000000000E+03  0.50000000000E+03  0.00000000000E+00 0. -1.
         11   -1    0    0    0    0 -0.00000000000E+00 -0.00000000000E+00 -0.50000000000E+03  0.50000000000E+03  0.00000000000E+00 0. -1.
         23    2    1    2    0    0  0.51085929034E+02  0.97326007729E+02 -0.22650876015E+03  0.27537776127E+03  0.11155522870E+03 0.  0.
        -11    1    1    2    0    0  0.54284875330E+01 -0.27335200502E+03  0.39103679451E+03  0.47713788551E+03  0.00000000000E+00 0. -1.
         11    1    1    2    0    0 -0.56514416567E+02  0.17602599729E+03 -0.16452803436E+03  0.24748435322E+03  0.00000000000E+00 0. -1.
        -15    1    3    3    0    0  0.77854929952E+02  0.29245117755E+02 -0.11274528588E+03  0.14011182765E+03  0.17770000000E+01 0.  1.
         15    1    3    3    0    0 -0.26769000918E+02  0.68080889974E+02 -0.11376347428E+03  0.13526593362E+03  0.17770000000E+01 0. -1.
</event>
<event>
 7    1  0.6322078E-006  0.5178599E+03  0.7546771E-02  0.9360710E-01
        -11   -1    0    0    0    0  0.00000000000E+00  0.00000000000E+00  0.50000000000E+03  0.50000000000E+03  0.00000000000E+00 0.  1.
         11   -1    0    0    0    0 -0.00000000000E+00 -0.00000000000E+00 -0.50000000000E+03  0.50000000000E+03  0.00000000000E+00 0. -1.
         23    2    1    2    0    0 -0.12935043398E+02 -0.12980956132E+03  0.31096928765E+03  0.34935988780E+03  0.91283053117E+02 0.  0.
        -11    1    1    2    0    0  0.86915980626E+02 -0.12057643161E+02  0.14384886190E+03  0.16850005791E+03  0.00000000000E+00 0.  1.
         11    1    1    2    0    0 -0.73980937228E+02  0.14186720448E+03 -0.45481814955E+03  0.48214005428E+03  0.00000000000E+00 0. -1.
        -15    1    3    3    0    0 -0.24860964488E+02 -0.11648092916E+03  0.30913818669E+03  0.33129360183E+03  0.17770000000E+01 0.  1.
         15    1    3    3    0    0  0.11925921090E+02 -0.13328632163E+02  0.18311009577E+01  0.18066285974E+02  0.17770000000E+01 0. -1.
</event>
<event>
 7    1  0.6322078E-006  0.3131696E+03  0.7546771E-02  0.9954734E-01
        -11   -1    0    0    0    0  0.00000000000E+00  0.00000000000E+00  0.50000000000E+03  0.50000000000E+03  0.00000000000E+00 0.  1.
         11   -1    0    0    0    0 -0.00000000000E+00 -0.00000000000E+00 -0.50000000000E+03  0.50000000000E+03  0.00000000000E+00 0.  1.
         23    2    1    2    0    0  0.82581961325E+02 -0.21101073980E+03  0.27998701479E+03  0.37195926694E+03  0.92820553559E+02 0.  0.
        -11    1    1    2    0    0 -0.12797166131E+03  0.28419538636E+03  0.23507985915E+02  0.31256421601E+03  0.00000000000E+00 0.  1.
         11    1    1    2    0    0  0.45389699981E+02 -0.73184646558E+02 -0.30349500071E+03  0.31547651705E+03  0.00000000000E+00 0.  1.
        -15    1    3    3    0    0  0.20990632077E+02 -0.43888998869E+02  0.11936331671E+02  0.50124690518E+02  0.17770000000E+01 0. -1.
         15    1    3    3    0    0  0.61591329248E+02 -0.16712174093E+03  0.26805068312E+03  0.32183457642E+03  0.17770000000E+01 0.  1.
</event>
<event>
 7    1  0.6322078E-006  0.5266441E+03  0.7546771E-02  0.9342089E-01
        -11   -1    0    0    0    0  0.00000000000E+00  0.00000000000E+00  0.50000000000E+03  0.50000000000E+03  0.00000000000E+00 0.  1.
         11   -1    0    0    0    0 -0.00000000000E+00 -0.00000000000E+00 -0.50000000000E+03  0.50000000000E+03  0.00000000000E+00 0. -1.
         23    2    1    2    0    0  0.19936386155E+03 -0.61246678635E+01 -0.30259202522E+03  0.37353158248E+03  0.90445832041E+02 0.  0.
        -11    1    1    2    0    0 -0.17827509312E+03  0.89497323963E+02  0.42927153801E+03  0.47335592652E+03  0.00000000000E+00 0.  1.
         11    1    1    2    0    0 -0.21088768423E+02 -0.83372656100E+02 -0.12667951279E+03  0.15311249100E+03  0.00000000000E+00 0. -1.
        -15    1    3    3    0    0  0.10886924141E+03 -0.45895512313E+02 -0.13953943377E+03  0.18284780852E+03  0.17770000000E+01 0.  1.
         15    1    3    3    0    0  0.90494620139E+02  0.39770844450E+02 -0.16305259145E+03  0.19068377396E+03  0.17770000000E+01 0. -1.
</event>
<event>
 7    1  0.6322078E-006  0.4637438E+03  0.7546771E-02  0.9484803E-01
        -11   -1    0    0    0    0  0.00000000000E+00  0.00000000000E+00  0.50000000000E+03  0.50000000000E+03  0.00000000000E+00 0.  1.
         11   -1    0    0    0    0 -0.00000000000E+00 -0.00000000000E+00 -0.50000000000E+03  0.50000000000E+03  0.00000000000E+00 0. -1.
         23    2    1    2    0    0  0.50168210833E+02 -0.40100013452E+02  0.41567661319E+03  0.43040784869E+03  0.91318174533E+02 0.  0.
        -11    1    1    2    0    0  0.33237468680E+02  0.19610539621E+02  0.68087270592E+02  0.78263522826E+02  0.00000000000E+00 0.  1.
         11    1    1    2    0    0 -0.83405679513E+02  0.20489473831E+02 -0.48376388379E+03  0.49132862848E+03  0.00000000000E+00 0. -1.
        -15    1    3    3    0    0 -0.49253986563E+00 -0.54585786480E+02  0.27039967374E+03  0.27586045743E+03  0.17770000000E+01 0.  1.
         15    1    3    3    0    0  0.50660750698E+02  0.14485773028E+02  0.14527693945E+03  0.15454739126E+03  0.17770000000E+01 0. -1.
</event>
<event>
 7    1  0.6322078E-006  0.4621875E+03  0.7546771E-02  0.9488635E-01
        -11   -1    0    0    0    0  0.00000000000E+00  0.00000000000E+00  0.50000000000E+03  0.50000000000E+03  0.00000000000E+00 0.  1.
         11   -1    0    0    0    0 -0.00000000000E+00 -0.00000000000E+00 -0.50000000000E+03  0.50000000000E+03  0.00000000000E+00 0.  1.
         23    2    1    2    0    0  0.99915145877E+01 -0.21020141582E+02  0.47124823018E+03  0.48037125911E+03  0.90221812329E+02 0.  0.
        -11    1    1    2    0    0 -0.52504888499E+02 -0.46901358891E+02 -0.39944598415E+02  0.80944868427E+02  0.00000000000E+00 0.  1.
         11    1    1    2    0    0  0.42513373911E+02  0.67921500473E+02 -0.43130363176E+03  0.43868387246E+03  0.00000000000E+00 0.  1.
        -15    1    3    3    0    0 -0.34893810301E+02 -0.30978582171E+02  0.26142391213E+03  0.26556142437E+03  0.17770000000E+01 0.  1.
         15    1    3    3    0    0  0.44885324889E+02  0.99584405888E+01  0.20982431805E+03  0.21480983474E+03  0.17770000000E+01 0. -1.
</event>
<event>
 7    1  0.6322078E-006  0.3719238E+03  0.7546771E-02  0.9743200E-01
        -11   -1    0    0    0    0  0.00000000000E+00  0.00000000000E+00  0.50000000000E+03  0.50000000000E+03  0.00000000000E+00 0. -1.
         11   -1    0    0    0    0 -0.00000000000E+00 -0.00000000000E+00 -0.50000000000E+03  0.50000000000E+03  0.00000000000E+00 0.  1.
         23    2    1    2    0    0 -0.26054231224E+03 -0.13266321639E+03 -0.16046993354E+03  0.34623218078E+03  0.92974716928E+02 0.  0.
        -11    1    1    2    0    0  0.27398588426E+03 -0.36776169716E+02  0.31846078963E+03  0.42170846086E+03  0.00000000000E+00 0. -1.
         11    1    1    2    0    0 -0.13443572016E+02  0.16943938610E+03 -0.15799085609E+03  0.23205935835E+03  0.00000000000E+00 0.  1.
        -15    1    3    3    0    0 -0.25127628556E+02  0.89520559980E+01 -0.35425468233E+02  0.44380835413E+02  0.17770000000E+01 0. -1.
         15    1    3    3    0    0 -0.23541468369E+03 -0.14161527239E+03 -0.12504446531E+03  0.30185134537E+03  0.17770000000E+01 0.  1.
</event>
<event>
 7    1  0.6322078E-006  0.5162095E+03  0.7546771E-02  0.9364253E-01
        -11   -1    0    0    0    0  0.00000000000E+00  0.00000000000E+00  0.50000000000E+03  0.50000000000E+03  0.00000000000E+00 0. -1.
         11   -1    0    0    0    0 -0.00000000000E+00 -0.00000000000E+00 -0.50000000000E+03  0.50000000000E+03  0.00000000000E+00 0. -1.
         23    2    1    2    0    0 -0.89850298505E+01 -0.11286454004E+02 -0.17504311897E+03  0.19907393510E+03  0.93713517342E+02 0.  0.
        -11    1    1    2    0    0 -0.96510580635E+02  0.56285741879E+02  0.47071310072E+03  0.48379045061E+03  0.00000000000E+00 0. -1.
         11    1    1    2    0    0  0.10549561049E+03 -0.44999287874E+02 -0.29566998175E+03  0.31713561429E+03  0.00000000000E+00 0. -1.
        -15    1    3    3    0    0  0.38735441485E+02  0.88700362363E+01 -0.51312135069E+02  0.64924609388E+02  0.17770000000E+01 0. -1.
         15    1    3    3    0    0 -0.47720471335E+02 -0.20156490241E+02 -0.12373098390E+03  0.13414932571E+03  0.17770000000E+01 0.  1.
</event>
<event>
 7    1  0.6322078E-006  0.5194228E+03  0.7546771E-02  0.9357369E-01
        -11   -1    0    0    0    0  0.00000000000E+00  0.00000000000E+00  0.50000000000E+03  0.50000000000E+03  0.00000000000E+00 0.  1.
         11   -1    0    0    0    0 -0.00000000000E+00 -0.00000000000E+00 -0.50000000000E+03  0.50000000000E+03  0.00000000000E+00 0. -1.
         23    2    1    2    0    0 -0.80469212978E+02  0.40736906326E+02  0.66438325012E+02  0.14479851324E+03  0.91748398530E+02 0.  0.
        -11    1    1    2    0    0 -0.16365590290E+03  0.12348078732E+03  0.31354840506E+03  0.37462429406E+03  0.00000000000E+00 0.  1.
         11    1    1    2    0    0  0.24412511588E+03 -0.16421769364E+03 -0.37998673007E+03  0.48057719269E+03  0.00000000000E+00 0. -1.
        -15    1    3    3    0    0 -0.81854210245E+02  0.12901123491E+02  0.78702933447E+02  0.11429724487E+03  0.17770000000E+01 0.  1.
         15    1    3    3    0    0  0.13849972676E+01  0.27835782835E+02 -0.12264608434E+02  0.30501268376E+02  0.17770000000E+01 0. -1.
</event>
<event>
 7    1  0.6322078E-006  0.4652176E+03  0.7546771E-02  0.9481189E-01
        -11   -1    0    0    0    0  0.00000000000E+00  0.00000000000E+00  0.50000000000E+03  0.50000000000E+03  0.00000000000E+00 0.  1.
         11   -1    0    0    0    0 -0.00000000000E+00 -0.00000000000E+00 -0.50000000000E+03  0.50000000000E+03  0.00000000000E+00 0. -1.
         23    2    1    2    0    0 -0.27082151604E+02  0.35387314993E+02  0.42580780455E+03  0.43812519875E+03  0.93036005756E+02 0.  0.
        -11    1    1    2    0    0 -0.52289475380E+01  0.56462970734E+02  0.50369161183E+02  0.75844982397E+02  0.00000000000E+00 0.  1.
         11    1    1    2    0    0  0.32311099142E+02 -0.91850285728E+02 -0.47617696573E+03  0.48602981885E+03  0.00000000000E+00 0. -1.
        -15    1    3    3    0    0 -0.54081663295E+02  0.46644706818E+02  0.25485673674E+03  0.26468031466E+03  0.17770000000E+01 0.  1.
         15    1    3    3    0    0  0.26999511691E+02 -0.11257391825E+02  0.17095106782E+03  0.17344488409E+03  0.17770000000E+01 0. -1.
</event>
<event>
 7    1  0.6322078E-006  0.5309470E+03  0.7546771E-02  0.9333107E-01
        -11   -1    0    0    0    0  0.00000000000E+00  0.00000000000E+00  0.50000000000E+03  0.50000000000E+03  0.00000000000E+00 0.  1.
         11   -1    0    0    0    0 -0.00000000000E+00 -0.00000000000E+00 -0.50000000000E+03  0.50000000000E+03  0.00000000000E+00 0. -1.
         23    2    1    2    0    0  0.63625092394E+02 -0.76236643041E+02  0.25401152712E+03  0.28725383571E+03  0.90181661662E+02 0.  0.
        -11    1    1    2    0    0  0.12107589333E+03  0.11867546665E+03  0.17505169936E+03  0.24369311804E+03  0.00000000000E+00 0.  1.
         11    1    1    2    0    0 -0.18470098572E+03 -0.42438823614E+02 -0.42906322648E+03  0.46905304625E+03  0.00000000000E+00 0. -1.
        -15    1    3    3    0    0  0.17215558299E+02 -0.24970056372E+02  0.76015975534E+01  0.31318064709E+02  0.17770000000E+01 0.  1.
         15    1    3    3    0    0  0.46409534095E+02 -0.51266586669E+02  0.24640992956E+03  0.25593577101E+03  0.17770000000E+01 0. -1.
</event>
<event>
 7    1  0.6322078E-006  0.3352613E+03  0.7546771E-02  0.9869763E-01
        -11   -1    0    0    0    0  0.00000000000E+00  0.00000000000E+00  0.50000000000E+03  0.50000000000E+03  0.00000000000E+00 0.  1.
         11   -1    0    0    0    0 -0.00000000000E+00 -0.00000000000E+00 -0.50000000000E+03  0.50000000000E+03  0.00000000000E+00 0.  1.
         23    2    1    2    0    0 -0.16134721174E+03  0.84846599047E+02  0.19108834492E+03  0.27934248022E+03  0.91025257950E+02 0.  0.
        -11    1    1    2    0    0  0.37239870130E+03 -0.95450783298E+02  0.63659252350E+02  0.38967184293E+03  0.00000000000E+00 0.  1.
         11    1    1    2    0    0 -0.21105148956E+03  0.10604184251E+02 -0.25474759727E+03  0.33098567685E+03  0.00000000000E+00 0.  1.
        -15    1    3    3    0    0 -0.28915631896E+02 -0.17478166028E+02  0.17053530197E+02  0.37889057481E+02  0.17770000000E+01 0. -1.
         15    1    3    3    0    0 -0.13243157984E+03  0.10232476507E+03  0.17403481472E+03  0.24145342274E+03  0.17770000000E+01 0.  1.
</event>
<event>
 7    1  0.6322078E-006  0.5160029E+03  0.7546771E-02  0.9364697E-01
        -11   -1    0    0    0    0  0.00000000000E+00  0.00000000000E+00  0.50000000000E+03  0.50000000000E+03  0.00000000000E+00 0.  1.
         11   -1    0    0    0    0 -0.00000000000E+00 -0.00000000000E+00 -0.50000000000E+03  0.50000000000E+03  0.00000000000E+00 0.  1.
         23    2    1    2    0    0  0.39570158867E+02 -0.59275276989E+02 -0.20702924972E+03  0.23691567168E+03  0.90490713943E+02 0.  0.
        -11    1    1    2    0    0 -0.87251313062E+02  0.23742324963E+01  0.47606171202E+03  0.48399708910E+03  0.00000000000E+00 0.  1.
         11    1    1    2    0    0  0.47681154195E+02  0.56901044492E+02 -0.26903246229E+03  0.27908723922E+03  0.00000000000E+00 0.  1.
        -15    1    3    3    0    0  0.19728693332E+02 -0.65348779181E+02 -0.20490250971E+03  0.21598120403E+03  0.17770000000E+01 0. -1.
         15    1    3    3    0    0  0.19841465535E+02  0.60735021920E+01 -0.21267400139E+01  0.20934467644E+02  0.17770000000E+01 0.  1.
</event>
<event>
 7    1  0.6322078E-006  0.4665905E+03  0.7546771E-02  0.9477835E-01
        -11   -1    0    0    0    0  0.00000000000E+00  0.00000000000E+00  0.50000000000E+03  0.50000000000E+03  0.00000000000E+00 0.  1.
         11   -1    0    0    0    0 -0.00000000000E+00 -0.00000000000E+00 -0.50000000000E+03  0.50000000000E+03  0.00000000000E+00 0. -1.
         23    2    1    2    0    0  0.12018411524E+02  0.41030340256E+01  0.45735496257E+03  0.46552433498E+03  0.85895678402E+02 0.  0.
        -11    1    1    2    0    0  0.42641387270E+02  0.57963529642E+02 -0.23307228979E+01  0.71996464817E+02  0.00000000000E+00 0.  1.
         11    1    1    2    0    0 -0.54659798795E+02 -0.62066563667E+02 -0.45502423967E+03  0.46247920020E+03  0.00000000000E+00 0. -1.
        -15    1    3    3    0    0  0.23936505403E+02 -0.36655261442E+02  0.25736436235E+03  0.26106730401E+03  0.17770000000E+01 0.  1.
         15    1    3    3    0    0 -0.11918093879E+02  0.40758295467E+02  0.19999060022E+03  0.20445703098E+03  0.17770000000E+01 0. -1.
</event>
<event>
 7    1  0.6322078E-006  0.5314660E+03  0.7546771E-02  0.9332030E-01
        -11   -1    0    0    0    0  0.00000000000E+00  0.00000000000E+00  0.50000000000E+03  0.50000000000E+03  0.00000000000E+00 0.  1.
         11   -1    0    0    0    0 -0.00000000000E+00 -0.00000000000E+00 -0.50000000000E+03  0.50000000000E+03  0.00000000000E+00 0.  1.
         23    2    1    2    0    0 -0.26132207937E+02 -0.13864528479E+03 -0.11037726994E+03  0.20093443853E+03  0.91028015372E+02 0.  0.
        -11    1    1    2    0    0 -0.13051294847E+03  0.23017007330E+03  0.38666809678E+03  0.46853400029E+03  0.00000000000E+00 0.  1.
         11    1    1    2    0    0  0.15664515640E+03 -0.91524788515E+02 -0.27629082684E+03  0.33053156117E+03  0.00000000000E+00 0.  1.
        -15    1    3    3    0    0  0.15010902841E+02 -0.81504346300E+02 -0.18098933720E+02  0.84847008202E+02  0.17770000000E+01 0.  1.
         15    1    3    3    0    0 -0.41143110778E+02 -0.57140938488E+02 -0.92278336223E+02  0.11608743033E+03  0.17770000000E+01 0. -1.
</event>
<event>
 7    1  0.6322078E-006  0.5222804E+03  0.7546771E-02  0.9351291E-01
        -11   -1    0    0    0    0  0.00000000000E+00  0.00000000000E+00  0.50000000000E+03  0.50000000000E+03  0.00000000000E+00 0.  1.
         11   -1    0    0    0    0 -0.00000000000E+00 -0.00000000000E+00 -0.50000000000E+03  0.50000000000E+03  0.00000000000E+00 0. -1.
         23    2    1    2    0    0  0.14814173223E+03  0.20438178030E+03 -0.26411824827E+03  0.38118273755E+03  0.10873796665E+03 0.  0.
        -11    1    1    2    0    0 -0.25689955508E+03 -0.19333498697E+03  0.35332732740E+03  0.47771958184E+03  0.00000000000E+00 0.  1.
         11    1    1    2    0    0  0.10875782285E+03 -0.11046793336E+02 -0.89209079133E+02  0.14109768061E+03  0.00000000000E+00 0. -1.
        -15    1    3    3    0    0  0.63975851352E+02  0.60097825987E+02 -0.28397909598E+02  0.92272732934E+02  0.17770000000E+01 0.  1.
         15    1    3    3    0    0  0.84165880881E+02  0.14428395432E+03 -0.23572033867E+03  0.28891000462E+03  0.17770000000E+01 0. -1.
</event>
<event>
 7    1  0.6322078E-006  0.4733596E+03  0.7546771E-02  0.9461476E-01
        -11   -1    0    0    0    0  0.00000000000E+00  0.00000000000E+00  0.50000000000E+03  0.50000000000E+03  0.00000000000E+00 0. -1.
         11   -1    0    0    0    0 -0.00000000000E+00 -0.00000000000E+00 -0.50000000000E+03  0.50000000000E+03  0.00000000000E+00 0. -1.
         23    2    1    2    0    0 -0.37010941343E+02  0.11790259875E+02  0.48007091824E+03  0.49039311673E+03  0.92241543702E+02 0.  0.
        -11    1    1    2    0    0 -0.46284101090E+02  0.28985837436E-01 -0.38823687573E+02  0.60411071590E+02  0.00000000000E+00 0. -1.
         11    1    1    2    0    0  0.83295042434E+02 -0.11819245712E+02 -0.44124723067E+03  0.44919581168E+03  0.00000000000E+00 0. -1.
        -15    1    3    3    0    0 -0.65358765891E+02  0.17277252382E+02  0.38910358424E+03  0.39493674016E+03  0.17770000000E+01 0. -1.
         15    1    3    3    0    0  0.28347824548E+02 -0.54869925068E+01  0.90967334001E+02  0.95456376569E+02  0.17770000000E+01 0.  1.
</event>
<event>
 7    1  0.6322078E-006  0.3767305E+03  0.7546771E-02  0.9727769E-01
        -11   -1    0    0    0    0  0.00000000000E+00  0.00000000000E+00  0.50000000000E+03  0.50000000000E+03  0.00000000000E+00 0. -1.
         11   -1    0    0    0    0 -0.00000000000E+00 -0.00000000000E+00 -0.50000000000E+03  0.50000000000E+03  0.00000000000E+00 0. -1.
         23    2    1    2    0    0  0.17595904102E+03  0.87389363695E+02  0.30995354161E+03  0.37758180950E+03  0.88872604906E+02 0.  0.
        -11    1    1    2    0    0 -0.20969501024E+03  0.47224608170E+02  0.63403968469E+02  0.22410315516E+03  0.00000000000E+00 0. -1.
         11    1    1    2    0    0  0.33735969219E+02 -0.13461397187E+03 -0.37335751008E+03  0.39831503534E+03  0.00000000000E+00 0. -1.
        -15    1    3    3    0    0  0.15332187876E+03  0.10583273609E+03  0.26456744173E+03  0.32358500504E+03  0.17770000000E+01 0. -1.
         15    1    3    3    0    0  0.22637162266E+02 -0.18443372391E+02  0.45386099882E+02  0.53996804462E+02  0.17770000000E+01 0.  1.
</event>
<event>
 7    1  0.6322078E-006  0.4194960E+03  0.7546771E-02  0.9600488E-01
        -11   -1    0    0    0    0  0.00000000000E+00  0.00000000000E+00  0.50000000000E+03  0.50000000000E+03  0.00000000000E+00 0.  1.
         11   -1    0    0    0    0 -0.00000000000E+00 -0.00000000000E+00 -0.50000000000E+03  0.50000000000E+03  0.00000000000E+00 0.  1.
         23    2    1    2    0    0  0.13843035427E+02 -0.17282190956E+03  0.32433829783E+03  0.37847108491E+03  0.89364358736E+02 0.  0.
        -11    1    1    2    0    0 -0.13018428091E+03 -0.17039538621E+02  0.84393181875E+02  0.15607851235E+03  0.00000000000E+00 0.  1.
         11    1    1    2    0    0  0.11634124548E+03  0.18986144819E+03 -0.40873147971E+03  0.46545040274E+03  0.00000000000E+00 0.  1.
        -15    1    3    3    0    0  0.52066376018E+02 -0.10308961049E+03  0.19076888919E+03  0.22301188783E+03  0.17770000000E+01 0.  1.
         15    1    3    3    0    0 -0.38223340592E+02 -0.69732299077E+02  0.13356940864E+03  0.15545919707E+03  0.17770000000E+01 0. -1.
</event>
<event>
 7    1  0.6322078E-006  0.4595338E+03  0.7546771E-02  0.9495206E-01
        -11   -1    0    0    0    0  0.00000000000E+00  0.00000000000E+00  0.50000000000E+03  0.50000000000E+03  0.00000000000E+00 0.  1.
         11   -1    0    0    0    0 -0.00000000000E+00 -0.00000000000E+00 -0.50000000000E+03  0.50000000000E+03  0.00000000000E+00 0.  1.
         23    2    1    2    0    0 -0.21022791739E+03 -0.31823273979E+03 -0.19081198748E+03  0.43609942744E+03  0.91135295690E+02 0.  0.
        -11    1    1    2    0    0  0.20092181207E+03  0.33563837329E+03  0.27452118323E+03  0.47789598474E+03  0.00000000000E+00 0.  1.
         11    1    1    2    0    0  0.93061053137E+01 -0.17405633498E+02 -0.83709195747E+02  0.86004587821E+02  0.00000000000E+00 0.  1.
        -15    1    3    3    0    0 -0.13642583348E+03 -0.12484979632E+03 -0.83000230595E+02  0.20271081789E+03  0.17770000000E+01 0.  1.
         15    1    3    3    0    0 -0.73802083908E+02 -0.19338294347E+03 -0.10781175689E+03  0.23338860955E+03  0.17770000000E+01 0. -1.
</event>
<event>
 7    1  0.6322078E-006  0.5118528E+03  0.7546771E-02  0.9373672E-01
        -11   -1    0    0    0    0  0.00000000000E+00  0.00000000000E+00  0.50000000000E+03  0.50000000000E+03  0.00000000000E+00 0. -1.
         11   -1    0    0    0    0 -0.00000000000E+00 -0.00000000000E+00 -0.50000000000E+03  0.50000000000E+03  0.00000000000E+00 0.  1.
         23    2    1    2    0    0 -0.21610719573E+02 -0.69939318649E+02  0.35214321128E+03  0.37124304943E+03  0.91967543219E+02 0.  0.
        -11    1    1    2    0    0  0.55111653269E+02 -0.46388836662E+02  0.12075545519E+03  0.14060973811E+03  0.00000000000E+00 0. -1.
         11    1    1    2    0    0 -0.33500933695E+02  0.11632815531E+03 -0.47289866647E+03  0.48814721246E+03  0.00000000000E+00 0.  1.
        -15    1    3    3    0    0  0.59943049208E+01 -0.85550078107E+02  0.25588600784E+03  0.26988062971E+03  0.17770000000E+01 0. -1.
         15    1    3    3    0    0 -0.27605024494E+02  0.15610759459E+02  0.96257203439E+02  0.10136241972E+03  0.17770000000E+01 0.  1.
</event>
<event>
 7    1  0.6322078E-006  0.3771796E+03  0.7546771E-02  0.9726340E-01
        -11   -1    0    0    0    0  0.00000000000E+00  0.00000000000E+00  0.50000000000E+03  0.50000000000E+03  0.00000000000E+00 0. -1.
         11   -1    0    0    0    0 -0.00000000000E+00 -0.00000000000E+00 -0.50000000000E+03  0.50000000000E+03  0.00000000000E+00 0. -1.
         23    2    1    2    0    0  0.87881660585E+02  0.30801129391E+02  0.30586853229E+03  0.33211674665E+03  0.89855876382E+02 0.  0.
        -11    1    1    2    0    0 -0.17841168217E+03  0.63978849981E+02  0.11863711950E+03  0.22360408695E+03  0.00000000000E+00 0. -1.
         11    1    1    2    0    0  0.90530021582E+02 -0.94779979372E+02 -0.42450565179E+03  0.44427916640E+03  0.00000000000E+00 0. -1.
        -15    1    3    3    0    0  0.39166457673E+02 -0.25827613881E+02  0.66837440658E+02  0.81679117577E+02  0.17770000000E+01 0.  1.
         15    1    3    3    0    0  0.48715202913E+02  0.56628743272E+02  0.23903109163E+03  0.25043762907E+03  0.17770000000E+01 0. -1.
</event>
<event>
 7    1  0.6322078E-006  0.4644173E+03  0.7546771E-02  0.9483149E-01
        -11   -1    0    0    0    0  0.00000000000E+00  0.00000000000E+00  0.50000000000E+03  0.50000000000E+03  0.00000000000E+00 0. -1.
         11   -1    0    0    0    0 -0.00000000000E+00 -0.00000000000E+00 -0.50000000000E+03  0.50000000000E+03  0.00000000000E+00 0. -1.
         23    2    1    2    0    0  0.32615596130E+02  0.10183303287E+02  0.43666982412E+03  0.44702712180E+03  0.89360145185E+02 0.  0.
        -11    1    1    2    0    0  0.71206437319E+02 -0.36663082244E+01  0.28148690633E+02  0.76656032483E+02  0.00000000000E+00 0. -1.
         11    1    1    2    0    0 -0.10382203345E+03 -0.65169950629E+01 -0.46481851476E+03  0.47631684572E+03  0.00000000000E+00 0. -1.
        -15    1    3    3    0    0  0.41337370057E+02  0.43215340968E+02  0.23621423491E+03  0.24367327790E+03  0.17770000000E+01 0. -1.
         15    1    3    3    0    0 -0.87217739271E+01 -0.33032037680E+02  0.20045558921E+03  0.20335384390E+03  0.17770000000E+01 0.  1.
</event>
<event>
 7    1  0.6322078E-006  0.5108187E+03  0.7546771E-02  0.9375922E-01
        -11   -1    0    0    0    0  0.00000000000E+00  0.00000000000E+00  0.50000000000E+03  0.50000000000E+03  0.00000000000E+00 0. -1.
         11   -1    0    0    0    0 -0.00000000000E+00 -0.00000000000E+00 -0.50000000000E+03  0.50000000000E+03  0.00000000000E+00 0.  1.
         23    2    1    2    0    0 -0.48992234982E+01 -0.46602306662E+02 -0.18119398161E+03  0.20814328804E+03  0.91085630089E+02 0.  0.
        -11    1    1    2    0    0  0.32843539867E+02  0.97262103512E+02  0.47828837640E+03  0.48918134254E+03  0.00000000000E+00 0. -1.
         11    1    1    2    0    0 -0.27944316369E+02 -0.50659796850E+02 -0.29709439479E+03  0.30267536942E+03  0.00000000000E+00 0.  1.
        -15    1    3    3    0    0 -0.32600506661E+02 -0.32763293968E+01 -0.18854236109E+02  0.37843986538E+02  0.17770000000E+01 0.  1.
         15    1    3    3    0    0  0.27701283163E+02 -0.43325977265E+02 -0.16233974550E+03  0.17029930150E+03  0.17770000000E+01 0. -1.
</event>
<event>
 7    1  0.6322078E-006  0.4015079E+03  0.7546771E-02  0.9651956E-01
        -11   -1    0    0    0    0  0.00000000000E+00  0.00000000000E+00  0.50000000000E+03  0.50000000000E+03  0.00000000000E+00 0. -1.
         11   -1    0    0    0    0 -0.00000000000E+00 -0.00000000000E+00 -0.50000000000E+03  0.50000000000E+03  0.00000000000E+00 0.  1.
         23    2    1    2    0    0 -0.15614906891E+03 -0.95473611348E+01 -0.53456175792E+01  0.18187010117E+03  0.92598457048E+02 0.  0.
        -11    1    1    2    0    0  0.22887110733E+03 -0.30821565304E+03  0.20566666871E+03  0.43551997792E+03  0.00000000000E+00 0. -1.
         11    1    1    2    0    0 -0.72722038418E+02  0.31776301418E+03 -0.20032105113E+03  0.38260992091E+03  0.00000000000E+00 0.  1.
        -15    1    3    3    0    0  0.36159604889E+01  0.17615765060E+02 -0.80441155330E+01  0.19780188892E+02  0.17770000000E+01 0.  1.
         15    1    3    3    0    0 -0.15976502940E+03 -0.27163126194E+02  0.26984979539E+01  0.16208991228E+03  0.17770000000E+01 0. -1.
</event>
<event>
 7    1  0.6322078E-006  0.5218560E+03  0.7546771E-02  0.9352191E-01
        -11   -1    0    0    0    0  0.00000000000E+00  0.00000000000E+00  0.50000000000E+03  0.50000000000E+03  0.00000000000E+00 0. -1.
         11   -1    0    0    0    0 -0.00000000000E+00 -0.00000000000E+00 -0.50000000000E+03  0.50000000000E+03  0.00000000000E+00 0. -1.
         23    2    1    2    0    0  0.44914880385E+02  0.10726611865E+02  0.27555340882E+03  0.29424372082E+03  0.92289107967E+02 0.  0.
        -11    1    1    2    0    0  0.16909289985E+03  0.21974553763E+02  0.15077156147E+03  0.22761228776E+03  0.00000000000E+00 0. -1.
         11    1    1    2    0    0 -0.21400778024E+03 -0.32701165628E+02 -0.42632497029E+03  0.47814399141E+03  0.00000000000E+00 0. -1.
        -15    1    3    3    0    0 -0.34639207704E+01 -0.13508939904E+02  0.66470457323E+00  0.14074436599E+02  0.17770000000E+01 0.  1.
         15    1    3    3    0    0  0.48378801155E+02  0.24235551769E+02  0.27488870425E+03  0.28016928423E+03  0.17770000000E+01 0. -1.
</event>
<event>
 7    1  0.6322078E-006  0.5387968E+03  0.7546771E-02  0.9316953E-01
        -11   -1    0    0    0    0  0.00000000000E+00  0.00000000000E+00  0.50000000000E+03  0.50000000000E+03  0.00000000000E+00 0.  1.
         11   -1    0    0    0    0 -0.00000000000E+00 -0.00000000000E+00 -0.50000000000E+03  0.50000000000E+03  0.00000000000E+00 0. -1.
         23    2    1    2    0    0  0.35860975620E+02 -0.55823426827E+01  0.64696113851E+02  0.12349432596E+03  0.98732412489E+02 0.  0.
        -11    1    1    2    0    0 -0.18626078728E+03 -0.57826147556E+02  0.36665949952E+03  0.41530245943E+03  0.00000000000E+00 0.  1.
         11    1    1    2    0    0  0.15039981166E+03  0.63408490239E+02 -0.43135561337E+03  0.46120321461E+03  0.00000000000E+00 0. -1.
        -15    1    3    3    0    0  0.50755458891E+02 -0.21363476008E+02 -0.14314800778E+00  0.55097122745E+02  0.17770000000E+01 0.  1.
         15    1    3    3    0    0 -0.14894483272E+02  0.15781133325E+02  0.64839261858E+02  0.68397203220E+02  0.17770000000E+01 0. -1.
</event>
<event>
 7    1  0.6322078E-006  0.5170140E+03  0.7546771E-02  0.9362524E-01
        -11   -1    0    0    0    0  0.00000000000E+00  0.00000000000E+00  0.50000000000E+03  0.50000000000E+03  0.00000000000E+00 0.  1.
         11   -1    0    0    0    0 -0.00000000000E+00 -0.00000000000E+00 -0.50000000000E+03  0.50000000000E+03  0.00000000000E+00 0. -1.
         23    2    1    2    0    0 -0.10099981672E+03  0.64438383430E+02 -0.25236174918E+03  0.29295346263E+03  0.88215704863E+02 0.  0.
        -11    1    1    2    0    0  0.22803230137E+03 -0.20305697823E+03  0.37422538166E+03  0.48298602790E+03  0.00000000000E+00 0.  1.
         11    1    1    2    0    0 -0.12703248464E+03  0.13861859480E+03 -0.12186363248E+03  0.22406050946E+03  0.00000000000E+00 0. -1.
        -15    1    3    3    0    0 -0.82067769724E+02  0.12057219834E+01 -0.15338049853E+03  0.17396927214E+03  0.17770000000E+01 0. -1.
         15    1    3    3    0    0 -0.18932046997E+02  0.63232661447E+02 -0.98981250649E+02  0.11898419049E+03  0.17770000000E+01 0.  1.
</event>
<event>
 7    1  0.6322078E-006  0.5176046E+03  0.7546771E-02  0.9361257E-01
        -11   -1    0    0    0    0  0.00000000000E+00  0.00000000000E+00  0.50000000000E+03  0.50000000000E+03  0.00000000000E+00 0. -1.
         11   -1    0    0    0    0 -0.00000000000E+00 -0.00000000000E+00 -0.50000000000E+03  0.50000000000E+03  0.00000000000E+00 0.  1.
         23    2    1    2    0    0 -0.21019119041E+02 -0.47235467303E+02 -0.90983968717E+02  0.13906249306E+03  0.91582212668E+02 0.  0.
        -11    1    1    2    0    0  0.13933480880E+03  0.23797942793E+03  0.39579909952E+03  0.48239540238E+03  0.00000000000E+00 0. -1.
         11    1    1    2    0    0 -0.11831568975E+03 -0.19074396062E+03 -0.30481513080E+03  0.37854210456E+03  0.00000000000E+00 0.  1.
        -15    1    3    3    0    0 -0.54610924638E+02 -0.14886086495E+02 -0.36739751699E+02  0.67504931263E+02  0.17770000000E+01 0. -1.
         15    1    3    3    0    0  0.33591805597E+02 -0.32349380808E+02 -0.54244217018E+02  0.71557561801E+02  0.17770000000E+01 0.  1.
</event>
<event>
 7    1  0.6322078E-006  0.5082527E+03  0.7546771E-02  0.9381531E-01
        -11   -1    0    0    0    0  0.00000000000E+00  0.00000000000E+00  0.50000000000E+03  0.50000000000E+03  0.00000000000E+00 0.  1.
         11   -1    0    0    0    0 -0.00000000000E+00 -0.00000000000E+00 -0.50000000000E+03  0.50000000000E+03  0.00000000000E+00 0. -1.
         23    2    1    2    0    0 -0.60025135591E+02  0.16547602999E+01  0.23574324150E+03  0.25692325280E+03  0.82637320755E+02 0.  0.
        -11    1    1    2    0    0 -0.58792962214E+02 -0.51900423208E+02  0.23878073871E+03  0.25132947999E+03  0.00000000000E+00 0.  1.
         11    1    1    2    0    0  0.11881809780E+03  0.50245662909E+02 -0.47452398021E+03  0.49174726721E+03  0.00000000000E+00 0. -1.
        -15    1    3    3    0    0 -0.85158184951E+01 -0.36818000002E+02  0.86403348642E+02  0.94322747386E+02  0.17770000000E+01 0. -1.
         15    1    3    3    0    0 -0.51509317096E+02  0.38472760302E+02  0.14933989286E+03  0.16260050542E+03  0.17770000000E+01 0.  1.
</event>
<event>
 7    1  0.6322078E-006  0.5160671E+03  0.7546771E-02  0.9364559E-01
        -11   -1    0    0    0    0  0.00000000000E+00  0.00000000000E+00  0.50000000000E+03  0.50000000000E+03  0.00000000000E+00 0.  1.
         11   -1    0    0    0    0 -0.00000000000E+00 -0.00000000000E+00 -0.50000000000E+03  0.50000000000E+03  0.00000000000E+00 0. -1.
         23    2    1    2    0    0  0.35965576076E+02  0.93095414802E+02  0.13566127795E+03  0.19907381524E+03  0.10614199291E+03 0.  0.
        -11    1    1    2    0    0  0.56697699403E+02  0.21592716517E+03  0.22504577024E+03  0.31699332561E+03  0.00000000000E+00 0.  1.
         11    1    1    2    0    0 -0.92663275479E+02 -0.30902257997E+03 -0.36070704819E+03  0.48393285915E+03  0.00000000000E+00 0. -1.
        -15    1    3    3    0    0  0.27529239879E+02  0.12503123724E+02 -0.10406145653E+02  0.32025501519E+02  0.17770000000E+01 0.  1.
         15    1    3    3    0    0  0.84363361965E+01  0.80592291078E+02  0.14606742360E+03  0.16704831372E+03  0.17770000000E+01 0. -1.
</event>
<event>
 7    1  0.6322078E-006  0.5219692E+03  0.7546771E-02  0.9351951E-01
        -11   -1    0    0    0    0  0.00000000000E+00  0.00000000000E+00  0.50000000000E+03  0.50000000000E+03  0.00000000000E+00 0.  1.
         11   -1    0    0    0    0 -0.00000000000E+00 -0.00000000000E+00 -0.50000000000E+03  0.50000000000E+03  0.00000000000E+00 0. -1.
         23    2    1    2    0    0  0.23924782624E+03 -0.93606597321E+02 -0.28849213535E+03  0.39717589082E+03  0.92299830285E+02 0.  0.
        -11    1    1    2    0    0 -0.23694463211E+03  0.65292681823E+02  0.41000918418E+03  0.47803077735E+03  0.00000000000E+00 0.  1.
         11    1    1    2    0    0 -0.23031941307E+01  0.28313915498E+02 -0.12151704883E+03  0.12479333183E+03  0.00000000000E+00 0. -1.
        -15    1    3    3    0    0  0.31642734529E+02  0.18794118776E+02 -0.36327354784E+02  0.51742786779E+02  0.17770000000E+01 0.  1.
         15    1    3    3    0    0  0.20760509171E+03 -0.11240071610E+03 -0.25216478057E+03  0.34543310404E+03  0.17770000000E+01 0. -1.
</event>
<event>
 7    1  0.6322078E-006  0.5119849E+03  0.7546771E-02  0.9373385E-01
        -11   -1    0    0    0    0  0.00000000000E+00  0.00000000000E+00  0.50000000000E+03  0.50000000000E+03  0.00000000000E+00 0.  1.
         11   -1    0    0    0    0 -0.00000000000E+00 -0.00000000000E+00 -0.50000000000E+03  0.50000000000E+03  0.00000000000E+00 0. -1.
         23    2    1    2    0    0  0.44325692476E+02 -0.45070034619E+02  0.25495587335E+03  0.27783862791E+03  0.90530275453E+02 0.  0.
        -11    1    1    2    0    0 -0.54080026658E+01 -0.11249619691E+03  0.20527993597E+03  0.23414630666E+03  0.00000000000E+00 0.  1.
         11    1    1    2    0    0 -0.38917689810E+02  0.15756623153E+03 -0.46023580932E+03  0.48801506542E+03  0.00000000000E+00 0. -1.
        -15    1    3    3    0    0 -0.24593759724E+02 -0.11609544800E+02  0.11593349288E+03  0.11909394212E+03  0.17770000000E+01 0.  1.
         15    1    3    3    0    0  0.68919452200E+02 -0.33460489819E+02  0.13902238046E+03  0.15874468580E+03  0.17770000000E+01 0. -1.
</event>
<event>
 7    1  0.6322078E-006  0.5297193E+03  0.7546771E-02  0.9335661E-01
        -11   -1    0    0    0    0  0.00000000000E+00  0.00000000000E+00  0.50000000000E+03  0.50000000000E+03  0.00000000000E+00 0.  1.
         11   -1    0    0    0    0 -0.00000000000E+00 -0.00000000000E+00 -0.50000000000E+03  0.50000000000E+03  0.00000000000E+00 0. -1.
         23    2    1    2    0    0  0.34665709437E+02 -0.45440703725E+02 -0.60115569805E+02  0.11981289216E+03  0.86456222610E+02 0.  0.
        -11    1    1    2    0    0  0.36631879682E+02  0.76404173092E+02  0.46258447670E+03  0.47028065063E+03  0.00000000000E+00 0.  1.
         11    1    1    2    0    0 -0.71297589119E+02 -0.30963469367E+02 -0.40246890689E+03  0.40990645721E+03  0.00000000000E+00 0. -1.
        -15    1    3    3    0    0  0.47485968292E+02 -0.13132077175E+02  0.11920159688E+01  0.49314777365E+02  0.17770000000E+01 0. -1.
         15    1    3    3    0    0 -0.12820258854E+02 -0.32308626550E+02 -0.61307585774E+02  0.70498114791E+02  0.17770000000E+01 0.  1.
</event>
<event>
 7    1  0.6322078E-006  0.5421191E+03  0.7546771E-02  0.9310203E-01
        -11   -1    0    0    0    0  0.00000000000E+00  0.00000000000E+00  0.50000000000E+03  0.50000000000E+03  0.00000000000E+00 0.  1.
         11   -1    0    0    0    0 -0.00000000000E+00 -0.00000000000E+00 -0.50000000000E+03  0.50000000000E+03  0.00000000000E+00 0. -1.
         23    2    1    2    0    0 -0.39314387619E+02  0.32103239290E+02  0.20892335494E+03  0.23331030154E+03  0.90600714776E+02 0.  0.
        -11    1    1    2    0    0  0.14609542829E+03  0.22278664789E+03  0.15615729928E+03  0.30880878673E+03  0.00000000000E+00 0.  1.
         11    1    1    2    0    0 -0.10678104067E+03 -0.25488988718E+03 -0.36508065422E+03  0.45788091172E+03  0.00000000000E+00 0. -1.
        -15    1    3    3    0    0  0.56643882801E+01  0.22029008024E+02  0.38800132446E+01  0.23142487353E+02  0.17770000000E+01 0. -1.
         15    1    3    3    0    0 -0.44978775899E+02  0.10074231267E+02  0.20504334170E+03  0.21016781419E+03  0.17770000000E+01 0.  1.
</event>
<event>
 7    1  0.6322078E-006  0.4648281E+03  0.7546771E-02  0.9482142E-01
        -11   -1    0    0    0    0  0.00000000000E+00  0.00000000000E+00  0.50000000000E+03  0.50000000000E+03  0.00000000000E+00 0.  1.
         11   -1    0    0    0    0 -0.00000000000E+00 -0.00000000000E+00 -0.50000000000E+03  0.50000000000E+03  0.00000000000E+00 0. -1.
         23    2    1    2    0    0  0.24731651268E+03  0.71264337120E+02  0.34608398873E+03  0.43947258289E+03  0.84368007361E+02 0.  0.
        -11    1    1    2    0    0  0.30188237749E+02 -0.45470765994E+02  0.51465593358E+02  0.75017515009E+02  0.00000000000E+00 0.  1.
         11    1    1    2    0    0 -0.27750475042E+03 -0.25793571126E+02 -0.39754958209E+03  0.48550990210E+03  0.00000000000E+00 0. -1.
        -15    1    3    3    0    0  0.30011682575E+02  0.14853515514E+02  0.10414326030E+03  0.10940888633E+03  0.17770000000E+01 0. -1.
         15    1    3    3    0    0  0.21730483010E+03  0.56410821605E+02  0.24194072843E+03  0.33006369655E+03  0.17770000000E+01 0.  1.
</event>
<event>
 7    1  0.6322078E-006  0.5088430E+03  0.7546771E-02  0.9380237E-01
        -11   -1    0    0    0    0  0.00000000000E+00  0.00000000000E+00  0.50000000000E+03  0.50000000000E+03  0.00000000000E+00 0.  1.
         11   -1    0    0    0    0 -0.00000000000E+00 -0.00000000000E+00 -0.50000000000E+03  0.50000000000E+03  0.00000000000E+00 0.  1.
         23    2    1    2    0    0  0.11895569614E+03  0.76572118008E+02  0.46138549470E+03  0.49115703681E+03  0.91350496361E+02 0.  0.
        -11    1    1    2    0    0 -0.12930030478E+03 -0.11686877180E+02 -0.19350449889E+03  0.23302176509E+03  0.00000000000E+00 0.  1.
         11    1    1    2    0    0  0.10344608641E+02 -0.64885240828E+02 -0.26788099581E+03  0.27582119810E+03  0.00000000000E+00 0.  1.
        -15    1    3    3    0    0  0.10792028178E+03  0.21294842586E+02  0.26760742135E+03  0.28933915606E+03  0.17770000000E+01 0.  1.
         15    1    3    3    0    0  0.11035414362E+02  0.55277275422E+02  0.19377807336E+03  0.20181788075E+03  0.17770000000E+01 0. -1.
</event>
<event>
 7    1  0.6322078E-006  0.4731955E+03  0.7546771E-02  0.9461869E-01
        -11   -1    0    0    0    0  0.00000000000E+00  0.00000000000E+00  0.50000000000E+03  0.50000000000E+03  0.00000000000E+00 0. -1.
         11   -1    0    0    0    0 -0.00000000000E+00 -0.00000000000E+00 -0.50000000000E+03  0.50000000000E+03  0.00000000000E+00 0. -1.
         23    2    1    2    0    0 -0.11334723843E+03 -0.16729205061E+02  0.45539017441E+03  0.47579922206E+03  0.76663068040E+02 0.  0.
        -11    1    1    2    0    0  0.38584827030E+02  0.43216146778E+02  0.39442142834E+01  0.58068761358E+02  0.00000000000E+00 0. -1.
         11    1    1    2    0    0  0.74762411399E+02 -0.26486941717E+02 -0.45933438870E+03  0.46613201658E+03  0.00000000000E+00 0. -1.
        -15    1    3    3    0    0 -0.12407262953E+02  0.14608831067E+02  0.19990791503E+02  0.27751533166E+02  0.17770000000E+01 0.  1.
         15    1    3    3    0    0 -0.10093997548E+03 -0.31338036128E+02  0.43539938291E+03  0.44804768890E+03  0.17770000000E+01 0. -1.
</event>
<event>
 7    1  0.6322078E-006  0.4141797E+03  0.7546771E-02  0.9615408E-01
        -11   -1    0    0    0    0  0.00000000000E+00  0.00000000000E+00  0.50000000000E+03  0.50000000000E+03  0.00000000000E+00 0. -1.
         11   -1    0    0    0    0 -0.00000000000E+00 -0.00000000000E+00 -0.50000000000E+03  0.50000000000E+03  0.00000000000E+00 0.  1.
         23    2    1    2    0    0  0.97745973103E+02  0.35955067340E+02  0.81885320518E+02  0.16111298791E+03  0.91679588961E+02 0.  0.
        -11    1    1    2    0    0 -0.11649942834E+03  0.19832674362E+03  0.30753626378E+03  0.38403667478E+03  0.00000000000E+00 0. -1.
         11    1    1    2    0    0  0.18753455241E+02 -0.23428181096E+03 -0.38942158430E+03  0.45485033731E+03  0.00000000000E+00 0.  1.
        -15    1    3    3    0    0  0.97777446388E+02  0.58365021989E+02  0.78641221591E+02  0.13839979869E+03  0.17770000000E+01 0. -1.
         15    1    3    3    0    0 -0.31473284721E-01 -0.22409954649E+02  0.32440989272E+01  0.22713189226E+02  0.17770000000E+01 0.  1.
</event>
<event>
 7    1  0.1182999E-005  0.4647250E+03  0.7546771E-02  0.9482395E-01
        -11   -1    0    0    0    0  0.00000000000E+00  0.00000000000E+00  0.50000000000E+03  0.50000000000E+03  0.00000000000E+00 0.  1.
         11   -1    0    0    0    0 -0.00000000000E+00 -0.00000000000E+00 -0.50000000000E+03  0.50000000000E+03  0.00000000000E+00 0. -1.
         23    2    1    2    0    0  0.46609125820E+02  0.44171702484E+03  0.60479824958E+02  0.46537209233E+03  0.12500813756E+03 0.  0.
        -11    1    1    2    0    0 -0.64545022399E+02 -0.44563837564E+03  0.21320219374E+02  0.45079282771E+03  0.00000000000E+00 0.  1.
         11    1    1    2    0    0  0.17935896579E+02  0.39213508078E+01 -0.81800044332E+02  0.83835079954E+02  0.00000000000E+00 0. -1.
        -15    1    3    3    0    0 -0.20099785797E+02  0.33430442943E+03  0.47196205207E+02  0.33822195736E+03  0.17770000000E+01 0.  1.
         15    1    3    3    0    0  0.66708911617E+02  0.10741259541E+03  0.13283619751E+02  0.12715013497E+03  0.17770000000E+01 0.  1.
</event>
<event>
 7    1  0.6322078E-006  0.3554697E+03  0.7546771E-02  0.9797974E-01
        -11   -1    0    0    0    0  0.00000000000E+00  0.00000000000E+00  0.50000000000E+03  0.50000000000E+03  0.00000000000E+00 0. -1.
         11   -1    0    0    0    0 -0.00000000000E+00 -0.00000000000E+00 -0.50000000000E+03  0.50000000000E+03  0.00000000000E+00 0.  1.
         23    2    1    2    0    0 -0.25785499813E+02  0.60193970803E+02 -0.22475368867E+03  0.25150993153E+03  0.91950089543E+02 0.  0.
        -11    1    1    2    0    0 -0.94636070394E+02 -0.31510785926E+03  0.31194808912E+03  0.45338786826E+03  0.00000000000E+00 0. -1.
         11    1    1    2    0    0  0.12042157021E+03  0.25491388845E+03 -0.87194400450E+02  0.29510220021E+03  0.00000000000E+00 0.  1.
        -15    1    3    3    0    0  0.31500297444E+02  0.12553006846E+02 -0.10600842339E+03  0.11131392670E+03  0.17770000000E+01 0. -1.
         15    1    3    3    0    0 -0.57285797257E+02  0.47640963957E+02 -0.11874526528E+03  0.14019600483E+03  0.17770000000E+01 0.  1.
</event>
<event>
 7    1  0.6322078E-006  0.4415624E+03  0.7546771E-02  0.9540989E-01
        -11   -1    0    0    0    0  0.00000000000E+00  0.00000000000E+00  0.50000000000E+03  0.50000000000E+03  0.00000000000E+00 0.  1.
         11   -1    0    0    0    0 -0.00000000000E+00 -0.00000000000E+00 -0.50000000000E+03  0.50000000000E+03  0.00000000000E+00 0. -1.
         23    2    1    2    0    0  0.69517181470E+02  0.88441394619E+02  0.45549932731E+03  0.47802813826E+03  0.91524559433E+02 0.  0.
        -11    1    1    2    0    0 -0.99874078604E+02 -0.26530672774E+02 -0.57930575231E+02  0.11846796918E+03  0.00000000000E+00 0.  1.
         11    1    1    2    0    0  0.30356897135E+02 -0.61910721844E+02 -0.39756875208E+03  0.40350389257E+03  0.00000000000E+00 0. -1.
        -15    1    3    3    0    0  0.50492066547E+02  0.68327901017E+02  0.43578732357E+03  0.44399538281E+03  0.17770000000E+01 0.  1.
         15    1    3    3    0    0  0.19025114923E+02  0.20113493602E+02  0.19712003741E+02  0.34032755445E+02  0.17770000000E+01 0. -1.
</event>
<event>
 7    1  0.6322078E-006  0.5304078E+03  0.7546771E-02  0.9334228E-01
        -11   -1    0    0    0    0  0.00000000000E+00  0.00000000000E+00  0.50000000000E+03  0.50000000000E+03  0.00000000000E+00 0.  1.
         11   -1    0    0    0    0 -0.00000000000E+00 -0.00000000000E+00 -0.50000000000E+03  0.50000000000E+03  0.00000000000E+00 0.  1.
         23    2    1    2    0    0  0.32078899741E+01 -0.10296688945E+03  0.23028023006E+03  0.26826239556E+03  0.91231889362E+02 0.  0.
        -11    1    1    2    0    0  0.73682866182E+02  0.95105834286E+02  0.23290751209E+03  0.26214536744E+03  0.00000000000E+00 0.  1.
         11    1    1    2    0    0 -0.76890756156E+02  0.78610551605E+01 -0.46318774215E+03  0.46959223700E+03  0.00000000000E+00 0.  1.
        -15    1    3    3    0    0 -0.24669590337E+02 -0.56767164600E+02  0.48558399413E+02  0.78690377726E+02  0.17770000000E+01 0.  1.
         15    1    3    3    0    0  0.27877480311E+02 -0.46199724847E+02  0.18172183064E+03  0.18957201783E+03  0.17770000000E+01 0. -1.
</event>
<event>
 7    1  0.6322078E-006  0.5290528E+03  0.7546771E-02  0.9337050E-01
        -11   -1    0    0    0    0  0.00000000000E+00  0.00000000000E+00  0.50000000000E+03  0.50000000000E+03  0.00000000000E+00 0.  1.
         11   -1    0    0    0    0 -0.00000000000E+00 -0.00000000000E+00 -0.50000000000E+03  0.50000000000E+03  0.00000000000E+00 0. -1.
         23    2    1    2    0    0  0.10197876285E+03 -0.79745528701E+02  0.15704927722E+02  0.16037867591E+03  0.93357685876E+02 0.  0.
        -11    1    1    2    0    0  0.48713917625E+02 -0.34677864197E+03  0.11529160527E+03  0.36867414683E+03  0.00000000000E+00 0.  1.
         11    1    1    2    0    0 -0.15069268047E+03  0.42652417067E+03 -0.13099653300E+03  0.47094717726E+03  0.00000000000E+00 0. -1.
        -15    1    3    3    0    0 -0.10120939630E+02 -0.33527121537E+02 -0.99019963355E+01  0.36437735357E+02  0.17770000000E+01 0. -1.
         15    1    3    3    0    0  0.11209970248E+03 -0.46218407164E+02  0.25606924058E+02  0.12394094055E+03  0.17770000000E+01 0.  1.
</event>
<event>
 7    1  0.6322078E-006  0.3531581E+03  0.7546771E-02  0.9805924E-01
        -11   -1    0    0    0    0  0.00000000000E+00  0.00000000000E+00  0.50000000000E+03  0.50000000000E+03  0.00000000000E+00 0.  1.
         11   -1    0    0    0    0 -0.00000000000E+00 -0.00000000000E+00 -0.50000000000E+03  0.50000000000E+03  0.00000000000E+00 0. -1.
         23    2    1    2    0    0 -0.32397823102E+02 -0.15374942578E+03  0.17929535764E+03  0.25453507236E+03  0.89178320920E+02 0.  0.
        -11    1    1    2    0    0 -0.18253282068E+03  0.18412845733E+03  0.18700716551E+03  0.31967671072E+03  0.00000000000E+00 0.  1.
         11    1    1    2    0    0  0.21493064379E+03 -0.30379031553E+02 -0.36630252315E+03  0.42578821692E+03  0.00000000000E+00 0. -1.
        -15    1    3    3    0    0 -0.48035547147E+02 -0.13832797434E+03  0.11388404459E+03  0.18551219803E+03  0.17770000000E+01 0.  1.
         15    1    3    3    0    0  0.15637724044E+02 -0.15421451437E+02  0.65411313052E+02  0.69022874338E+02  0.17770000000E+01 0. -1.
</event>
<event>
 7    1  0.6322078E-006  0.5216541E+03  0.7546771E-02  0.9352619E-01
        -11   -1    0    0    0    0  0.00000000000E+00  0.00000000000E+00  0.50000000000E+03  0.50000000000E+03  0.00000000000E+00 0. -1.
         11   -1    0    0    0    0 -0.00000000000E+00 -0.00000000000E+00 -0.50000000000E+03  0.50000000000E+03  0.00000000000E+00 0.  1.
         23    2    1    2    0    0 -0.71243913777E+01  0.19861514273E+02  0.88418525898E+02  0.12884405274E+03  0.91311102849E+02 0.  0.
        -11    1    1    2    0    0 -0.10817156373E+03 -0.41734683774E+02  0.37530900506E+03  0.39281003082E+03  0.00000000000E+00 0. -1.
         11    1    1    2    0    0  0.11529595510E+03  0.21873169501E+02 -0.46372753096E+03  0.47834591644E+03  0.00000000000E+00 0.  1.
        -15    1    3    3    0    0 -0.23073047495E+02 -0.28323765063E+02  0.14910857503E+02  0.39498007399E+02  0.17770000000E+01 0. -1.
         15    1    3    3    0    0  0.15948656117E+02  0.48185279336E+02  0.73507668395E+02  0.89346045343E+02  0.17770000000E+01 0.  1.
</event>
<event>
 7    1  0.6322078E-006  0.3709296E+03  0.7546771E-02  0.9746423E-01
        -11   -1    0    0    0    0  0.00000000000E+00  0.00000000000E+00  0.50000000000E+03  0.50000000000E+03  0.00000000000E+00 0.  1.
         11   -1    0    0    0    0 -0.00000000000E+00 -0.00000000000E+00 -0.50000000000E+03  0.50000000000E+03  0.00000000000E+00 0. -1.
         23    2    1    2    0    0 -0.15499104968E+02 -0.17150150092E+03  0.11184083752E+03  0.23024909026E+03  0.10417909367E+03 0.  0.
        -11    1    1    2    0    0 -0.83274701675E+01  0.56484441509E+02  0.31854673429E+03  0.32362302269E+03  0.00000000000E+00 0.  1.
         11    1    1    2    0    0  0.23826575136E+02  0.11501705941E+03 -0.43038757180E+03  0.44612788705E+03  0.00000000000E+00 0. -1.
        -15    1    3    3    0    0 -0.19723316012E+02 -0.15886369336E+02 -0.14954849589E+02  0.29465084090E+02  0.17770000000E+01 0. -1.
         15    1    3    3    0    0  0.42242110438E+01 -0.15561513158E+03  0.12679568710E+03  0.20078400617E+03  0.17770000000E+01 0.  1.
</event>
<event>
 7    1  0.6322078E-006  0.5304410E+03  0.7546771E-02  0.9334159E-01
        -11   -1    0    0    0    0  0.00000000000E+00  0.00000000000E+00  0.50000000000E+03  0.50000000000E+03  0.00000000000E+00 0. -1.
         11   -1    0    0    0    0 -0.00000000000E+00 -0.00000000000E+00 -0.50000000000E+03  0.50000000000E+03  0.00000000000E+00 0.  1.
         23    2    1    2    0    0 -0.12342780353E+03  0.17549117205E+03  0.31764010025E+03  0.39404677418E+03  0.91356733735E+02 0.  0.
        -11    1    1    2    0    0 -0.44783720729E+02  0.12881592506E+03 -0.20648832678E+01  0.13639423718E+03  0.00000000000E+00 0. -1.
         11    1    1    2    0    0  0.16821152426E+03 -0.30430709712E+03 -0.31557521698E+03  0.46955898865E+03  0.00000000000E+00 0.  1.
        -15    1    3    3    0    0 -0.28146186697E+01  0.58242633325E+02  0.44958977124E+02  0.73651841579E+02  0.17770000000E+01 0.  1.
         15    1    3    3    0    0 -0.12061318486E+03  0.11724853873E+03  0.27268112313E+03  0.32039493260E+03  0.17770000000E+01 0. -1.
</event>
<event>
 7    1  0.6322078E-006  0.3740389E+03  0.7546771E-02  0.9736379E-01
        -11   -1    0    0    0    0  0.00000000000E+00  0.00000000000E+00  0.50000000000E+03  0.50000000000E+03  0.00000000000E+00 0.  1.
         11   -1    0    0    0    0 -0.00000000000E+00 -0.00000000000E+00 -0.50000000000E+03  0.50000000000E+03  0.00000000000E+00 0.  1.
         23    2    1    2    0    0  0.13624429498E+02 -0.12846172496E+03  0.15821862523E+03  0.22453779838E+03  0.93252612164E+02 0.  0.
        -11    1    1    2    0    0 -0.28306755908E+02  0.22455974637E+03  0.26079760632E+03  0.34531687416E+03  0.00000000000E+00 0.  1.
         11    1    1    2    0    0  0.14682326410E+02 -0.96098021413E+02 -0.41901623155E+03  0.43014532745E+03  0.00000000000E+00 0.  1.
        -15    1    3    3    0    0 -0.37066213351E+02 -0.53921449907E+02  0.43344315745E+02  0.78506779126E+02  0.17770000000E+01 0. -1.
         15    1    3    3    0    0  0.50690642849E+02 -0.74540275048E+02  0.11487430949E+03  0.14603101926E+03  0.17770000000E+01 0.  1.
</event>
<event>
 7    1  0.6322078E-006  0.3804903E+03  0.7546771E-02  0.9715870E-01
        -11   -1    0    0    0    0  0.00000000000E+00  0.00000000000E+00  0.50000000000E+03  0.50000000000E+03  0.00000000000E+00 0. -1.
         11   -1    0    0    0    0 -0.00000000000E+00 -0.00000000000E+00 -0.50000000000E+03  0.50000000000E+03  0.00000000000E+00 0.  1.
         23    2    1    2    0    0  0.18109829199E+03 -0.36423684179E+01 -0.76160201438E+02  0.21405991475E+03  0.84920036577E+02 0.  0.
        -11    1    1    2    0    0 -0.20298686303E+03  0.54585759651E+02  0.40294995744E+03  0.45447985645E+03  0.00000000000E+00 0. -1.
         11    1    1    2    0    0  0.21888571043E+02 -0.50943391233E+02 -0.32678975600E+03  0.33146022880E+03  0.00000000000E+00 0.  1.
        -15    1    3    3    0    0  0.17780460426E+03  0.13687847040E+02 -0.55372014503E+02  0.18673792376E+03  0.17770000000E+01 0. -1.
         15    1    3    3    0    0  0.32936877304E+01 -0.17330215458E+02 -0.20788186934E+02  0.27321990991E+02  0.17770000000E+01 0.  1.
</event>
<event>
 7    1  0.6322078E-006  0.5227046E+03  0.7546771E-02  0.9350392E-01
        -11   -1    0    0    0    0  0.00000000000E+00  0.00000000000E+00  0.50000000000E+03  0.50000000000E+03  0.00000000000E+00 0. -1.
         11   -1    0    0    0    0 -0.00000000000E+00 -0.00000000000E+00 -0.50000000000E+03  0.50000000000E+03  0.00000000000E+00 0.  1.
         23    2    1    2    0    0 -0.10621730712E+03 -0.57141641697E+02 -0.19919537754E+03  0.24977988975E+03  0.90354365382E+02 0.  0.
        -11    1    1    2    0    0  0.55867411431E+02  0.89667530893E+02  0.46545621998E+03  0.47729542892E+03  0.00000000000E+00 0. -1.
         11    1    1    2    0    0  0.50349895686E+02 -0.32525889195E+02 -0.26626084243E+03  0.27292468132E+03  0.00000000000E+00 0.  1.
        -15    1    3    3    0    0 -0.11187269238E+03 -0.72826319617E+02 -0.17052901161E+03  0.21656978935E+03  0.17770000000E+01 0.  1.
         15    1    3    3    0    0  0.56553852642E+01  0.15684677920E+02 -0.28666365936E+02  0.33210100405E+02  0.17770000000E+01 0. -1.
</event>
<event>
 7    1  0.6322078E-006  0.4676335E+03  0.7546771E-02  0.9475295E-01
        -11   -1    0    0    0    0  0.00000000000E+00  0.00000000000E+00  0.50000000000E+03  0.50000000000E+03  0.00000000000E+00 0. -1.
         11   -1    0    0    0    0 -0.00000000000E+00 -0.00000000000E+00 -0.50000000000E+03  0.50000000000E+03  0.00000000000E+00 0. -1.
         23    2    1    2    0    0 -0.43423137539E+02 -0.55956118554E+02  0.41958225912E+03  0.43520099648E+03  0.91290629799E+02 0.  0.
        -11    1    1    2    0    0 -0.21801267028E+02 -0.23403778167E+02  0.63401247685E+02  0.71012324878E+02  0.00000000000E+00 0. -1.
         11    1    1    2    0    0  0.65224404567E+02  0.79359896721E+02 -0.48298350681E+03  0.49378667864E+03  0.00000000000E+00 0. -1.
        -15    1    3    3    0    0 -0.19149088831E+02 -0.74956668823E+02  0.35851277769E+03  0.36676935437E+03  0.17770000000E+01 0.  1.
         15    1    3    3    0    0 -0.24274048708E+02  0.19000550270E+02  0.61069481429E+02  0.68431642113E+02  0.17770000000E+01 0. -1.
</event>
<event>
 7    1  0.6322078E-006  0.5247980E+03  0.7546771E-02  0.9345970E-01
        -11   -1    0    0    0    0  0.00000000000E+00  0.00000000000E+00  0.50000000000E+03  0.50000000000E+03  0.00000000000E+00 0.  1.
         11   -1    0    0    0    0 -0.00000000000E+00 -0.00000000000E+00 -0.50000000000E+03  0.50000000000E+03  0.00000000000E+00 0.  1.
         23    2    1    2    0    0  0.31200156230E+02  0.12557120909E+03  0.24587824021E+03  0.29260531029E+03  0.91761540414E+02 0.  0.
        -11    1    1    2    0    0 -0.13685898297E+03  0.98296044023E+02  0.15975283699E+03  0.23219272688E+03  0.00000000000E+00 0.  1.
         11    1    1    2    0    0  0.10565882674E+03 -0.22386725311E+03 -0.40563107720E+03  0.47520196283E+03  0.00000000000E+00 0.  1.
        -15    1    3    3    0    0  0.14689350774E+02  0.87927048518E+02  0.73999818173E+02  0.11587093555E+03  0.17770000000E+01 0. -1.
         15    1    3    3    0    0  0.16510805455E+02  0.37644160570E+02  0.17187842204E+03  0.17673437474E+03  0.17770000000E+01 0.  1.
</event>
<event>
 7    1  0.6322078E-006  0.5100452E+03  0.7546771E-02  0.9377609E-01
        -11   -1    0    0    0    0  0.00000000000E+00  0.00000000000E+00  0.50000000000E+03  0.50000000000E+03  0.00000000000E+00 0.  1.
         11   -1    0    0    0    0 -0.00000000000E+00 -0.00000000000E+00 -0.50000000000E+03  0.50000000000E+03  0.00000000000E+00 0. -1.
         23    2    1    2    0    0  0.66627688408E+02  0.69138214123E+02 -0.24606471121E+03  0.27932173725E+03  0.90848496297E+02 0.  0.
        -11    1    1    2    0    0 -0.97083274410E+02 -0.18542523304E+03  0.44299893543E+03  0.48995483058E+03  0.00000000000E+00 0.  1.
         11    1    1    2    0    0  0.30455586001E+02  0.11628701892E+03 -0.19693422421E+03  0.23072343217E+03  0.00000000000E+00 0. -1.
        -15    1    3    3    0    0  0.31519212152E+02  0.35036654097E+02 -0.21764702445E+03  0.22269803063E+03  0.17770000000E+01 0.  1.
         15    1    3    3    0    0  0.35108476256E+02  0.34101560025E+02 -0.28417686763E+02  0.56623706618E+02  0.17770000000E+01 0. -1.
</event>
<event>
 7    1  0.6322078E-006  0.5177696E+03  0.7546771E-02  0.9360904E-01
        -11   -1    0    0    0    0  0.00000000000E+00  0.00000000000E+00  0.50000000000E+03  0.50000000000E+03  0.00000000000E+00 0. -1.
         11   -1    0    0    0    0 -0.00000000000E+00 -0.00000000000E+00 -0.50000000000E+03  0.50000000000E+03  0.00000000000E+00 0.  1.
         23    2    1    2    0    0 -0.38541854294E+02  0.19333236887E+02 -0.13958383813E+03  0.17204991971E+03  0.90875070424E+02 0.  0.
        -11    1    1    2    0    0  0.15289492955E+03 -0.19973468581E+03  0.41143084838E+03  0.48223038809E+03  0.00000000000E+00 0. -1.
         11    1    1    2    0    0 -0.11435307525E+03  0.18040144893E+03 -0.27184701025E+03  0.34571969220E+03  0.00000000000E+00 0.  1.
        -15    1    3    3    0    0 -0.53204678193E+02  0.24370909684E+01 -0.32020291835E+02  0.62170201964E+02  0.17770000000E+01 0. -1.
         15    1    3    3    0    0  0.14662823899E+02  0.16896145919E+02 -0.10756354630E+03  0.10987971775E+03  0.17770000000E+01 0.  1.
</event>
<event>
 7    1  0.6322078E-006  0.5335830E+03  0.7546771E-02  0.9327650E-01
        -11   -1    0    0    0    0  0.00000000000E+00  0.00000000000E+00  0.50000000000E+03  0.50000000000E+03  0.00000000000E+00 0. -1.
         11   -1    0    0    0    0 -0.00000000000E+00 -0.00000000000E+00 -0.50000000000E+03  0.50000000000E+03  0.00000000000E+00 0.  1.
         23    2    1    2    0    0  0.38314480900E+02 -0.22930340719E+02  0.20431414650E+02  0.10199092493E+03  0.89391868144E+02 0.  0.
        -11    1    1    2    0    0  0.11245959603E+03 -0.76456662947E+02  0.40960832231E+03  0.43159212198E+03  0.00000000000E+00 0. -1.
         11    1    1    2    0    0 -0.15077407693E+03  0.99387003666E+02 -0.43003973696E+03  0.46641695310E+03  0.00000000000E+00 0.  1.
        -15    1    3    3    0    0  0.20994079959E+02 -0.29032709281E+02 -0.30961994518E+02  0.47386205114E+02  0.17770000000E+01 0.  1.
         15    1    3    3    0    0  0.17320400941E+02  0.61023685623E+01  0.51393409168E+02  0.54604719812E+02  0.17770000000E+01 0. -1.
</event>
<event>
 7    1  0.6322078E-006  0.3871089E+03  0.7546771E-02  0.9695276E-01
        -11   -1    0    0    0    0  0.00000000000E+00  0.00000000000E+00  0.50000000000E+03  0.50000000000E+03  0.00000000000E+00 0.  1.
         11   -1    0    0    0    0 -0.00000000000E+00 -0.00000000000E+00 -0.50000000000E+03  0.50000000000E+03  0.00000000000E+00 0.  1.
         23    2    1    2    0    0  0.37080102513E+02  0.13908392467E+03  0.29274260781E+03  0.33938942432E+03  0.93635862850E+02 0.  0.
        -11    1    1    2    0    0 -0.10778411576E+03 -0.96335852244E+02  0.15111638732E+03  0.20912717317E+03  0.00000000000E+00 0.  1.
         11    1    1    2    0    0  0.70704013251E+02 -0.42748072421E+02 -0.44385899513E+03  0.45148340251E+03  0.00000000000E+00 0.  1.
        -15    1    3    3    0    0  0.21459053323E+02  0.98296787951E+02  0.27387994364E+03  0.29178096365E+03  0.17770000000E+01 0.  1.
         15    1    3    3    0    0  0.15621049189E+02  0.40787136714E+02  0.18862664172E+02  0.47608460674E+02  0.17770000000E+01 0. -1.
</event>
<event>
 7    1  0.6322078E-006  0.5384792E+03  0.7546771E-02  0.9317601E-01
        -11   -1    0    0    0    0  0.00000000000E+00  0.00000000000E+00  0.50000000000E+03  0.50000000000E+03  0.00000000000E+00 0.  1.
         11   -1    0    0    0    0 -0.00000000000E+00 -0.00000000000E+00 -0.50000000000E+03  0.50000000000E+03  0.00000000000E+00 0. -1.
         23    2    1    2    0    0  0.54096312360E+02  0.40589655535E+02  0.95766319647E+02  0.14844514283E+03  0.91054057045E+02 0.  0.
        -11    1    1    2    0    0 -0.14499758236E+03 -0.66111728614E+02  0.35599364652E+03  0.39003401892E+03  0.00000000000E+00 0.  1.
         11    1    1    2    0    0  0.90901270004E+02  0.25522073079E+02 -0.45175996617E+03  0.46152083825E+03  0.00000000000E+00 0. -1.
        -15    1    3    3    0    0  0.63584242995E+02  0.25349286250E+02  0.21130887465E+02  0.71660410303E+02  0.17770000000E+01 0. -1.
         15    1    3    3    0    0 -0.94879306349E+01  0.15240369284E+02  0.74635432182E+02  0.76784732529E+02  0.17770000000E+01 0.  1.
</event>
<event>
 7    1  0.6322078E-006  0.5134134E+03  0.7546771E-02  0.9370287E-01
        -11   -1    0    0    0    0  0.00000000000E+00  0.00000000000E+00  0.50000000000E+03  0.50000000000E+03  0.00000000000E+00 0. -1.
         11   -1    0    0    0    0 -0.00000000000E+00 -0.00000000000E+00 -0.50000000000E+03  0.50000000000E+03  0.00000000000E+00 0. -1.
         23    2    1    2    0    0  0.84568486889E+02 -0.12241049287E+03 -0.35933739171E+03  0.39897833755E+03  0.89017947697E+02 0.  0.
        -11    1    1    2    0    0 -0.44752251720E+02  0.13202232372E+03  0.46619082914E+03  0.48658662863E+03  0.00000000000E+00 0. -1.
         11    1    1    2    0    0 -0.39816235169E+02 -0.96118308499E+01 -0.10685343743E+03  0.11443503382E+03  0.00000000000E+00 0. -1.
        -15    1    3    3    0    0  0.23439008196E+02  0.11026288268E+02 -0.67128042492E+02  0.71974286769E+02  0.17770000000E+01 0.  1.
         15    1    3    3    0    0  0.61129478693E+02 -0.13343678114E+03 -0.29220934922E+03  0.32700405078E+03  0.17770000000E+01 0. -1.
</event>
<event>
 7    1  0.6322078E-006  0.5123176E+03  0.7546771E-02  0.9372662E-01
        -11   -1    0    0    0    0  0.00000000000E+00  0.00000000000E+00  0.50000000000E+03  0.50000000000E+03  0.00000000000E+00 0.  1.
         11   -1    0    0    0    0 -0.00000000000E+00 -0.00000000000E+00 -0.50000000000E+03  0.50000000000E+03  0.00000000000E+00 0. -1.
         23    2    1    2    0    0 -0.86906938765E+02 -0.73375987097E+02 -0.16724812509E+03  0.22187507495E+03  0.91212729635E+02 0.  0.
        -11    1    1    2    0    0  0.16563627000E+03  0.24606016311E+03  0.38710876175E+03  0.48768244918E+03  0.00000000000E+00 0.  1.
         11    1    1    2    0    0 -0.78729331237E+02 -0.17268417602E+03 -0.21986063665E+03  0.29044247588E+03  0.00000000000E+00 0. -1.
        -15    1    3    3    0    0  0.19457413277E+02 -0.12722657074E+02 -0.25252445657E+02  0.34370054919E+02  0.17770000000E+01 0. -1.
         15    1    3    3    0    0 -0.10636435204E+03 -0.60653330023E+02 -0.14199567944E+03  0.18750502003E+03  0.17770000000E+01 0.  1.
</event>
<event>
 7    1  0.6322078E-006  0.3471984E+03  0.7546771E-02  0.9826723E-01
        -11   -1    0    0    0    0  0.00000000000E+00  0.00000000000E+00  0.50000000000E+03  0.50000000000E+03  0.00000000000E+00 0.  1.
         11   -1    0    0    0    0 -0.00000000000E+00 -0.00000000000E+00 -0.50000000000E+03  0.50000000000E+03  0.00000000000E+00 0.  1.
         23    2    1    2    0    0  0.35217766619E+01  0.71048674158E+01  0.32043344436E+03  0.33263135090E+03  0.88899613525E+02 0.  0.
        -11    1    1    2    0    0 -0.20983704234E+03  0.16335771163E+03 -0.22489819262E+02  0.26687659743E+03  0.00000000000E+00 0.  1.
         11    1    1    2    0    0  0.20631526568E+03 -0.17046257905E+03 -0.29794362510E+03  0.40049205166E+03  0.00000000000E+00 0.  1.
        -15    1    3    3    0    0  0.22561185231E+02  0.42954419207E+02  0.16784224922E+03  0.17472340302E+03  0.17770000000E+01 0.  1.
         15    1    3    3    0    0 -0.19039408569E+02 -0.35849551791E+02  0.15259119514E+03  0.15790794788E+03  0.17770000000E+01 0. -1.
</event>
<event>
 7    1  0.6322078E-006  0.3700237E+03  0.7546771E-02  0.9749369E-01
        -11   -1    0    0    0    0  0.00000000000E+00  0.00000000000E+00  0.50000000000E+03  0.50000000000E+03  0.00000000000E+00 0. -1.
         11   -1    0    0    0    0 -0.00000000000E+00 -0.00000000000E+00 -0.50000000000E+03  0.50000000000E+03  0.00000000000E+00 0.  1.
         23    2    1    2    0    0 -0.32895214134E+03  0.22384041053E+03  0.11444994844E+03  0.42328487996E+03  0.88075298623E+02 0.  0.
        -11    1    1    2    0    0  0.20836767727E+03  0.92100762637E+01  0.10603835122E+03  0.23397873058E+03  0.00000000000E+00 0. -1.
         11    1    1    2    0    0  0.12058446407E+03 -0.23305048680E+03 -0.22048829966E+03  0.34273638946E+03  0.00000000000E+00 0.  1.
        -15    1    3    3    0    0 -0.44748370113E+02  0.69180553023E+02  0.38318448863E+02  0.90883589259E+02  0.17770000000E+01 0.  1.
         15    1    3    3    0    0 -0.28420377123E+03  0.15465985751E+03  0.76131499576E+02  0.33240129070E+03  0.17770000000E+01 0. -1.
</event>
<event>
 7    1  0.6322078E-006  0.5351288E+03  0.7546771E-02  0.9324465E-01
        -11   -1    0    0    0    0  0.00000000000E+00  0.00000000000E+00  0.50000000000E+03  0.50000000000E+03  0.00000000000E+00 0.  1.
         11   -1    0    0    0    0 -0.00000000000E+00 -0.00000000000E+00 -0.50000000000E+03  0.50000000000E+03  0.00000000000E+00 0. -1.
         23    2    1    2    0    0 -0.16562838611E+02  0.48047991676E+02 -0.19750801831E+03  0.22312580272E+03  0.90513918345E+02 0.  0.
        -11    1    1    2    0    0  0.14873236840E+02 -0.33344359961E+03  0.32357287635E+03  0.46487122260E+03  0.00000000000E+00 0.  1.
         11    1    1    2    0    0  0.16896017709E+01  0.28539560793E+03 -0.12606485804E+03  0.31200297468E+03  0.00000000000E+00 0. -1.
        -15    1    3    3    0    0 -0.36396889441E+02 -0.90165210333E+01 -0.42245137401E+02  0.56514074137E+02  0.17770000000E+01 0.  1.
         15    1    3    3    0    0  0.19834050829E+02  0.57064512709E+02 -0.15526288091E+03  0.16661172858E+03  0.17770000000E+01 0. -1.
</event>
<event>
 7    1  0.6322078E-006  0.5190467E+03  0.7546771E-02  0.9358172E-01
        -11   -1    0    0    0    0  0.00000000000E+00  0.00000000000E+00  0.50000000000E+03  0.50000000000E+03  0.00000000000E+00 0. -1.
         11   -1    0    0    0    0 -0.00000000000E+00 -0.00000000000E+00 -0.50000000000E+03  0.50000000000E+03  0.00000000000E+00 0.  1.
         23    2    1    2    0    0  0.71433185213E+01  0.69568043012E+02 -0.77224809105E+02  0.13943127268E+03  0.92664281419E+02 0.  0.
        -11    1    1    2    0    0 -0.21828899315E+02 -0.24146795853E+03  0.41537067605E+03  0.48095329749E+03  0.00000000000E+00 0. -1.
         11    1    1    2    0    0  0.14685580793E+02  0.17189991552E+03 -0.33814586694E+03  0.37961542984E+03  0.00000000000E+00 0.  1.
        -15    1    3    3    0    0 -0.37706944383E+02  0.60548638287E+01 -0.28022638932E+02  0.47401487871E+02  0.17770000000E+01 0.  1.
         15    1    3    3    0    0  0.44850262904E+02  0.63513179184E+02 -0.49202170173E+02  0.92029784805E+02  0.17770000000E+01 0. -1.
</event>
<event>
 7    1  0.6322078E-006  0.4054223E+03  0.7546771E-02  0.9640514E-01
        -11   -1    0    0    0    0  0.00000000000E+00  0.00000000000E+00  0.50000000000E+03  0.50000000000E+03  0.00000000000E+00 0. -1.
         11   -1    0    0    0    0 -0.00000000000E+00 -0.00000000000E+00 -0.50000000000E+03  0.50000000000E+03  0.00000000000E+00 0.  1.
         23    2    1    2    0    0  0.41978004039E+02  0.12420255926E+03 -0.53774418727E+02  0.17686632363E+03  0.10583751592E+03 0.  0.
        -11    1    1    2    0    0  0.21864458754E+02 -0.14297699990E+03  0.42347344338E+03  0.44749327850E+03  0.00000000000E+00 0. -1.
         11    1    1    2    0    0 -0.63842462793E+02  0.18774440644E+02 -0.36969902465E+03  0.37564039786E+03  0.00000000000E+00 0.  1.
        -15    1    3    3    0    0  0.12817570095E+02  0.62382669327E+02  0.28579602844E+02  0.69827207901E+02  0.17770000000E+01 0. -1.
         15    1    3    3    0    0  0.29160433944E+02  0.61819889933E+02 -0.82354021571E+02  0.10703911573E+03  0.17770000000E+01 0.  1.
</event>
<event>
 7    1  0.6322078E-006  0.5155954E+03  0.7546771E-02  0.9365574E-01
        -11   -1    0    0    0    0  0.00000000000E+00  0.00000000000E+00  0.50000000000E+03  0.50000000000E+03  0.00000000000E+00 0.  1.
         11   -1    0    0    0    0 -0.00000000000E+00 -0.00000000000E+00 -0.50000000000E+03  0.50000000000E+03  0.00000000000E+00 0. -1.
         23    2    1    2    0    0  0.62797391295E+02 -0.13268982015E+02  0.28767435378E+03  0.30831694734E+03  0.90461195855E+02 0.  0.
        -11    1    1    2    0    0 -0.49953714791E+02 -0.66035258880E+02  0.19002189764E+03  0.20727843742E+03  0.00000000000E+00 0.  1.
         11    1    1    2    0    0 -0.12843676505E+02  0.79304240894E+02 -0.47769625142E+03  0.48440461524E+03  0.00000000000E+00 0. -1.
        -15    1    3    3    0    0  0.42402041992E+02 -0.27485178923E+02  0.27635537728E+03  0.28094273528E+03  0.17770000000E+01 0.  1.
         15    1    3    3    0    0  0.20395349304E+02  0.14216196908E+02  0.11318976498E+02  0.27374212057E+02  0.17770000000E+01 0. -1.
</event>
<event>
 7    1  0.6322078E-006  0.5339999E+03  0.7546771E-02  0.9326789E-01
        -11   -1    0    0    0    0  0.00000000000E+00  0.00000000000E+00  0.50000000000E+03  0.50000000000E+03  0.00000000000E+00 0.  1.
         11   -1    0    0    0    0 -0.00000000000E+00 -0.00000000000E+00 -0.50000000000E+03  0.50000000000E+03  0.00000000000E+00 0. -1.
         23    2    1    2    0    0  0.63675847478E+02  0.47511900660E+02  0.14589075207E+03  0.18975916871E+03  0.91719334464E+02 0.  0.
        -11    1    1    2    0    0  0.42295779417E+02 -0.18693560581E+03  0.28595078027E+03  0.34424076228E+03  0.00000000000E+00 0.  1.
         11    1    1    2    0    0 -0.10597162689E+03  0.13942370515E+03 -0.43184153234E+03  0.46600006901E+03  0.00000000000E+00 0. -1.
        -15    1    3    3    0    0  0.44890087348E+02  0.31084041411E+02  0.15404488266E+03  0.16344516260E+03  0.17770000000E+01 0.  1.
         15    1    3    3    0    0  0.18785760130E+02  0.16427859249E+02 -0.81541305925E+01  0.26314006116E+02  0.17770000000E+01 0. -1.
</event>
<event>
 7    1  0.6322078E-006  0.5109358E+03  0.7546771E-02  0.9375667E-01
        -11   -1    0    0    0    0  0.00000000000E+00  0.00000000000E+00  0.50000000000E+03  0.50000000000E+03  0.00000000000E+00 0.  1.
         11   -1    0    0    0    0 -0.00000000000E+00 -0.00000000000E+00 -0.50000000000E+03  0.50000000000E+03  0.00000000000E+00 0.  1.
         23    2    1    2    0    0  0.17051463902E+02  0.23319838682E+02  0.27462456617E+03  0.29057245360E+03  0.90438549024E+02 0.  0.
        -11    1    1    2    0    0  0.35679364933E+02  0.88864427637E+02  0.19846942014E+03  0.22036336881E+03  0.00000000000E+00 0.  1.
         11    1    1    2    0    0 -0.52730828835E+02 -0.11218426632E+03 -0.47309398631E+03  0.48906417759E+03  0.00000000000E+00 0.  1.
        -15    1    3    3    0    0  0.16781874053E+02 -0.32529268463E+02  0.78311141654E+02  0.86461420527E+02  0.17770000000E+01 0. -1.
         15    1    3    3    0    0  0.26958984974E+00  0.55849107146E+02  0.19631342452E+03  0.20411103307E+03  0.17770000000E+01 0.  1.
</event>
<event>
 7    1  0.9652803E-006  0.5133926E+03  0.7546771E-02  0.9370331E-01
        -11   -1    0    0    0    0  0.00000000000E+00  0.00000000000E+00  0.50000000000E+03  0.50000000000E+03  0.00000000000E+00 0.  1.
         11   -1    0    0    0    0 -0.00000000000E+00 -0.00000000000E+00 -0.50000000000E+03  0.50000000000E+03  0.00000000000E+00 0.  1.
         23    2    1    2    0    0 -0.47562888654E+02 -0.19475442767E+02 -0.40811181186E+03  0.42023108977E+03  0.86008119275E+02 0.  0.
        -11    1    1    2    0    0  0.50582288962E+02  0.82183594609E+02  0.47694236124E+03  0.48660736444E+03  0.00000000000E+00 0.  1.
         11    1    1    2    0    0 -0.30194003082E+01 -0.62708151842E+02 -0.68830549379E+02  0.93161545788E+02  0.00000000000E+00 0.  1.
        -15    1    3    3    0    0 -0.65567286696E+02  0.76373274232E+01 -0.30596777417E+03  0.31301251479E+03  0.17770000000E+01 0.  1.
         15    1    3    3    0    0  0.18004398043E+02 -0.27112770190E+02 -0.10214403769E+03  0.10721857498E+03  0.17770000000E+01 0. -1.
</event>
<event>
 7    1  0.6322078E-006  0.5211362E+03  0.7546771E-02  0.9353719E-01
        -11   -1    0    0    0    0  0.00000000000E+00  0.00000000000E+00  0.50000000000E+03  0.50000000000E+03  0.00000000000E+00 0. -1.
         11   -1    0    0    0    0 -0.00000000000E+00 -0.00000000000E+00 -0.50000000000E+03  0.50000000000E+03  0.00000000000E+00 0.  1.
         23    2    1    2    0    0 -0.58140324163E+02 -0.11152863379E+02  0.82221115244E+02  0.13608579766E+03  0.90853447256E+02 0.  0.
        -11    1    1    2    0    0 -0.85409196639E+02 -0.12925839635E+03  0.35250724120E+03  0.38505041098E+03  0.00000000000E+00 0. -1.
         11    1    1    2    0    0  0.14354952080E+03  0.14041125973E+03 -0.43472835644E+03  0.47886379136E+03  0.00000000000E+00 0.  1.
        -15    1    3    3    0    0 -0.49103916102E+02  0.26176985211E+02  0.80139563389E+02  0.97580410332E+02  0.17770000000E+01 0. -1.
         15    1    3    3    0    0 -0.90364080610E+01 -0.37329848590E+02  0.20815518543E+01  0.38505387331E+02  0.17770000000E+01 0.  1.
</event>
<event>
 7    1  0.6322078E-006  0.3061660E+03  0.7546771E-02  0.9983258E-01
        -11   -1    0    0    0    0  0.00000000000E+00  0.00000000000E+00  0.50000000000E+03  0.50000000000E+03  0.00000000000E+00 0. -1.
         11   -1    0    0    0    0 -0.00000000000E+00 -0.00000000000E+00 -0.50000000000E+03  0.50000000000E+03  0.00000000000E+00 0. -1.
         23    2    1    2    0    0  0.19391071481E+03 -0.12626869804E+03  0.19516099335E+03  0.31693091228E+03  0.93873534115E+02 0.  0.
        -11    1    1    2    0    0 -0.35192394261E+03 -0.83299793147E+02 -0.98557040890E+01  0.36178232658E+03  0.00000000000E+00 0. -1.
         11    1    1    2    0    0  0.15801322780E+03  0.20956849118E+03 -0.18530528926E+03  0.32128676114E+03  0.00000000000E+00 0. -1.
        -15    1    3    3    0    0  0.91600474672E+02 -0.10951716937E+03  0.13779434402E+03  0.19843159104E+03  0.17770000000E+01 0.  1.
         15    1    3    3    0    0  0.10231024014E+03 -0.16751528664E+02  0.57366649330E+02  0.11849932124E+03  0.17770000000E+01 0. -1.
</event>
<event>
 6    1  0.6322078E-006  0.5071287E+03  0.7546771E-02  0.9383998E-01
        -11   -1    0    0    0    0  0.00000000000E+00  0.00000000000E+00  0.50000000000E+03  0.50000000000E+03  0.00000000000E+00 0.  1.
         11   -1    0    0    0    0 -0.00000000000E+00 -0.00000000000E+00 -0.50000000000E+03  0.50000000000E+03  0.00000000000E+00 0. -1.
        -11    1    1    2    0    0  0.45571350510E+03  0.38594542050E+02  0.11967279605E+03  0.47274296982E+03  0.00000000000E+00 0.  1.
         11    1    1    2    0    0 -0.16352278478E+02  0.14816587234E+01 -0.25328583801E+02  0.30184921424E+02  0.00000000000E+00 0. -1.
        -15    1    1    2    0    0 -0.10733222522E+03 -0.29231302931E+02 -0.12028694944E+03  0.16384988122E+03  0.17770000000E+01 0.  1.
         15    1    1    2    0    0 -0.33202900140E+03 -0.10844897843E+02  0.25942737194E+02  0.33322222753E+03  0.17770000000E+01 0. -1.
</event>
<event>
 7    1  0.6322078E-006  0.5164317E+03  0.7546771E-02  0.9363775E-01
        -11   -1    0    0    0    0  0.00000000000E+00  0.00000000000E+00  0.50000000000E+03  0.50000000000E+03  0.00000000000E+00 0.  1.
         11   -1    0    0    0    0 -0.00000000000E+00 -0.00000000000E+00 -0.50000000000E+03  0.50000000000E+03  0.00000000000E+00 0. -1.
         23    2    1    2    0    0 -0.48490115387E+01 -0.21081828971E+02 -0.22822571328E+03  0.24629130444E+03  0.90024852200E+02 0.  0.
        -11    1    1    2    0    0 -0.96129916020E+01 -0.86205995971E+02  0.47572518381E+03  0.48356833422E+03  0.00000000000E+00 0.  1.
         11    1    1    2    0    0  0.14462003141E+02  0.10728782494E+03 -0.24749947053E+03  0.27014036134E+03  0.00000000000E+00 0. -1.
        -15    1    3    3    0    0 -0.37691600726E+02 -0.16809331959E+01 -0.43277096840E+02  0.57441684703E+02  0.17770000000E+01 0. -1.
         15    1    3    3    0    0  0.32842589187E+02 -0.19400895775E+02 -0.18494861644E+03  0.18884961974E+03  0.17770000000E+01 0.  1.
</event>
<event>
 7    1  0.6322078E-006  0.3571211E+03  0.7546771E-02  0.9792335E-01
        -11   -1    0    0    0    0  0.00000000000E+00  0.00000000000E+00  0.50000000000E+03  0.50000000000E+03  0.00000000000E+00 0. -1.
         11   -1    0    0    0    0 -0.00000000000E+00 -0.00000000000E+00 -0.50000000000E+03  0.50000000000E+03  0.00000000000E+00 0.  1.
         23    2    1    2    0    0  0.10614994184E+03  0.99846168029E+01  0.26815636180E+03  0.30271142056E+03  0.91426839816E+02 0.  0.
        -11    1    1    2    0    0 -0.15651648196E+03  0.13163146788E+03  0.14955389096E+03  0.25335867611E+03  0.00000000000E+00 0. -1.
         11    1    1    2    0    0  0.50366540120E+02 -0.14161608469E+03 -0.41771025276E+03  0.44392990332E+03  0.00000000000E+00 0.  1.
        -15    1    3    3    0    0 -0.41952460928E+01 -0.17114067641E+02  0.92858520294E+01  0.19996904208E+02  0.17770000000E+01 0.  1.
         15    1    3    3    0    0  0.11034518793E+03  0.27098684444E+02  0.25887050977E+03  0.28271451635E+03  0.17770000000E+01 0. -1.
</event>
<event>
 7    1  0.6322078E-006  0.4821451E+03  0.7546771E-02  0.9440672E-01
        -11   -1    0    0    0    0  0.00000000000E+00  0.00000000000E+00  0.50000000000E+03  0.50000000000E+03  0.00000000000E+00 0.  1.
         11   -1    0    0    0    0 -0.00000000000E+00 -0.00000000000E+00 -0.50000000000E+03  0.50000000000E+03  0.00000000000E+00 0.  1.
         23    2    1    2    0    0 -0.69841798469E+02  0.88051344410E+02 -0.43093926293E+03  0.46004569489E+03  0.11533636454E+03 0.  0.
        -11    1    1    2    0    0  0.90254439375E+02 -0.88768874848E+02  0.47489838005E+03  0.49148168669E+03  0.00000000000E+00 0.  1.
         11    1    1    2    0    0 -0.20412640907E+02  0.71753043772E+00 -0.43959117121E+02  0.48472618423E+02  0.00000000000E+00 0.  1.
        -15    1    3    3    0    0 -0.97588735063E+02  0.81941633904E+02 -0.29824073035E+03  0.32432804928E+03  0.17770000000E+01 0.  1.
         15    1    3    3    0    0  0.27746936594E+02  0.61097105056E+01 -0.13269853258E+03  0.13571764562E+03  0.17770000000E+01 0. -1.
</event>
<event>
 7    1  0.6322078E-006  0.3466880E+03  0.7546771E-02  0.9828525E-01
        -11   -1    0    0    0    0  0.00000000000E+00  0.00000000000E+00  0.50000000000E+03  0.50000000000E+03  0.00000000000E+00 0. -1.
         11   -1    0    0    0    0 -0.00000000000E+00 -0.00000000000E+00 -0.50000000000E+03  0.50000000000E+03  0.00000000000E+00 0. -1.
         23    2    1    2    0    0 -0.67844062353E+02 -0.11604459724E+03  0.20612644551E+03  0.26425029878E+03  0.96285738925E+02 0.  0.
        -11    1    1    2    0    0  0.30751191102E+03  0.19409927639E+02  0.11024503578E+03  0.32725263730E+03  0.00000000000E+00 0. -1.
         11    1    1    2    0    0 -0.23966784866E+03  0.96634669606E+02 -0.31637148129E+03  0.40849706392E+03  0.00000000000E+00 0. -1.
        -15    1    3    3    0    0 -0.81197645419E+02 -0.12336309194E+03  0.19762793207E+03  0.24672143672E+03  0.17770000000E+01 0. -1.
         15    1    3    3    0    0  0.13353583066E+02  0.73184946982E+01  0.84985134413E+01  0.17528862058E+02  0.17770000000E+01 0.  1.
</event>
<event>
 7    1  0.6322078E-006  0.3387071E+03  0.7546771E-02  0.9857144E-01
        -11   -1    0    0    0    0  0.00000000000E+00  0.00000000000E+00  0.50000000000E+03  0.50000000000E+03  0.00000000000E+00 0.  1.
         11   -1    0    0    0    0 -0.00000000000E+00 -0.00000000000E+00 -0.50000000000E+03  0.50000000000E+03  0.00000000000E+00 0. -1.
         23    2    1    2    0    0  0.87326951675E+02  0.16931808270E+02  0.24127879045E+03  0.27541871081E+03  0.98627222022E+02 0.  0.
        -11    1    1    2    0    0 -0.20755713062E+03 -0.11000858561E+03  0.16745419654E+03  0.28848355121E+03  0.00000000000E+00 0.  1.
         11    1    1    2    0    0  0.12023017895E+03  0.93076777336E+02 -0.40873298700E+03  0.43609773798E+03  0.00000000000E+00 0. -1.
        -15    1    3    3    0    0  0.53208335159E+02 -0.38156586298E+02  0.94684735724E+02  0.11513213677E+03  0.17770000000E+01 0.  1.
         15    1    3    3    0    0  0.34118616516E+02  0.55088394568E+02  0.14659405473E+03  0.16028657405E+03  0.17770000000E+01 0. -1.
</event>
<event>
 6    1  0.6322078E-006  0.3685274E+03  0.7546771E-02  0.9754254E-01
        -11   -1    0    0    0    0  0.00000000000E+00  0.00000000000E+00  0.50000000000E+03  0.50000000000E+03  0.00000000000E+00 0. -1.
         11   -1    0    0    0    0 -0.00000000000E+00 -0.00000000000E+00 -0.50000000000E+03  0.50000000000E+03  0.00000000000E+00 0.  1.
        -11    1    1    2    0    0 -0.11547292965E+03  0.28104234516E+03  0.25830753235E+03  0.39880017368E+03  0.00000000000E+00 0. -1.
         11    1    1    2    0    0 -0.11959943094E+03 -0.21190170732E+03 -0.39097061302E+02  0.24644459347E+03  0.00000000000E+00 0.  1.
        -15    1    1    2    0    0  0.24610597239E+03 -0.76327578141E+02 -0.18262272750E+03  0.31582949064E+03  0.17770000000E+01 0. -1.
         15    1    1    2    0    0 -0.11033611797E+02  0.71869402966E+01 -0.36587743543E+02  0.38925742211E+02  0.17770000000E+01 0.  1.
</event>
<event>
 7    1  0.6322078E-006  0.5338505E+03  0.7546771E-02  0.9327098E-01
        -11   -1    0    0    0    0  0.00000000000E+00  0.00000000000E+00  0.50000000000E+03  0.50000000000E+03  0.00000000000E+00 0.  1.
         11   -1    0    0    0    0 -0.00000000000E+00 -0.00000000000E+00 -0.50000000000E+03  0.50000000000E+03  0.00000000000E+00 0. -1.
         23    2    1    2    0    0 -0.15055613131E+03 -0.51776994519E+02  0.22097586203E+03  0.28697560811E+03  0.90424898204E+02 0.  0.
        -11    1    1    2    0    0  0.55409603293E+02 -0.14920948935E+03  0.18871541599E+03  0.24687487535E+03  0.00000000000E+00 0.  1.
         11    1    1    2    0    0  0.95146528021E+02  0.20098648386E+03 -0.40969127801E+03  0.46614951654E+03  0.00000000000E+00 0. -1.
        -15    1    3    3    0    0 -0.46115099258E+02  0.34665928194E+01  0.13497451563E+02  0.48207453501E+02  0.17770000000E+01 0. -1.
         15    1    3    3    0    0 -0.10444103206E+03 -0.55243587338E+02  0.20747841046E+03  0.23876815461E+03  0.17770000000E+01 0.  1.
</event>
<event>
 7    1  0.6322078E-006  0.4716241E+03  0.7546771E-02  0.9465642E-01
        -11   -1    0    0    0    0  0.00000000000E+00  0.00000000000E+00  0.50000000000E+03  0.50000000000E+03  0.00000000000E+00 0. -1.
         11   -1    0    0    0    0 -0.00000000000E+00 -0.00000000000E+00 -0.50000000000E+03  0.50000000000E+03  0.00000000000E+00 0. -1.
         23    2    1    2    0    0  0.21576428683E+02 -0.78775255380E+02  0.45816864792E+03  0.47414792819E+03  0.90700963263E+02 0.  0.
        -11    1    1    2    0    0 -0.62481141609E+02  0.10470696286E+02 -0.26285190215E+01  0.63406921150E+02  0.00000000000E+00 0. -1.
         11    1    1    2    0    0  0.40904712925E+02  0.68304559094E+02 -0.45554012890E+03  0.46244515066E+03  0.00000000000E+00 0. -1.
        -15    1    3    3    0    0  0.57079691391E+02 -0.52455191923E+02  0.27593621130E+03  0.28662447342E+03  0.17770000000E+01 0. -1.
         15    1    3    3    0    0 -0.35503262708E+02 -0.26320063457E+02  0.18223243662E+03  0.18752345477E+03  0.17770000000E+01 0.  1.
</event>
<event>
 7    1  0.6322078E-006  0.5232514E+03  0.7546771E-02  0.9349235E-01
        -11   -1    0    0    0    0  0.00000000000E+00  0.00000000000E+00  0.50000000000E+03  0.50000000000E+03  0.00000000000E+00 0. -1.
         11   -1    0    0    0    0 -0.00000000000E+00 -0.00000000000E+00 -0.50000000000E+03  0.50000000000E+03  0.00000000000E+00 0. -1.
         23    2    1    2    0    0 -0.26220501587E+02 -0.15729562228E+03 -0.18378438327E+03  0.25988853155E+03  0.91301269478E+02 0.  0.
        -11    1    1    2    0    0  0.98141674317E+02  0.16318373847E+03  0.43706812509E+03  0.47674864102E+03  0.00000000000E+00 0. -1.
         11    1    1    2    0    0 -0.71921172730E+02 -0.58881161939E+01 -0.25328374183E+03  0.26336282743E+03  0.00000000000E+00 0. -1.
        -15    1    3    3    0    0 -0.48954676679E+02 -0.38300538402E+02 -0.70688498300E+02  0.94146232700E+02  0.17770000000E+01 0. -1.
         15    1    3    3    0    0  0.22734175091E+02 -0.11899508387E+03 -0.11309588497E+03  0.16574229885E+03  0.17770000000E+01 0.  1.
</event>
<event>
 7    1  0.6322078E-006  0.4703882E+03  0.7546771E-02  0.9468620E-01
        -11   -1    0    0    0    0  0.00000000000E+00  0.00000000000E+00  0.50000000000E+03  0.50000000000E+03  0.00000000000E+00 0. -1.
         11   -1    0    0    0    0 -0.00000000000E+00 -0.00000000000E+00 -0.50000000000E+03  0.50000000000E+03  0.00000000000E+00 0. -1.
         23    2    1    2    0    0 -0.88403814309E+02 -0.13333946458E+03 -0.40443613191E+03  0.44416431302E+03  0.90103856556E+02 0.  0.
        -11    1    1    2    0    0  0.83719808091E+02  0.11861235704E+03  0.46821703745E+03  0.49020923254E+03  0.00000000000E+00 0. -1.
         11    1    1    2    0    0  0.46840062180E+01  0.14727107541E+02 -0.63780905542E+02  0.65626454441E+02  0.00000000000E+00 0. -1.
        -15    1    3    3    0    0  0.61002074990E+01 -0.68446726495E+02 -0.16219618400E+03  0.17616164944E+03  0.17770000000E+01 0. -1.
         15    1    3    3    0    0 -0.94504021808E+02 -0.64892738083E+02 -0.24223994791E+03  0.26800266358E+03  0.17770000000E+01 0.  1.
</event>
<event>
 7    1  0.6322078E-006  0.5169217E+03  0.7546771E-02  0.9362722E-01
        -11   -1    0    0    0    0  0.00000000000E+00  0.00000000000E+00  0.50000000000E+03  0.50000000000E+03  0.00000000000E+00 0. -1.
         11   -1    0    0    0    0 -0.00000000000E+00 -0.00000000000E+00 -0.50000000000E+03  0.50000000000E+03  0.00000000000E+00 0. -1.
         23    2    1    2    0    0 -0.44624723803E+02 -0.25954513895E+02 -0.97219986077E+02  0.13755076124E+03  0.82483231381E+02 0.  0.
        -11    1    1    2    0    0  0.15850528361E+03 -0.23168200261E+02  0.45574545560E+03  0.48307826564E+03  0.00000000000E+00 0. -1.
         11    1    1    2    0    0 -0.11388055981E+03  0.49122714156E+02 -0.35852546952E+03  0.37937097312E+03  0.00000000000E+00 0. -1.
        -15    1    3    3    0    0 -0.49227512319E+02 -0.50767707073E+02 -0.61222865716E+02  0.93552686043E+02  0.17770000000E+01 0.  1.
         15    1    3    3    0    0  0.46027885158E+01  0.24813193177E+02 -0.35997120362E+02  0.43998075198E+02  0.17770000000E+01 0. -1.
</event>
<event>
 7    1  0.6322078E-006  0.4287823E+03  0.7546771E-02  0.9574984E-01
        -11   -1    0    0    0    0  0.00000000000E+00  0.00000000000E+00  0.50000000000E+03  0.50000000000E+03  0.00000000000E+00 0.  1.
         11   -1    0    0    0    0 -0.00000000000E+00 -0.00000000000E+00 -0.50000000000E+03  0.50000000000E+03  0.00000000000E+00 0. -1.
         23    2    1    2    0    0 -0.15906082025E+03 -0.91007769923E+02  0.42276762198E+03  0.46992960969E+03  0.92296354957E+02 0.  0.
        -11    1    1    2    0    0  0.11283389634E+03 -0.54171688154E+02 -0.64619238036E+02  0.14086059025E+03  0.00000000000E+00 0.  1.
         11    1    1    2    0    0  0.46226923910E+02  0.14517945808E+03 -0.35814838395E+03  0.38920980007E+03  0.00000000000E+00 0. -1.
        -15    1    3    3    0    0 -0.15567030027E+03 -0.78492232201E+02  0.42225314642E+03  0.45683164327E+03  0.17770000000E+01 0.  1.
         15    1    3    3    0    0 -0.33905199763E+01 -0.12515537722E+02  0.51447556542E+00  0.13097966418E+02  0.17770000000E+01 0. -1.
</event>
<event>
 6    1  0.6322078E-006  0.3870189E+03  0.7546771E-02  0.9695553E-01
        -11   -1    0    0    0    0  0.00000000000E+00  0.00000000000E+00  0.50000000000E+03  0.50000000000E+03  0.00000000000E+00 0.  1.
         11   -1    0    0    0    0 -0.00000000000E+00 -0.00000000000E+00 -0.50000000000E+03  0.50000000000E+03  0.00000000000E+00 0.  1.
        -11    1    1    2    0    0  0.16020211218E+03  0.15846197533E+03  0.16423096041E+03  0.27883099313E+03  0.00000000000E+00 0.  1.
         11    1    1    2    0    0  0.64349743551E+00 -0.62898369193E+02 -0.34235179233E+03  0.34808241645E+03  0.00000000000E+00 0.  1.
        -15    1    1    2    0    0 -0.12382447107E+03  0.80449188464E+02  0.72735382280E+02  0.16461520320E+03  0.17770000000E+01 0. -1.
         15    1    1    2    0    0 -0.37021138542E+02 -0.17601279460E+03  0.10538544964E+03  0.20847138721E+03  0.17770000000E+01 0.  1.
</event>
<event>
 7    1  0.6322078E-006  0.4136728E+03  0.7546771E-02  0.9616843E-01
        -11   -1    0    0    0    0  0.00000000000E+00  0.00000000000E+00  0.50000000000E+03  0.50000000000E+03  0.00000000000E+00 0.  1.
         11   -1    0    0    0    0 -0.00000000000E+00 -0.00000000000E+00 -0.50000000000E+03  0.50000000000E+03  0.00000000000E+00 0. -1.
         23    2    1    2    0    0 -0.70163142109E+02  0.10393097240E+03 -0.50017545176E+02  0.16171191612E+03  0.89019522893E+02 0.  0.
        -11    1    1    2    0    0  0.31247069418E+03 -0.20681498203E+02  0.33261639080E+03  0.45683620973E+03  0.00000000000E+00 0.  1.
         11    1    1    2    0    0 -0.24230755207E+03 -0.83249474196E+02 -0.28259884563E+03  0.38145187415E+03  0.00000000000E+00 0. -1.
        -15    1    3    3    0    0 -0.58833156008E+02  0.11180776270E+03 -0.19076186446E+02  0.12778644163E+03  0.17770000000E+01 0.  1.
         15    1    3    3    0    0 -0.11329986102E+02 -0.78767903020E+01 -0.30941358730E+02  0.33925474493E+02  0.17770000000E+01 0. -1.
</event>
<event>
 7    1  0.6322078E-006  0.5109072E+03  0.7546771E-02  0.9375729E-01
        -11   -1    0    0    0    0  0.00000000000E+00  0.00000000000E+00  0.50000000000E+03  0.50000000000E+03  0.00000000000E+00 0.  1.
         11   -1    0    0    0    0 -0.00000000000E+00 -0.00000000000E+00 -0.50000000000E+03  0.50000000000E+03  0.00000000000E+00 0. -1.
         23    2    1    2    0    0 -0.11785143109E+03 -0.62118406865E+02 -0.27832857726E+03  0.32560626083E+03  0.10394702444E+03 0.  0.
        -11    1    1    2    0    0  0.15837109099E+03  0.57965087214E+02  0.45909736376E+03  0.48909277567E+03  0.00000000000E+00 0.  1.
         11    1    1    2    0    0 -0.40519659899E+02  0.41533196514E+01 -0.18076878650E+03  0.18530096350E+03  0.00000000000E+00 0. -1.
        -15    1    3    3    0    0 -0.59893479670E+02 -0.19296505215E+02 -0.35426548679E+02  0.72234216967E+02  0.17770000000E+01 0.  1.
         15    1    3    3    0    0 -0.57957951420E+02 -0.42821901650E+02 -0.24290202858E+03  0.25337204387E+03  0.17770000000E+01 0. -1.
</event>
<event>
 7    1  0.6322078E-006  0.5376097E+03  0.7546771E-02  0.9319377E-01
        -11   -1    0    0    0    0  0.00000000000E+00  0.00000000000E+00  0.50000000000E+03  0.50000000000E+03  0.00000000000E+00 0.  1.
         11   -1    0    0    0    0 -0.00000000000E+00 -0.00000000000E+00 -0.50000000000E+03  0.50000000000E+03  0.00000000000E+00 0. -1.
         23    2    1    2    0    0 -0.63485637336E+02  0.38622438086E+02  0.11672892784E+03  0.16584781111E+03  0.91420648551E+02 0.  0.
        -11    1    1    2    0    0  0.90790740435E+02 -0.13284901068E+03  0.33513447423E+03  0.37176193189E+03  0.00000000000E+00 0.  1.
         11    1    1    2    0    0 -0.27305103099E+02  0.94226572597E+02 -0.45186340207E+03  0.46239025700E+03  0.00000000000E+00 0. -1.
        -15    1    3    3    0    0 -0.49880208350E+02 -0.78482708020E+01  0.14257912273E+02  0.52498345983E+02  0.17770000000E+01 0. -1.
         15    1    3    3    0    0 -0.13605428986E+02  0.46470708888E+02  0.10247101557E+03  0.11334946512E+03  0.17770000000E+01 0.  1.
</event>
<event>
 7    1  0.6322078E-006  0.4298550E+03  0.7546771E-02  0.9572082E-01
        -11   -1    0    0    0    0  0.00000000000E+00  0.00000000000E+00  0.50000000000E+03  0.50000000000E+03  0.00000000000E+00 0.  1.
         11   -1    0    0    0    0 -0.00000000000E+00 -0.00000000000E+00 -0.50000000000E+03  0.50000000000E+03  0.00000000000E+00 0. -1.
         23    2    1    2    0    0 -0.20158348745E+02 -0.72982877335E+02  0.69373782298E+02  0.13417854979E+03  0.86361462150E+02 0.  0.
        -11    1    1    2    0    0 -0.85512156366E+01  0.27063368573E+03  0.32544763180E+03  0.42335785829E+03  0.00000000000E+00 0.  1.
         11    1    1    2    0    0  0.28709564382E+02 -0.19765080839E+03 -0.39482141409E+03  0.44246359192E+03  0.00000000000E+00 0. -1.
        -15    1    3    3    0    0  0.13557488788E+02 -0.70420987398E+02  0.20292749731E+02  0.74551152835E+02  0.17770000000E+01 0. -1.
         15    1    3    3    0    0 -0.33715837533E+02 -0.25618899367E+01  0.49081032567E+02  0.59627396954E+02  0.17770000000E+01 0.  1.
</event>
<event>
 7    1  0.6322078E-006  0.4173590E+03  0.7546771E-02  0.9606457E-01
        -11   -1    0    0    0    0  0.00000000000E+00  0.00000000000E+00  0.50000000000E+03  0.50000000000E+03  0.00000000000E+00 0.  1.
         11   -1    0    0    0    0 -0.00000000000E+00 -0.00000000000E+00 -0.50000000000E+03  0.50000000000E+03  0.00000000000E+00 0. -1.
         23    2    1    2    0    0 -0.20621763203E+03  0.41231528420E+02  0.32529365949E+03  0.39789430158E+03  0.90984392198E+02 0.  0.
        -11    1    1    2    0    0  0.64997857448E+02  0.13558064307E+03  0.54567849681E+02  0.15995150036E+03  0.00000000000E+00 0.  1.
         11    1    1    2    0    0  0.14121977459E+03 -0.17681217149E+03 -0.37986150917E+03  0.44215419807E+03  0.00000000000E+00 0. -1.
        -15    1    3    3    0    0 -0.58947305816E+02 -0.77155278637E+01  0.16217936127E+03  0.17274147500E+03  0.17770000000E+01 0.  1.
         15    1    3    3    0    0 -0.14727032622E+03  0.48947056284E+02  0.16311429822E+03  0.22515282658E+03  0.17770000000E+01 0. -1.
</event>
<event>
 7    1  0.7496408E-006  0.5075949E+03  0.7546771E-02  0.9382974E-01
        -11   -1    0    0    0    0  0.00000000000E+00  0.00000000000E+00  0.50000000000E+03  0.50000000000E+03  0.00000000000E+00 0. -1.
         11   -1    0    0    0    0 -0.00000000000E+00 -0.00000000000E+00 -0.50000000000E+03  0.50000000000E+03  0.00000000000E+00 0. -1.
         23    2    1    2    0    0 -0.66092792868E+02  0.60607833326E+02 -0.27423110844E+03  0.30306997446E+03  0.92774683281E+02 0.  0.
        -11    1    1    2    0    0  0.97950880537E+02 -0.89705831627E+02  0.47415317117E+03  0.49240505781E+03  0.00000000000E+00 0. -1.
         11    1    1    2    0    0 -0.31858087669E+02  0.29097998301E+02 -0.19992206274E+03  0.20452496773E+03  0.00000000000E+00 0. -1.
        -15    1    3    3    0    0 -0.36601599632E+02 -0.23313603062E+01 -0.19156268107E+03  0.19505007266E+03  0.17770000000E+01 0.  1.
         15    1    3    3    0    0 -0.29491193235E+02  0.62939193632E+02 -0.82668427362E+02  0.10801990180E+03  0.17770000000E+01 0. -1.
</event>
<event>
 7    1  0.6322078E-006  0.5017388E+03  0.7546771E-02  0.9395927E-01
        -11   -1    0    0    0    0  0.00000000000E+00  0.00000000000E+00  0.50000000000E+03  0.50000000000E+03  0.00000000000E+00 0.  1.
         11   -1    0    0    0    0 -0.00000000000E+00 -0.00000000000E+00 -0.50000000000E+03  0.50000000000E+03  0.00000000000E+00 0. -1.
         23    2    1    2    0    0  0.35324882577E+02 -0.90598539639E+02  0.48363179502E+03  0.50173883696E+03  0.91576223141E+02 0.  0.
        -11    1    1    2    0    0 -0.22942653596E+02  0.90634269799E+02 -0.47233807113E+03  0.48150201418E+03  0.00000000000E+00 0. -1.
         11    1    1    2    0    0 -0.12382228981E+02 -0.35730159873E-01 -0.11293723893E+02  0.16759148861E+02  0.00000000000E+00 0.  1.
        -15    1    3    3    0    0  0.17305900742E+02  0.11574646184E+02  0.31134357551E+02  0.37496300937E+02  0.17770000000E+01 0. -1.
         15    1    3    3    0    0  0.18018981835E+02 -0.10217318582E+03  0.45249743747E+03  0.46424253603E+03  0.17770000000E+01 0.  1.
</event>
<event>
 7    1  0.6322078E-006  0.4333305E+03  0.7546771E-02  0.9562743E-01
        -11   -1    0    0    0    0  0.00000000000E+00  0.00000000000E+00  0.50000000000E+03  0.50000000000E+03  0.00000000000E+00 0.  1.
         11   -1    0    0    0    0 -0.00000000000E+00 -0.00000000000E+00 -0.50000000000E+03  0.50000000000E+03  0.00000000000E+00 0. -1.
         23    2    1    2    0    0 -0.87501096896E+00  0.10219977687E+03  0.41575713841E+03  0.43762050429E+03  0.90620900446E+02 0.  0.
        -11    1    1    2    0    0 -0.39559999947E+02  0.11704286029E+03 -0.48448358244E+02  0.13270745328E+03  0.00000000000E+00 0.  1.
         11    1    1    2    0    0  0.40435010916E+02 -0.21924263717E+03 -0.36730878016E+03  0.42967204243E+03  0.00000000000E+00 0. -1.
        -15    1    3    3    0    0 -0.12652085698E+02  0.23496126917E+02  0.18629181974E+02  0.32593671205E+02  0.17770000000E+01 0. -1.
         15    1    3    3    0    0  0.11777074729E+02  0.78703649958E+02  0.39712795643E+03  0.40502683308E+03  0.17770000000E+01 0.  1.
</event>
<event>
 7    1  0.6322078E-006  0.5238241E+03  0.7546771E-02  0.9348025E-01
        -11   -1    0    0    0    0  0.00000000000E+00  0.00000000000E+00  0.50000000000E+03  0.50000000000E+03  0.00000000000E+00 0.  1.
         11   -1    0    0    0    0 -0.00000000000E+00 -0.00000000000E+00 -0.50000000000E+03  0.50000000000E+03  0.00000000000E+00 0.  1.
         23    2    1    2    0    0 -0.13479779408E+03 -0.60762366852E+02  0.31581112558E+03  0.36039747189E+03  0.91033840914E+02 0.  0.
        -11    1    1    2    0    0  0.65856356712E+02 -0.25757610682E+02  0.14733553345E+03  0.16342666136E+03  0.00000000000E+00 0.  1.
         11    1    1    2    0    0  0.68941437370E+02  0.86519977533E+02 -0.46314665903E+03  0.47617586674E+03  0.00000000000E+00 0.  1.
        -15    1    3    3    0    0 -0.98930258575E+02 -0.21842670549E+02  0.11759392548E+03  0.15522817836E+03  0.17770000000E+01 0.  1.
         15    1    3    3    0    0 -0.35867535507E+02 -0.38919696303E+02  0.19821720010E+03  0.20516929353E+03  0.17770000000E+01 0. -1.
</event>
<event>
 7    1  0.6322078E-006  0.3992776E+03  0.7546771E-02  0.9658538E-01
        -11   -1    0    0    0    0  0.00000000000E+00  0.00000000000E+00  0.50000000000E+03  0.50000000000E+03  0.00000000000E+00 0. -1.
         11   -1    0    0    0    0 -0.00000000000E+00 -0.00000000000E+00 -0.50000000000E+03  0.50000000000E+03  0.00000000000E+00 0.  1.
         23    2    1    2    0    0  0.92765907069E+02  0.74752274883E+02  0.40377331117E+03  0.43044070275E+03  0.89737927647E+02 0.  0.
        -11    1    1    2    0    0 -0.23180989711E+03  0.28361558309E+01 -0.30146944158E+03  0.38029948250E+03  0.00000000000E+00 0.  1.
         11    1    1    2    0    0  0.13904399005E+03 -0.77588430714E+02 -0.10230386958E+03  0.18925981475E+03  0.00000000000E+00 0. -1.
        -15    1    3    3    0    0  0.37937957100E+02  0.82286824250E+02  0.20583971195E+03  0.22490788065E+03  0.17770000000E+01 0.  1.
         15    1    3    3    0    0  0.54827949969E+02 -0.75345493670E+01  0.19793359922E+03  0.20553282210E+03  0.17770000000E+01 0. -1.
</event>
<event>
 7    1  0.6322078E-006  0.4388226E+03  0.7546771E-02  0.9548173E-01
        -11   -1    0    0    0    0  0.00000000000E+00  0.00000000000E+00  0.50000000000E+03  0.50000000000E+03  0.00000000000E+00 0. -1.
         11   -1    0    0    0    0 -0.00000000000E+00 -0.00000000000E+00 -0.50000000000E+03  0.50000000000E+03  0.00000000000E+00 0.  1.
         23    2    1    2    0    0 -0.16194457295E+03  0.82512099111E+02  0.35734223953E+03  0.41142702412E+03  0.92436079614E+02 0.  0.
        -11    1    1    2    0    0  0.75211058399E+02 -0.21503653364E+02  0.95518825414E+02  0.12346236844E+03  0.00000000000E+00 0. -1.
         11    1    1    2    0    0  0.86733514554E+02 -0.61008445747E+02 -0.45286106495E+03  0.46511060743E+03  0.00000000000E+00 0.  1.
        -15    1    3    3    0    0 -0.14880420958E+03  0.33871282951E+02  0.25139901356E+03  0.29409960616E+03  0.17770000000E+01 0. -1.
         15    1    3    3    0    0 -0.13140363374E+02  0.48640816159E+02  0.10594322597E+03  0.11732741796E+03  0.17770000000E+01 0.  1.
</event>
<event>
 7    1  0.6322078E-006  0.5415936E+03  0.7546771E-02  0.9311267E-01
        -11   -1    0    0    0    0  0.00000000000E+00  0.00000000000E+00  0.50000000000E+03  0.50000000000E+03  0.00000000000E+00 0. -1.
         11   -1    0    0    0    0 -0.00000000000E+00 -0.00000000000E+00 -0.50000000000E+03  0.50000000000E+03  0.00000000000E+00 0.  1.
         23    2    1    2    0    0  0.14742359460E+03 -0.86655929569E+01  0.16042646447E+03  0.23580383130E+03  0.89766294381E+02 0.  0.
        -11    1    1    2    0    0 -0.85040464351E+02 -0.35958269478E+02  0.29151762072E+03  0.30578979857E+03  0.00000000000E+00 0. -1.
         11    1    1    2    0    0 -0.62383130252E+02  0.44623862435E+02 -0.45194408519E+03  0.45840637013E+03  0.00000000000E+00 0.  1.
        -15    1    3    3    0    0  0.10603023159E+03  0.25294964690E+02  0.66578997555E+02  0.12774257667E+03  0.17770000000E+01 0.  1.
         15    1    3    3    0    0  0.41393363012E+02 -0.33960557647E+02  0.93847466911E+02  0.10806125463E+03  0.17770000000E+01 0. -1.
</event>
<event>
 7    1  0.6322078E-006  0.3549155E+03  0.7546771E-02  0.9799874E-01
        -11   -1    0    0    0    0  0.00000000000E+00  0.00000000000E+00  0.50000000000E+03  0.50000000000E+03  0.00000000000E+00 0.  1.
         11   -1    0    0    0    0 -0.00000000000E+00 -0.00000000000E+00 -0.50000000000E+03  0.50000000000E+03  0.00000000000E+00 0. -1.
         23    2    1    2    0    0 -0.58030408061E+01  0.15374818380E+03  0.25670030144E+03  0.31266444005E+03  0.90508717872E+02 0.  0.
        -11    1    1    2    0    0 -0.85148961619E+02 -0.17772615436E+03  0.16391598245E+03  0.25633060860E+03  0.00000000000E+00 0.  1.
         11    1    1    2    0    0  0.90952002425E+02  0.23977970553E+02 -0.42061628388E+03  0.43100495134E+03  0.00000000000E+00 0. -1.
        -15    1    3    3    0    0 -0.40647332402E+02  0.11384198338E+03  0.14327950141E+03  0.18746833349E+03  0.17770000000E+01 0.  1.
         15    1    3    3    0    0  0.34844291596E+02  0.39906200427E+02  0.11342080003E+03  0.12519610656E+03  0.17770000000E+01 0. -1.
</event>
<event>
 7    1  0.6322078E-006  0.3474448E+03  0.7546771E-02  0.9825854E-01
        -11   -1    0    0    0    0  0.00000000000E+00  0.00000000000E+00  0.50000000000E+03  0.50000000000E+03  0.00000000000E+00 0. -1.
         11   -1    0    0    0    0 -0.00000000000E+00 -0.00000000000E+00 -0.50000000000E+03  0.50000000000E+03  0.00000000000E+00 0.  1.
         23    2    1    2    0    0 -0.90256200216E+02  0.13416848531E+03  0.34233897642E+03  0.38945438456E+03  0.91276386605E+02 0.  0.
        -11    1    1    2    0    0  0.19362260775E+02 -0.26429301759E+03 -0.32361786676E+02  0.26697000117E+03  0.00000000000E+00 0. -1.
         11    1    1    2    0    0  0.70893939441E+02  0.13012453229E+03 -0.30997718975E+03  0.34357561426E+03  0.00000000000E+00 0.  1.
        -15    1    3    3    0    0 -0.24904772087E+02  0.47956732898E+02  0.37007308048E+02  0.65519420639E+02  0.17770000000E+01 0.  1.
         15    1    3    3    0    0 -0.65351428129E+02  0.86211752409E+02  0.30533166837E+03  0.32393496393E+03  0.17770000000E+01 0. -1.
</event>
<event>
 7    1  0.6322078E-006  0.5179880E+03  0.7546771E-02  0.9360436E-01
        -11   -1    0    0    0    0  0.00000000000E+00  0.00000000000E+00  0.50000000000E+03  0.50000000000E+03  0.00000000000E+00 0.  1.
         11   -1    0    0    0    0 -0.00000000000E+00 -0.00000000000E+00 -0.50000000000E+03  0.50000000000E+03  0.00000000000E+00 0. -1.
         23    2    1    2    0    0  0.79370997282E+02  0.29215840200E+02  0.27160344903E+03  0.29883839585E+03  0.91556718905E+02 0.  0.
        -11    1    1    2    0    0 -0.25160290788E+02  0.11409472348E+03  0.18540736020E+03  0.21914957306E+03  0.00000000000E+00 0.  1.
         11    1    1    2    0    0 -0.54210706494E+02 -0.14331056368E+03 -0.45701080923E+03  0.48201203109E+03  0.00000000000E+00 0. -1.
        -15    1    3    3    0    0  0.56210255806E+02  0.41390816545E+02  0.26161658417E+03  0.27077516023E+03  0.17770000000E+01 0.  1.
         15    1    3    3    0    0  0.23160741477E+02 -0.12174976344E+02  0.99868648610E+01  0.28063235620E+02  0.17770000000E+01 0. -1.
</event>
<event>
 7    1  0.6322078E-006  0.5122019E+03  0.7546771E-02  0.9372914E-01
        -11   -1    0    0    0    0  0.00000000000E+00  0.00000000000E+00  0.50000000000E+03  0.50000000000E+03  0.00000000000E+00 0. -1.
         11   -1    0    0    0    0 -0.00000000000E+00 -0.00000000000E+00 -0.50000000000E+03  0.50000000000E+03  0.00000000000E+00 0. -1.
         23    2    1    2    0    0 -0.67988907736E+02 -0.23905800935E+03  0.16130309912E+03  0.30966702413E+03  0.90020845584E+02 0.  0.
        -11    1    1    2    0    0  0.19217967853E+03  0.36939140353E+03 -0.25409440696E+03  0.48779811961E+03  0.00000000000E+00 0. -1.
         11    1    1    2    0    0 -0.12419077079E+03 -0.13033339419E+03  0.92791307845E+02  0.20253485626E+03  0.00000000000E+00 0. -1.
        -15    1    3    3    0    0 -0.48709862835E+02 -0.23987821028E+03  0.14638871673E+03  0.28521399092E+03  0.17770000000E+01 0. -1.
         15    1    3    3    0    0 -0.19279044901E+02  0.82020093249E+00  0.14914382392E+02  0.24453033206E+02  0.17770000000E+01 0.  1.
</event>
<event>
 7    1  0.6322078E-006  0.4533023E+03  0.7546771E-02  0.9510825E-01
        -11   -1    0    0    0    0  0.00000000000E+00  0.00000000000E+00  0.50000000000E+03  0.50000000000E+03  0.00000000000E+00 0.  1.
         11   -1    0    0    0    0 -0.00000000000E+00 -0.00000000000E+00 -0.50000000000E+03  0.50000000000E+03  0.00000000000E+00 0. -1.
         23    2    1    2    0    0 -0.11453457753E+03 -0.17121887367E+02  0.43448930883E+03  0.45873853846E+03  0.90822677293E+02 0.  0.
        -11    1    1    2    0    0  0.37794381575E+02 -0.89089908175E+02 -0.10331923796E+02  0.97325102962E+02  0.00000000000E+00 0.  1.
         11    1    1    2    0    0  0.76740195951E+02  0.10621179554E+03 -0.42415738503E+03  0.44393635857E+03  0.00000000000E+00 0. -1.
        -15    1    3    3    0    0 -0.10094761167E+03  0.24030721157E+02  0.30949189268E+03  0.32642960225E+03  0.17770000000E+01 0. -1.
         15    1    3    3    0    0 -0.13586965854E+02 -0.41152608524E+02  0.12499741615E+03  0.13230893621E+03  0.17770000000E+01 0.  1.
</event>
<event>
 7    1  0.6322078E-006  0.5113379E+03  0.7546771E-02  0.9374792E-01
        -11   -1    0    0    0    0  0.00000000000E+00  0.00000000000E+00  0.50000000000E+03  0.50000000000E+03  0.00000000000E+00 0. -1.
         11   -1    0    0    0    0 -0.00000000000E+00 -0.00000000000E+00 -0.50000000000E+03  0.50000000000E+03  0.00000000000E+00 0.  1.
         23    2    1    2    0    0  0.79597367121E+02 -0.12105727624E+03  0.17738242176E+03  0.24663824481E+03  0.91516639316E+02 0.  0.
        -11    1    1    2    0    0  0.78626423207E+02 -0.19760169340E+03  0.15759871142E+03  0.26469963639E+03  0.00000000000E+00 0. -1.
         11    1    1    2    0    0 -0.15822379033E+03  0.31865896964E+03 -0.33498113318E+03  0.48866211880E+03  0.00000000000E+00 0.  1.
        -15    1    3    3    0    0  0.26187025037E+02 -0.47110303778E+02  0.83722281629E+01  0.54574654701E+02  0.17770000000E+01 0.  1.
         15    1    3    3    0    0  0.53410342084E+02 -0.73946972462E+02  0.16901019360E+03  0.19206359011E+03  0.17770000000E+01 0. -1.
</event>
<event>
 7    1  0.6322078E-006  0.5238196E+03  0.7546771E-02  0.9348034E-01
        -11   -1    0    0    0    0  0.00000000000E+00  0.00000000000E+00  0.50000000000E+03  0.50000000000E+03  0.00000000000E+00 0. -1.
         11   -1    0    0    0    0 -0.00000000000E+00 -0.00000000000E+00 -0.50000000000E+03  0.50000000000E+03  0.00000000000E+00 0.  1.
         23    2    1    2    0    0 -0.13503248703E+03 -0.14170620729E+02 -0.30777352565E+03  0.35007033009E+03  0.96902599917E+02 0.  0.
        -11    1    1    2    0    0  0.74689448527E+02  0.40847107270E+02  0.46850904797E+03  0.47618035231E+03  0.00000000000E+00 0. -1.
         11    1    1    2    0    0  0.60343038505E+02 -0.26676486541E+02 -0.16073552232E+03  0.17374931760E+03  0.00000000000E+00 0.  1.
        -15    1    3    3    0    0 -0.90940203274E+02 -0.13591136890E+02 -0.92941073696E+02  0.13075182784E+03  0.17770000000E+01 0. -1.
         15    1    3    3    0    0 -0.44092283758E+02 -0.57948383912E+00 -0.21483245195E+03  0.21931850225E+03  0.17770000000E+01 0.  1.
</event>
<event>
 7    1  0.6322078E-006  0.3839691E+03  0.7546771E-02  0.9704990E-01
        -11   -1    0    0    0    0  0.00000000000E+00  0.00000000000E+00  0.50000000000E+03  0.50000000000E+03  0.00000000000E+00 0.  1.
         11   -1    0    0    0    0 -0.00000000000E+00 -0.00000000000E+00 -0.50000000000E+03  0.50000000000E+03  0.00000000000E+00 0.  1.
         23    2    1    2    0    0  0.18164189052E+02 -0.13206182629E+03  0.41803997300E+03  0.44837828304E+03  0.92278935561E+02 0.  0.
        -11    1    1    2    0    0 -0.86828123363E+02  0.17342040062E+03 -0.89777571016E+02  0.21371422652E+03  0.00000000000E+00 0.  1.
         11    1    1    2    0    0  0.68663934311E+02 -0.41358574335E+02 -0.32826240198E+03  0.33790749045E+03  0.00000000000E+00 0.  1.
        -15    1    3    3    0    0 -0.18097463552E+02  0.29416093433E+01  0.88742552703E+02  0.90634263068E+02  0.17770000000E+01 0. -1.
         15    1    3    3    0    0  0.36261652604E+02 -0.13500343563E+03  0.32929742029E+03  0.35774401997E+03  0.17770000000E+01 0.  1.
</event>
<event>
 7    1  0.6322078E-006  0.5331256E+03  0.7546771E-02  0.9328594E-01
        -11   -1    0    0    0    0  0.00000000000E+00  0.00000000000E+00  0.50000000000E+03  0.50000000000E+03  0.00000000000E+00 0.  1.
         11   -1    0    0    0    0 -0.00000000000E+00 -0.00000000000E+00 -0.50000000000E+03  0.50000000000E+03  0.00000000000E+00 0. -1.
         23    2    1    2    0    0  0.42459532946E+02 -0.35352475245E+02 -0.34431378205E+02  0.11134825763E+03  0.90334407781E+02 0.  0.
        -11    1    1    2    0    0 -0.48325546867E+02  0.13637674347E+03  0.44388932595E+03  0.46687440317E+03  0.00000000000E+00 0.  1.
         11    1    1    2    0    0  0.58660139208E+01 -0.10102426823E+03 -0.40945794775E+03  0.42177733920E+03  0.00000000000E+00 0. -1.
        -15    1    3    3    0    0  0.65047167804E+02 -0.32900342221E+01 -0.12383821054E+02  0.66321000576E+02  0.17770000000E+01 0.  1.
         15    1    3    3    0    0 -0.22587634858E+02 -0.32062441023E+02 -0.22047557150E+02  0.45027257058E+02  0.17770000000E+01 0. -1.
</event>
