<event>
 6    1  0.8353910E-003  0.1876931E+03  0.7546771E-02  0.1064395E+00
        -11   -1    0    0    0    0  0.00000000000E+00  0.00000000000E+00  0.18250000000E+03  0.18250000000E+03  0.00000000000E+00 0.  1.
         11   -1    0    0    0    0 -0.00000000000E+00 -0.00000000000E+00 -0.18250000000E+03  0.18250000000E+03  0.00000000000E+00 0.  1.
        -11    1    1    2    0    0  0.67338582407E+01  0.33008232052E+00  0.17717866882E+03  0.17730689351E+03  0.00000000000E+00 0.  1.
         11    1    1    2    0    0 -0.54597018380E+01  0.21100368599E+01 -0.17251701331E+03  0.17261628104E+03  0.00000000000E+00 0.  1.
        -15    1    1    2    0    0  0.47039854406E+01  0.20013026892E+01 -0.50612390967E+01  0.74098961985E+01  0.17770000000E+01 0.  1.
         15    1    1    2    0    0 -0.59781418433E+01 -0.44414218696E+01  0.39958358259E+00  0.76669292525E+01  0.17770000000E+01 0. -1.
</event>
<event>
 6    1  0.8353910E-003  0.1836347E+03  0.7546771E-02  0.1067555E+00
        -11   -1    0    0    0    0  0.00000000000E+00  0.00000000000E+00  0.18250000000E+03  0.18250000000E+03  0.00000000000E+00 0.  1.
         11   -1    0    0    0    0 -0.00000000000E+00 -0.00000000000E+00 -0.18250000000E+03  0.18250000000E+03  0.00000000000E+00 0. -1.
        -11    1    1    2    0    0  0.21054090915E+01  0.82545706387E+00  0.53555496900E+02  0.53603221685E+02  0.00000000000E+00 0.  1.
         11    1    1    2    0    0  0.54382885493E+01  0.24087572581E+01 -0.18126770270E+03  0.18136525890E+03  0.00000000000E+00 0. -1.
        -15    1    1    2    0    0 -0.11199142894E+02 -0.28286503242E+01  0.12388180823E+03  0.12443183758E+03  0.17770000000E+01 0.  1.
         15    1    1    2    0    0  0.36554452531E+01 -0.40556399773E+00  0.38303975690E+01  0.55996818384E+01  0.17770000000E+01 0. -1.
</event>
<event>
 6    1  0.8353910E-003  0.1828671E+03  0.7546771E-02  0.1068163E+00
        -11   -1    0    0    0    0  0.00000000000E+00  0.00000000000E+00  0.18250000000E+03  0.18250000000E+03  0.00000000000E+00 0.  1.
         11   -1    0    0    0    0 -0.00000000000E+00 -0.00000000000E+00 -0.18250000000E+03  0.18250000000E+03  0.00000000000E+00 0.  1.
        -11    1    1    2    0    0 -0.21991137530E-01 -0.90322771578E+00  0.12961955244E+02  0.12993405546E+02  0.00000000000E+00 0.  1.
         11    1    1    2    0    0  0.95563163785E+00  0.32915002013E+01 -0.18210060362E+03  0.18213285548E+03  0.00000000000E+00 0.  1.
        -15    1    1    2    0    0 -0.63339232279E+01 -0.53780862551E+00  0.35945332144E+02  0.36546305607E+02  0.17770000000E+01 0. -1.
         15    1    1    2    0    0  0.54002827276E+01 -0.18504638600E+01  0.13319331623E+03  0.13332743337E+03  0.17770000000E+01 0.  1.
</event>
<event>
 6    1  0.8353910E-003  0.1758135E+03  0.7546771E-02  0.1073905E+00
        -11   -1    0    0    0    0  0.00000000000E+00  0.00000000000E+00  0.18250000000E+03  0.18250000000E+03  0.00000000000E+00 0. -1.
         11   -1    0    0    0    0 -0.00000000000E+00 -0.00000000000E+00 -0.18250000000E+03  0.18250000000E+03  0.00000000000E+00 0.  1.
        -11    1    1    2    0    0 -0.23240800410E+01 -0.57664089447E+00  0.17482305944E+03  0.17483945772E+03  0.00000000000E+00 0. -1.
         11    1    1    2    0    0 -0.22842079711E+01  0.33873965524E+01 -0.17678716140E+03  0.17683436459E+03  0.00000000000E+00 0.  1.
        -15    1    1    2    0    0  0.36132684066E+01  0.25479867229E+01  0.49429346860E+01  0.68657320970E+01  0.17770000000E+01 0.  1.
         15    1    1    2    0    0  0.99501960548E+00 -0.53587423809E+01 -0.29788327259E+01  0.64604455983E+01  0.17770000000E+01 0. -1.
</event>
<event>
 6    1  0.8353910E-003  0.1828476E+03  0.7546771E-02  0.1068178E+00
        -11   -1    0    0    0    0  0.00000000000E+00  0.00000000000E+00  0.18250000000E+03  0.18250000000E+03  0.00000000000E+00 0.  1.
         11   -1    0    0    0    0 -0.00000000000E+00 -0.00000000000E+00 -0.18250000000E+03  0.18250000000E+03  0.00000000000E+00 0.  1.
        -11    1    1    2    0    0  0.25186602548E+01  0.18815712406E+01  0.16031647207E+03  0.16034729550E+03  0.00000000000E+00 0.  1.
         11    1    1    2    0    0  0.10624935736E+01 -0.36414034520E+01 -0.18211288108E+03  0.18215238172E+03  0.00000000000E+00 0.  1.
        -15    1    1    2    0    0 -0.21281262223E+01  0.25113583398E+00  0.12520650516E+02  0.12826395002E+02  0.17770000000E+01 0. -1.
         15    1    1    2    0    0 -0.14530276061E+01  0.15086963774E+01  0.92757584937E+01  0.96739277760E+01  0.17770000000E+01 0.  1.
</event>
<event>
 6    1  0.8353910E-003  0.1826586E+03  0.7546771E-02  0.1068329E+00
        -11   -1    0    0    0    0  0.00000000000E+00  0.00000000000E+00  0.18250000000E+03  0.18250000000E+03  0.00000000000E+00 0.  1.
         11   -1    0    0    0    0 -0.00000000000E+00 -0.00000000000E+00 -0.18250000000E+03  0.18250000000E+03  0.00000000000E+00 0.  1.
        -11    1    1    2    0    0 -0.15511182707E+01  0.10170033555E+01  0.17590964655E+02  0.17688479335E+02  0.00000000000E+00 0.  1.
         11    1    1    2    0    0 -0.37782841943E+01  0.18500239487E+01 -0.18229284839E+03  0.18234138475E+03  0.00000000000E+00 0.  1.
        -15    1    1    2    0    0  0.45903033611E+01 -0.35964793853E+01  0.75906738159E+02  0.76151140345E+02  0.17770000000E+01 0.  1.
         15    1    1    2    0    0  0.73909910386E+00  0.72945208112E+00  0.88795145572E+02  0.88818995570E+02  0.17770000000E+01 0. -1.
</event>
<event>
 6    1  0.8353910E-003  0.1840578E+03  0.7546771E-02  0.1067221E+00
        -11   -1    0    0    0    0  0.00000000000E+00  0.00000000000E+00  0.18250000000E+03  0.18250000000E+03  0.00000000000E+00 0. -1.
         11   -1    0    0    0    0 -0.00000000000E+00 -0.00000000000E+00 -0.18250000000E+03  0.18250000000E+03  0.00000000000E+00 0. -1.
        -11    1    1    2    0    0  0.23544052516E+01 -0.41812439733E+00  0.92593165156E+02  0.92624037300E+02  0.00000000000E+00 0. -1.
         11    1    1    2    0    0  0.37608744014E+00  0.24432096995E+01 -0.18092527802E+03  0.18094216463E+03  0.00000000000E+00 0. -1.
        -15    1    1    2    0    0 -0.11601384943E+02 -0.52678417109E+01  0.36073411395E+02  0.38298707910E+02  0.17770000000E+01 0.  1.
         15    1    1    2    0    0  0.88708922515E+01  0.32427564087E+01  0.52258701466E+02  0.53135090161E+02  0.17770000000E+01 0. -1.
</event>
<event>
 6    1  0.8353910E-003  0.1848459E+03  0.7546771E-02  0.1066603E+00
        -11   -1    0    0    0    0  0.00000000000E+00  0.00000000000E+00  0.18250000000E+03  0.18250000000E+03  0.00000000000E+00 0.  1.
         11   -1    0    0    0    0 -0.00000000000E+00 -0.00000000000E+00 -0.18250000000E+03  0.18250000000E+03  0.00000000000E+00 0. -1.
        -11    1    1    2    0    0 -0.23401470046E+01 -0.22117477532E+01  0.18012529615E+03  0.18015407414E+03  0.00000000000E+00 0.  1.
         11    1    1    2    0    0 -0.51300071120E+01  0.88383409306E+01 -0.15489466697E+03  0.15523141145E+03  0.00000000000E+00 0. -1.
        -15    1    1    2    0    0  0.74665146819E+01  0.19073899469E+00 -0.84605662735E+01  0.11424715906E+02  0.17770000000E+01 0. -1.
         15    1    1    2    0    0  0.36394347586E-02 -0.68173321720E+01 -0.16770062901E+02  0.18189798511E+02  0.17770000000E+01 0.  1.
</event>
<event>
 6    1  0.8353910E-003  0.1834294E+03  0.7546771E-02  0.1067717E+00
        -11   -1    0    0    0    0  0.00000000000E+00  0.00000000000E+00  0.18250000000E+03  0.18250000000E+03  0.00000000000E+00 0. -1.
         11   -1    0    0    0    0 -0.00000000000E+00 -0.00000000000E+00 -0.18250000000E+03  0.18250000000E+03  0.00000000000E+00 0. -1.
        -11    1    1    2    0    0 -0.50991414291E+01 -0.30986688971E+01  0.18147255123E+03  0.18157061943E+03  0.00000000000E+00 0. -1.
         11    1    1    2    0    0  0.16863684273E+01 -0.87232086859E+00 -0.55606681157E+02  0.55639084926E+02  0.00000000000E+00 0. -1.
        -15    1    1    2    0    0  0.81516274633E+01  0.12883014773E+01 -0.19238744540E+02  0.21009421017E+02  0.17770000000E+01 0. -1.
         15    1    1    2    0    0 -0.47388544615E+01  0.26826882884E+01 -0.10662712553E+03  0.10678087463E+03  0.17770000000E+01 0. -1.
</event>
<event>
 6    1  0.8353910E-003  0.1884663E+03  0.7546771E-02  0.1063802E+00
        -11   -1    0    0    0    0  0.00000000000E+00  0.00000000000E+00  0.18250000000E+03  0.18250000000E+03  0.00000000000E+00 0. -1.
         11   -1    0    0    0    0 -0.00000000000E+00 -0.00000000000E+00 -0.18250000000E+03  0.18250000000E+03  0.00000000000E+00 0. -1.
        -11    1    1    2    0    0 -0.18850116001E+00  0.27687088317E+01  0.17651187863E+03  0.17653369248E+03  0.00000000000E+00 0. -1.
         11    1    1    2    0    0 -0.11192383573E+02 -0.92066324369E+01 -0.15437513582E+03  0.15505390705E+03  0.00000000000E+00 0. -1.
        -15    1    1    2    0    0  0.30414845158E+01  0.36412299461E+01 -0.23759201320E+02  0.24293343943E+02  0.17770000000E+01 0. -1.
         15    1    1    2    0    0  0.83394002176E+01  0.27966936591E+01  0.16224585081E+01  0.91190565314E+01  0.17770000000E+01 0.  1.
</event>
<event>
 6    1  0.8353910E-003  0.1839852E+03  0.7546771E-02  0.1067279E+00
        -11   -1    0    0    0    0  0.00000000000E+00  0.00000000000E+00  0.18250000000E+03  0.18250000000E+03  0.00000000000E+00 0.  1.
         11   -1    0    0    0    0 -0.00000000000E+00 -0.00000000000E+00 -0.18250000000E+03  0.18250000000E+03  0.00000000000E+00 0.  1.
        -11    1    1    2    0    0 -0.38623032351E+00 -0.33368253099E+01  0.14718815990E+03  0.14722648536E+03  0.00000000000E+00 0.  1.
         11    1    1    2    0    0  0.18534146750E+01 -0.24414725095E+01 -0.18098880101E+03  0.18101475638E+03  0.00000000000E+00 0.  1.
        -15    1    1    2    0    0 -0.14813289771E+01  0.90086466304E+00 -0.78815772286E-01  0.24839149755E+01  0.17770000000E+01 0. -1.
         15    1    1    2    0    0  0.14144625549E-01  0.48774331564E+01  0.33879456891E+02  0.34274843289E+02  0.17770000000E+01 0.  1.
</event>
<event>
 6    1  0.8353910E-003  0.1787496E+03  0.7546771E-02  0.1071480E+00
        -11   -1    0    0    0    0  0.00000000000E+00  0.00000000000E+00  0.18250000000E+03  0.18250000000E+03  0.00000000000E+00 0.  1.
         11   -1    0    0    0    0 -0.00000000000E+00 -0.00000000000E+00 -0.18250000000E+03  0.18250000000E+03  0.00000000000E+00 0.  1.
        -11    1    1    2    0    0  0.42796864305E+01  0.24391421536E+01  0.17880987336E+03  0.17887771226E+03  0.00000000000E+00 0.  1.
         11    1    1    2    0    0 -0.31921262019E+01 -0.15484862497E+01 -0.17858901452E+03  0.17862425252E+03  0.00000000000E+00 0.  1.
        -15    1    1    2    0    0  0.25738576824E+01 -0.67727942175E+00  0.79590448020E+00  0.32976724710E+01  0.17770000000E+01 0.  1.
         15    1    1    2    0    0 -0.36614179111E+01 -0.21337648217E+00 -0.10167633208E+01  0.42003627573E+01  0.17770000000E+01 0. -1.
</event>
<event>
 6    1  0.8353910E-003  0.1830260E+03  0.7546771E-02  0.1068037E+00
        -11   -1    0    0    0    0  0.00000000000E+00  0.00000000000E+00  0.18250000000E+03  0.18250000000E+03  0.00000000000E+00 0. -1.
         11   -1    0    0    0    0 -0.00000000000E+00 -0.00000000000E+00 -0.18250000000E+03  0.18250000000E+03  0.00000000000E+00 0. -1.
        -11    1    1    2    0    0 -0.53286940390E+01 -0.25980359143E+01  0.11043768891E+03  0.11059669029E+03  0.00000000000E+00 0. -1.
         11    1    1    2    0    0  0.35214641670E+01  0.26356165663E+01 -0.18192086250E+03  0.18197402946E+03  0.00000000000E+00 0. -1.
        -15    1    1    2    0    0 -0.26630992419E+01 -0.20710703303E+01  0.96512264785E+01  0.10377154303E+02  0.17770000000E+01 0.  1.
         15    1    1    2    0    0  0.44703291139E+01  0.20334896782E+01  0.61831947110E+02  0.62052125951E+02  0.17770000000E+01 0. -1.
</event>
<event>
 6    1  0.8353910E-003  0.1830203E+03  0.7546771E-02  0.1068041E+00
        -11   -1    0    0    0    0  0.00000000000E+00  0.00000000000E+00  0.18250000000E+03  0.18250000000E+03  0.00000000000E+00 0. -1.
         11   -1    0    0    0    0 -0.00000000000E+00 -0.00000000000E+00 -0.18250000000E+03  0.18250000000E+03  0.00000000000E+00 0. -1.
        -11    1    1    2    0    0 -0.82433438542E+00  0.37221671320E+01  0.18193974103E+03  0.18197967859E+03  0.00000000000E+00 0. -1.
         11    1    1    2    0    0 -0.50065592492E+00  0.15539556237E+00 -0.16569041702E+02  0.16577332327E+02  0.00000000000E+00 0. -1.
        -15    1    1    2    0    0  0.72883001536E+01 -0.92282152965E+00 -0.31459265587E+02  0.32354505698E+02  0.17770000000E+01 0.  1.
         15    1    1    2    0    0 -0.59633098433E+01 -0.29547411647E+01 -0.13391143374E+03  0.13408848338E+03  0.17770000000E+01 0. -1.
</event>
<event>
 6    1  0.8353910E-003  0.1839671E+03  0.7546771E-02  0.1067293E+00
        -11   -1    0    0    0    0  0.00000000000E+00  0.00000000000E+00  0.18250000000E+03  0.18250000000E+03  0.00000000000E+00 0. -1.
         11   -1    0    0    0    0 -0.00000000000E+00 -0.00000000000E+00 -0.18250000000E+03  0.18250000000E+03  0.00000000000E+00 0. -1.
        -11    1    1    2    0    0  0.75172898299E+00 -0.27852840415E+01  0.17803049388E+03  0.17805386728E+03  0.00000000000E+00 0. -1.
         11    1    1    2    0    0 -0.27864152486E+01  0.11690934345E+01 -0.18100764212E+03  0.18103286274E+03  0.00000000000E+00 0. -1.
        -15    1    1    2    0    0  0.20284257981E+01  0.20084474104E+00  0.94298658842E+00  0.28638789315E+01  0.17770000000E+01 0.  1.
         15    1    1    2    0    0  0.62604675362E-02  0.14153458659E+01  0.20341616490E+01  0.30493910422E+01  0.17770000000E+01 0. -1.
</event>
<event>
 6    1  0.8353910E-003  0.1906290E+03  0.7546771E-02  0.1062162E+00
        -11   -1    0    0    0    0  0.00000000000E+00  0.00000000000E+00  0.18250000000E+03  0.18250000000E+03  0.00000000000E+00 0.  1.
         11   -1    0    0    0    0 -0.00000000000E+00 -0.00000000000E+00 -0.18250000000E+03  0.18250000000E+03  0.00000000000E+00 0.  1.
        -11    1    1    2    0    0  0.18636142247E+01  0.28442208924E+01  0.17433781376E+03  0.17437097223E+03  0.00000000000E+00 0.  1.
         11    1    1    2    0    0 -0.46797657585E+01 -0.42192797579E+01 -0.15580789311E+03  0.15593524965E+03  0.00000000000E+00 0.  1.
        -15    1    1    2    0    0  0.71809515007E+01  0.24449284242E+00 -0.25304161527E+02  0.26364448804E+02  0.17770000000E+01 0. -1.
         15    1    1    2    0    0 -0.43647999669E+01  0.11305660231E+01  0.67742408739E+01  0.83293293068E+01  0.17770000000E+01 0.  1.
</event>
<event>
 6    1  0.8353910E-003  0.1839298E+03  0.7546771E-02  0.1067322E+00
        -11   -1    0    0    0    0  0.00000000000E+00  0.00000000000E+00  0.18250000000E+03  0.18250000000E+03  0.00000000000E+00 0. -1.
         11   -1    0    0    0    0 -0.00000000000E+00 -0.00000000000E+00 -0.18250000000E+03  0.18250000000E+03  0.00000000000E+00 0. -1.
        -11    1    1    2    0    0  0.35099378789E+01  0.44901160680E+01  0.14492935875E+03  0.14504137284E+03  0.00000000000E+00 0. -1.
         11    1    1    2    0    0 -0.28786741432E+01  0.35769246425E+00 -0.18104692679E+03  0.18107016432E+03  0.00000000000E+00 0. -1.
        -15    1    1    2    0    0  0.59194571849E+01 -0.24491234108E+01  0.11988351431E+02  0.13708263124E+02  0.17770000000E+01 0. -1.
         15    1    1    2    0    0 -0.65507209205E+01 -0.23986851215E+01  0.24129216602E+02  0.25180199716E+02  0.17770000000E+01 0. -1.
</event>
<event>
 6    1  0.8353910E-003  0.1831249E+03  0.7546771E-02  0.1067958E+00
        -11   -1    0    0    0    0  0.00000000000E+00  0.00000000000E+00  0.18250000000E+03  0.18250000000E+03  0.00000000000E+00 0.  1.
         11   -1    0    0    0    0 -0.00000000000E+00 -0.00000000000E+00 -0.18250000000E+03  0.18250000000E+03  0.00000000000E+00 0. -1.
        -11    1    1    2    0    0 -0.16421303980E+00 -0.97751262318E+00  0.61728080033E+02  0.61736037785E+02  0.00000000000E+00 0.  1.
         11    1    1    2    0    0 -0.93624165254E+00  0.76350749471E+01 -0.18171238085E+03  0.18187512274E+03  0.00000000000E+00 0. -1.
        -15    1    1    2    0    0 -0.23820427065E+00 -0.11422920880E+02  0.55570867082E+02  0.56761068171E+02  0.17770000000E+01 0. -1.
         15    1    1    2    0    0  0.13386589630E+01  0.47653585560E+01  0.64413433732E+02  0.64627771307E+02  0.17770000000E+01 0.  1.
</event>
<event>
 6    1  0.8353910E-003  0.1835074E+03  0.7546771E-02  0.1067656E+00
        -11   -1    0    0    0    0  0.00000000000E+00  0.00000000000E+00  0.18250000000E+03  0.18250000000E+03  0.00000000000E+00 0. -1.
         11   -1    0    0    0    0 -0.00000000000E+00 -0.00000000000E+00 -0.18250000000E+03  0.18250000000E+03  0.00000000000E+00 0. -1.
        -11    1    1    2    0    0 -0.23723625574E+01 -0.31048574019E+01  0.16582708024E+03  0.16587311049E+03  0.00000000000E+00 0. -1.
         11    1    1    2    0    0 -0.22945477779E+01  0.20244953664E+01 -0.18146676153E+03  0.18149255927E+03  0.00000000000E+00 0. -1.
        -15    1    1    2    0    0  0.44693192888E+01 -0.14684720350E+01  0.99438477349E+01  0.11143117239E+02  0.17770000000E+01 0.  1.
         15    1    1    2    0    0  0.19759104648E+00  0.25488340705E+01  0.56958335518E+01  0.64912129984E+01  0.17770000000E+01 0. -1.
</event>
<event>
 6    1  0.8353910E-003  0.1838999E+03  0.7546771E-02  0.1067346E+00
        -11   -1    0    0    0    0  0.00000000000E+00  0.00000000000E+00  0.18250000000E+03  0.18250000000E+03  0.00000000000E+00 0. -1.
         11   -1    0    0    0    0 -0.00000000000E+00 -0.00000000000E+00 -0.18250000000E+03  0.18250000000E+03  0.00000000000E+00 0. -1.
        -11    1    1    2    0    0 -0.21332728023E+01 -0.38661439163E+00  0.14633315001E+03  0.14634920948E+03  0.00000000000E+00 0. -1.
         11    1    1    2    0    0 -0.42842937032E+01 -0.21527815197E+00 -0.18104926865E+03  0.18110008061E+03  0.00000000000E+00 0. -1.
        -15    1    1    2    0    0  0.29975493659E+00 -0.24156111536E+01  0.26726622958E+02  0.26896005912E+02  0.17770000000E+01 0. -1.
         15    1    1    2    0    0  0.61178115688E+01  0.30175036972E+01  0.79894956819E+01  0.10654703994E+02  0.17770000000E+01 0.  1.
</event>
<event>
 6    1  0.8353910E-003  0.1840505E+03  0.7546771E-02  0.1067227E+00
        -11   -1    0    0    0    0  0.00000000000E+00  0.00000000000E+00  0.18250000000E+03  0.18250000000E+03  0.00000000000E+00 0.  1.
         11   -1    0    0    0    0 -0.00000000000E+00 -0.00000000000E+00 -0.18250000000E+03  0.18250000000E+03  0.00000000000E+00 0.  1.
        -11    1    1    2    0    0  0.11038688229E+02  0.33237469429E+00  0.18061219935E+03  0.18094952242E+03  0.00000000000E+00 0.  1.
         11    1    1    2    0    0  0.21573611368E+01 -0.26528310155E+01 -0.12893462267E+03  0.12897995442E+03  0.00000000000E+00 0.  1.
        -15    1    1    2    0    0 -0.19020939035E+01  0.13398980835E+01 -0.33138304717E+02  0.33267375259E+02  0.17770000000E+01 0.  1.
         15    1    1    2    0    0 -0.11293955462E+02  0.98055823768E+00 -0.18539271962E+02  0.21803147899E+02  0.17770000000E+01 0. -1.
</event>
<event>
 6    1  0.8353910E-003  0.1720812E+03  0.7546771E-02  0.1077064E+00
        -11   -1    0    0    0    0  0.00000000000E+00  0.00000000000E+00  0.18250000000E+03  0.18250000000E+03  0.00000000000E+00 0. -1.
         11   -1    0    0    0    0 -0.00000000000E+00 -0.00000000000E+00 -0.18250000000E+03  0.18250000000E+03  0.00000000000E+00 0.  1.
        -11    1    1    2    0    0  0.26835699126E+01 -0.56875975800E+00  0.17300886006E+03  0.17303060624E+03  0.00000000000E+00 0. -1.
         11    1    1    2    0    0 -0.31328283748E+00 -0.26186926636E+01 -0.17113951873E+03  0.17115983924E+03  0.00000000000E+00 0.  1.
        -15    1    1    2    0    0  0.56520292002E+01 -0.94431755804E+00 -0.78191774330E+01  0.98556803144E+01  0.17770000000E+01 0. -1.
         15    1    1    2    0    0 -0.80223162753E+01  0.41317699797E+01  0.59498360971E+01  0.10953874208E+02  0.17770000000E+01 0.  1.
</event>
<event>
 6    1  0.8353910E-003  0.1935811E+03  0.7546771E-02  0.1059961E+00
        -11   -1    0    0    0    0  0.00000000000E+00  0.00000000000E+00  0.18250000000E+03  0.18250000000E+03  0.00000000000E+00 0. -1.
         11   -1    0    0    0    0 -0.00000000000E+00 -0.00000000000E+00 -0.18250000000E+03  0.18250000000E+03  0.00000000000E+00 0. -1.
        -11    1    1    2    0    0 -0.74432234088E+01 -0.88555283335E+01  0.14321447238E+03  0.14368092099E+03  0.00000000000E+00 0. -1.
         11    1    1    2    0    0  0.23399812022E+02  0.11550635935E+02 -0.16942096100E+03  0.17141887417E+03  0.00000000000E+00 0. -1.
        -15    1    1    2    0    0 -0.21938392139E+02  0.26182056614E+01 -0.28773312018E+00  0.22167286029E+02  0.17770000000E+01 0.  1.
         15    1    1    2    0    0  0.59818035262E+01 -0.53133132629E+01  0.26494221740E+02  0.27732918813E+02  0.17770000000E+01 0. -1.
</event>
<event>
 6    1  0.8353910E-003  0.1845059E+03  0.7546771E-02  0.1066869E+00
        -11   -1    0    0    0    0  0.00000000000E+00  0.00000000000E+00  0.18250000000E+03  0.18250000000E+03  0.00000000000E+00 0.  1.
         11   -1    0    0    0    0 -0.00000000000E+00 -0.00000000000E+00 -0.18250000000E+03  0.18250000000E+03  0.00000000000E+00 0. -1.
        -11    1    1    2    0    0 -0.15321170751E+01 -0.10139017603E+01  0.11934199570E+03  0.11935613649E+03  0.00000000000E+00 0.  1.
         11    1    1    2    0    0 -0.36822677068E+01 -0.11288120877E+02 -0.18010313657E+03  0.18049410121E+03  0.00000000000E+00 0. -1.
        -15    1    1    2    0    0  0.75907721455E+01  0.29390806843E+01  0.49546466700E+02  0.50242094985E+02  0.17770000000E+01 0. -1.
         15    1    1    2    0    0 -0.23763873635E+01  0.93629419533E+01  0.11214674172E+02  0.14907667313E+02  0.17770000000E+01 0.  1.
</event>
<event>
 6    1  0.8353910E-003  0.1900900E+03  0.7546771E-02  0.1062569E+00
        -11   -1    0    0    0    0  0.00000000000E+00  0.00000000000E+00  0.18250000000E+03  0.18250000000E+03  0.00000000000E+00 0.  1.
         11   -1    0    0    0    0 -0.00000000000E+00 -0.00000000000E+00 -0.18250000000E+03  0.18250000000E+03  0.00000000000E+00 0.  1.
        -11    1    1    2    0    0  0.11368799442E+02 -0.36030805628E+01  0.17450290034E+03  0.17490995975E+03  0.00000000000E+00 0.  1.
         11    1    1    2    0    0 -0.29205941074E+01  0.14774205269E+01 -0.14510278496E+03  0.14513969424E+03  0.00000000000E+00 0.  1.
        -15    1    1    2    0    0 -0.10936603320E+02  0.23843132401E+01  0.35353245766E+01  0.11872257185E+02  0.17770000000E+01 0.  1.
         15    1    1    2    0    0  0.24883979852E+01 -0.25865320422E+00 -0.32935439965E+02  0.33078088831E+02  0.17770000000E+01 0.  1.
</event>
<event>
 6    1  0.8353910E-003  0.1861953E+03  0.7546771E-02  0.1065551E+00
        -11   -1    0    0    0    0  0.00000000000E+00  0.00000000000E+00  0.18250000000E+03  0.18250000000E+03  0.00000000000E+00 0.  1.
         11   -1    0    0    0    0 -0.00000000000E+00 -0.00000000000E+00 -0.18250000000E+03  0.18250000000E+03  0.00000000000E+00 0.  1.
        -11    1    1    2    0    0  0.11930294970E+01 -0.52477761882E+01  0.17872373165E+03  0.17880473911E+03  0.00000000000E+00 0.  1.
         11    1    1    2    0    0 -0.11356869023E+01  0.50545022656E+01 -0.17021059963E+03  0.17028941836E+03  0.00000000000E+00 0.  1.
        -15    1    1    2    0    0  0.47506185363E-01  0.63873893402E+01 -0.24829682667E+01  0.70798206075E+01  0.17770000000E+01 0.  1.
         15    1    1    2    0    0 -0.10484878009E+00 -0.61941154177E+01 -0.60301637499E+01  0.88260219196E+01  0.17770000000E+01 0.  1.
</event>
<event>
 6    1  0.8353910E-003  0.1852064E+03  0.7546771E-02  0.1066321E+00
        -11   -1    0    0    0    0  0.00000000000E+00  0.00000000000E+00  0.18250000000E+03  0.18250000000E+03  0.00000000000E+00 0.  1.
         11   -1    0    0    0    0 -0.00000000000E+00 -0.00000000000E+00 -0.18250000000E+03  0.18250000000E+03  0.00000000000E+00 0. -1.
        -11    1    1    2    0    0  0.15873257456E+02 -0.28352837642E+01  0.17906906886E+03  0.17979357763E+03  0.00000000000E+00 0.  1.
         11    1    1    2    0    0  0.32764164920E+01  0.73304704359E+00 -0.12775226050E+03  0.12779637055E+03  0.00000000000E+00 0. -1.
        -15    1    1    2    0    0 -0.14760298659E+01  0.42166026553E+01 -0.25000552906E+01  0.54190781111E+01  0.17770000000E+01 0. -1.
         15    1    1    2    0    0 -0.17673644082E+02 -0.21143659348E+01 -0.48816753069E+02  0.51990973713E+02  0.17770000000E+01 0.  1.
</event>
<event>
 6    1  0.8353910E-003  0.1831830E+03  0.7546771E-02  0.1067912E+00
        -11   -1    0    0    0    0  0.00000000000E+00  0.00000000000E+00  0.18250000000E+03  0.18250000000E+03  0.00000000000E+00 0. -1.
         11   -1    0    0    0    0 -0.00000000000E+00 -0.00000000000E+00 -0.18250000000E+03  0.18250000000E+03  0.00000000000E+00 0. -1.
        -11    1    1    2    0    0  0.84098785035E+00  0.43259577206E+00  0.10435178702E+02  0.10477946087E+02  0.00000000000E+00 0. -1.
         11    1    1    2    0    0 -0.14812090678E+01 -0.33197888431E+01 -0.18178062287E+03  0.18181696794E+03  0.00000000000E+00 0. -1.
        -15    1    1    2    0    0  0.53594654904E+01  0.27598763973E+01  0.16168365891E+03  0.16180576033E+03  0.17770000000E+01 0. -1.
         15    1    1    2    0    0 -0.47192442730E+01  0.12731667379E+00  0.96617852606E+01  0.10899325643E+02  0.17770000000E+01 0.  1.
</event>
<event>
 6    1  0.8353910E-003  0.1895672E+03  0.7546771E-02  0.1062964E+00
        -11   -1    0    0    0    0  0.00000000000E+00  0.00000000000E+00  0.18250000000E+03  0.18250000000E+03  0.00000000000E+00 0.  1.
         11   -1    0    0    0    0 -0.00000000000E+00 -0.00000000000E+00 -0.18250000000E+03  0.18250000000E+03  0.00000000000E+00 0.  1.
        -11    1    1    2    0    0  0.21335447928E+01  0.20038707971E+01  0.17540836289E+03  0.17543278280E+03  0.00000000000E+00 0.  1.
         11    1    1    2    0    0  0.17134209371E+01 -0.25716740132E+01 -0.14336440277E+03  0.14339770326E+03  0.00000000000E+00 0.  1.
        -15    1    1    2    0    0  0.13825809026E+01 -0.69538750687E+01  0.44123488453E+01  0.85378252357E+01  0.17770000000E+01 0.  1.
         15    1    1    2    0    0 -0.52295466325E+01  0.75216782849E+01 -0.36456308962E+02  0.37631688699E+02  0.17770000000E+01 0. -1.
</event>
<event>
 6    1  0.8353910E-003  0.1838908E+03  0.7546771E-02  0.1067353E+00
        -11   -1    0    0    0    0  0.00000000000E+00  0.00000000000E+00  0.18250000000E+03  0.18250000000E+03  0.00000000000E+00 0. -1.
         11   -1    0    0    0    0 -0.00000000000E+00 -0.00000000000E+00 -0.18250000000E+03  0.18250000000E+03  0.00000000000E+00 0. -1.
        -11    1    1    2    0    0 -0.44590239990E+01  0.35346026374E+01  0.18101976950E+03  0.18110917498E+03  0.00000000000E+00 0. -1.
         11    1    1    2    0    0  0.69248851247E+01 -0.14437155743E+01 -0.62503022908E+02  0.62902036702E+02  0.00000000000E+00 0. -1.
        -15    1    1    2    0    0  0.11593959914E+01 -0.41349561184E+01 -0.33401360196E+01  0.57233118729E+01  0.17770000000E+01 0.  1.
         15    1    1    2    0    0 -0.36252571172E+01  0.20440690553E+01 -0.11517661058E+03  0.11526547645E+03  0.17770000000E+01 0. -1.
</event>
<event>
 6    1  0.8353910E-003  0.2044713E+03  0.7546771E-02  0.1052197E+00
        -11   -1    0    0    0    0  0.00000000000E+00  0.00000000000E+00  0.18250000000E+03  0.18250000000E+03  0.00000000000E+00 0.  1.
         11   -1    0    0    0    0 -0.00000000000E+00 -0.00000000000E+00 -0.18250000000E+03  0.18250000000E+03  0.00000000000E+00 0. -1.
        -11    1    1    2    0    0  0.33282933387E+00 -0.18997164663E+01  0.12731156508E+03  0.12732617289E+03  0.00000000000E+00 0.  1.
         11    1    1    2    0    0 -0.43129235318E+01  0.74108695826E+00 -0.16046903457E+03  0.16052869393E+03  0.00000000000E+00 0. -1.
        -15    1    1    2    0    0 -0.36641707392E+01  0.29202256671E+01  0.54296661230E+02  0.54527415259E+02  0.17770000000E+01 0.  1.
         15    1    1    2    0    0  0.76442649371E+01 -0.17615961590E+01 -0.21139191748E+02  0.22617717927E+02  0.17770000000E+01 0.  1.
</event>
<event>
 6    1  0.8353910E-003  0.1839915E+03  0.7546771E-02  0.1067274E+00
        -11   -1    0    0    0    0  0.00000000000E+00  0.00000000000E+00  0.18250000000E+03  0.18250000000E+03  0.00000000000E+00 0. -1.
         11   -1    0    0    0    0 -0.00000000000E+00 -0.00000000000E+00 -0.18250000000E+03  0.18250000000E+03  0.00000000000E+00 0. -1.
        -11    1    1    2    0    0  0.29548893975E+00  0.12853694777E+01  0.27873833518E+02  0.27905018965E+02  0.00000000000E+00 0. -1.
         11    1    1    2    0    0 -0.13442888870E+01  0.38150565159E+01 -0.18096326188E+03  0.18100846367E+03  0.00000000000E+00 0. -1.
        -15    1    1    2    0    0  0.31910421393E+01 -0.23385343468E+01  0.17188388020E+01  0.46651504427E+01  0.17770000000E+01 0.  1.
         15    1    1    2    0    0 -0.21422421921E+01 -0.27618916468E+01  0.15137058956E+03  0.15142136692E+03  0.17770000000E+01 0. -1.
</event>
<event>
 6    1  0.8353910E-003  0.1836565E+03  0.7546771E-02  0.1067538E+00
        -11   -1    0    0    0    0  0.00000000000E+00  0.00000000000E+00  0.18250000000E+03  0.18250000000E+03  0.00000000000E+00 0. -1.
         11   -1    0    0    0    0 -0.00000000000E+00 -0.00000000000E+00 -0.18250000000E+03  0.18250000000E+03  0.00000000000E+00 0. -1.
        -11    1    1    2    0    0 -0.28520188657E+01  0.89235677278E-01  0.15147781603E+03  0.15150468879E+03  0.00000000000E+00 0. -1.
         11    1    1    2    0    0 -0.12874191172E+01 -0.42314007179E+01 -0.18128955297E+03  0.18134349786E+03  0.00000000000E+00 0. -1.
        -15    1    1    2    0    0  0.65383227577E+01  0.48614664433E+01  0.25705638780E+02  0.27024454010E+02  0.17770000000E+01 0.  1.
         15    1    1    2    0    0 -0.23988847748E+01 -0.71930140273E+00  0.41060981592E+01  0.51273593363E+01  0.17770000000E+01 0.  1.
</event>
<event>
 6    1  0.8353910E-003  0.1844275E+03  0.7546771E-02  0.1066931E+00
        -11   -1    0    0    0    0  0.00000000000E+00  0.00000000000E+00  0.18250000000E+03  0.18250000000E+03  0.00000000000E+00 0.  1.
         11   -1    0    0    0    0 -0.00000000000E+00 -0.00000000000E+00 -0.18250000000E+03  0.18250000000E+03  0.00000000000E+00 0.  1.
        -11    1    1    2    0    0  0.29923755990E+01 -0.30023975345E+00  0.18054749169E+03  0.18057253726E+03  0.00000000000E+00 0.  1.
         11    1    1    2    0    0 -0.68228148595E+01  0.20232201520E+01 -0.15333558789E+03  0.15350064083E+03  0.00000000000E+00 0.  1.
        -15    1    1    2    0    0 -0.16896378862E+01 -0.63762727282E+01 -0.93550893733E+01  0.11583918002E+02  0.17770000000E+01 0.  1.
         15    1    1    2    0    0  0.55200771467E+01  0.46532923296E+01 -0.17856814428E+02  0.19342903912E+02  0.17770000000E+01 0. -1.
</event>
<event>
 6    1  0.8353910E-003  0.1911859E+03  0.7546771E-02  0.1061744E+00
        -11   -1    0    0    0    0  0.00000000000E+00  0.00000000000E+00  0.18250000000E+03  0.18250000000E+03  0.00000000000E+00 0.  1.
         11   -1    0    0    0    0 -0.00000000000E+00 -0.00000000000E+00 -0.18250000000E+03  0.18250000000E+03  0.00000000000E+00 0. -1.
        -11    1    1    2    0    0  0.21318156629E+01  0.16478006126E+01  0.17379319952E+03  0.17381408483E+03  0.00000000000E+00 0.  1.
         11    1    1    2    0    0  0.10008861121E+01 -0.38543562014E+01 -0.16704408570E+03  0.16709154498E+03  0.00000000000E+00 0. -1.
        -15    1    1    2    0    0  0.86997756198E+00  0.42604025399E+01 -0.14341974737E+02  0.15091648655E+02  0.17770000000E+01 0.  1.
         15    1    1    2    0    0 -0.40026793370E+01 -0.20538469512E+01  0.75928609160E+01  0.90027215365E+01  0.17770000000E+01 0. -1.
</event>
<event>
 6    1  0.8353910E-003  0.1850176E+03  0.7546771E-02  0.1066468E+00
        -11   -1    0    0    0    0  0.00000000000E+00  0.00000000000E+00  0.18250000000E+03  0.18250000000E+03  0.00000000000E+00 0.  1.
         11   -1    0    0    0    0 -0.00000000000E+00 -0.00000000000E+00 -0.18250000000E+03  0.18250000000E+03  0.00000000000E+00 0. -1.
        -11    1    1    2    0    0 -0.51241686891E+00  0.33594843345E+00  0.26937398400E+02  0.26944366108E+02  0.00000000000E+00 0.  1.
         11    1    1    2    0    0 -0.32888989394E+01 -0.27520566959E+01 -0.17993129577E+03  0.17998239322E+03  0.00000000000E+00 0. -1.
        -15    1    1    2    0    0  0.10194433747E+01 -0.14546959459E+02  0.25624629706E+02  0.29536971254E+02  0.17770000000E+01 0. -1.
         15    1    1    2    0    0  0.27818724337E+01  0.16963067721E+02  0.12736926766E+03  0.12853626942E+03  0.17770000000E+01 0.  1.
</event>
<event>
 6    1  0.8353910E-003  0.1836810E+03  0.7546771E-02  0.1067519E+00
        -11   -1    0    0    0    0  0.00000000000E+00  0.00000000000E+00  0.18250000000E+03  0.18250000000E+03  0.00000000000E+00 0. -1.
         11   -1    0    0    0    0 -0.00000000000E+00 -0.00000000000E+00 -0.18250000000E+03  0.18250000000E+03  0.00000000000E+00 0. -1.
        -11    1    1    2    0    0 -0.10181337527E+02 -0.88232663328E+00  0.18103073726E+03  0.18131896196E+03  0.00000000000E+00 0. -1.
         11    1    1    2    0    0  0.28090140756E+01 -0.69706994868E+00 -0.15112530760E+03  0.15115301870E+03  0.00000000000E+00 0. -1.
        -15    1    1    2    0    0  0.71503983273E+01 -0.24008099666E+01 -0.13643705492E+02  0.15690777969E+02  0.17770000000E+01 0.  1.
         15    1    1    2    0    0  0.22192512377E+00  0.39802065485E+01 -0.16261724170E+02  0.16837241368E+02  0.17770000000E+01 0. -1.
</event>
<event>
 6    1  0.8353910E-003  0.1842061E+03  0.7546771E-02  0.1067105E+00
        -11   -1    0    0    0    0  0.00000000000E+00  0.00000000000E+00  0.18250000000E+03  0.18250000000E+03  0.00000000000E+00 0. -1.
         11   -1    0    0    0    0 -0.00000000000E+00 -0.00000000000E+00 -0.18250000000E+03  0.18250000000E+03  0.00000000000E+00 0. -1.
        -11    1    1    2    0    0  0.58804314418E+00  0.26702004498E+01  0.18077322155E+03  0.18079389756E+03  0.00000000000E+00 0. -1.
         11    1    1    2    0    0 -0.36032879410E+00  0.31734393052E+01 -0.17392669176E+03  0.17395601358E+03  0.00000000000E+00 0. -1.
        -15    1    1    2    0    0 -0.12189922638E+01 -0.36840724373E+01 -0.55769733347E+01  0.70227268520E+01  0.17770000000E+01 0.  1.
         15    1    1    2    0    0  0.99127791371E+00 -0.21595673176E+01 -0.12695564601E+01  0.32273620043E+01  0.17770000000E+01 0. -1.
</event>
<event>
 6    1  0.8353910E-003  0.1866402E+03  0.7546771E-02  0.1065206E+00
        -11   -1    0    0    0    0  0.00000000000E+00  0.00000000000E+00  0.18250000000E+03  0.18250000000E+03  0.00000000000E+00 0. -1.
         11   -1    0    0    0    0 -0.00000000000E+00 -0.00000000000E+00 -0.18250000000E+03  0.18250000000E+03  0.00000000000E+00 0. -1.
        -11    1    1    2    0    0  0.15617828732E+01 -0.34357852918E+01  0.17134389937E+03  0.17138545923E+03  0.00000000000E+00 0. -1.
         11    1    1    2    0    0 -0.10675765541E+01  0.53440266237E+01 -0.17827657049E+03  0.17835984393E+03  0.00000000000E+00 0. -1.
        -15    1    1    2    0    0  0.73695077071E+00  0.15943844457E+01  0.98807645565E+01  0.10191780778E+02  0.17770000000E+01 0. -1.
         15    1    1    2    0    0 -0.12311570898E+01 -0.35026257775E+01 -0.29480934331E+01  0.50629160577E+01  0.17770000000E+01 0.  1.
</event>
<event>
 6    1  0.8353910E-003  0.1940819E+03  0.7546771E-02  0.1059592E+00
        -11   -1    0    0    0    0  0.00000000000E+00  0.00000000000E+00  0.18250000000E+03  0.18250000000E+03  0.00000000000E+00 0. -1.
         11   -1    0    0    0    0 -0.00000000000E+00 -0.00000000000E+00 -0.18250000000E+03  0.18250000000E+03  0.00000000000E+00 0.  1.
        -11    1    1    2    0    0 -0.37730038654E+01  0.39178413576E+01  0.17083152523E+03  0.17091809457E+03  0.00000000000E+00 0. -1.
         11    1    1    2    0    0  0.39297225549E+01  0.43223474677E+01 -0.13605102499E+03  0.13617638124E+03  0.00000000000E+00 0.  1.
        -15    1    1    2    0    0  0.26382414536E+01 -0.72474351886E+00  0.10959123516E+02  0.11434408090E+02  0.17770000000E+01 0. -1.
         15    1    1    2    0    0 -0.27949601431E+01 -0.75154453064E+01 -0.45739623758E+02  0.46471116092E+02  0.17770000000E+01 0. -1.
</event>
<event>
 6    1  0.8353910E-003  0.1847846E+03  0.7546771E-02  0.1066651E+00
        -11   -1    0    0    0    0  0.00000000000E+00  0.00000000000E+00  0.18250000000E+03  0.18250000000E+03  0.00000000000E+00 0.  1.
         11   -1    0    0    0    0 -0.00000000000E+00 -0.00000000000E+00 -0.18250000000E+03  0.18250000000E+03  0.00000000000E+00 0.  1.
        -11    1    1    2    0    0  0.96104918800E+00  0.32065304691E+01  0.98173379379E+02  0.98230432514E+02  0.00000000000E+00 0.  1.
         11    1    1    2    0    0 -0.10412709375E+02  0.27944594186E+01 -0.17989265879E+03  0.18021543277E+03  0.00000000000E+00 0.  1.
        -15    1    1    2    0    0  0.83725151692E+01  0.66328924267E+00  0.59058470186E+01  0.10419967413E+02  0.17770000000E+01 0. -1.
         15    1    1    2    0    0  0.10791450183E+01 -0.66642791304E+01  0.75813432397E+02  0.76134167304E+02  0.17770000000E+01 0.  1.
</event>
<event>
 6    1  0.8353910E-003  0.1903977E+03  0.7546771E-02  0.1062336E+00
        -11   -1    0    0    0    0  0.00000000000E+00  0.00000000000E+00  0.18250000000E+03  0.18250000000E+03  0.00000000000E+00 0. -1.
         11   -1    0    0    0    0 -0.00000000000E+00 -0.00000000000E+00 -0.18250000000E+03  0.18250000000E+03  0.00000000000E+00 0. -1.
        -11    1    1    2    0    0 -0.16795301887E+02  0.23531005924E+01  0.13300290808E+03  0.13407980014E+03  0.00000000000E+00 0. -1.
         11    1    1    2    0    0 -0.79852730536E+01  0.66040480433E+01 -0.17429458193E+03  0.17460234628E+03  0.00000000000E+00 0. -1.
        -15    1    1    2    0    0 -0.21130945631E+01 -0.95676495841E+01  0.50980609540E+01  0.11187182026E+02  0.17770000000E+01 0.  1.
         15    1    1    2    0    0  0.26893669504E+02  0.61050094836E+00  0.36193612904E+02  0.45130671553E+02  0.17770000000E+01 0. -1.
</event>
<event>
 6    1  0.8353910E-003  0.1907006E+03  0.7546771E-02  0.1062108E+00
        -11   -1    0    0    0    0  0.00000000000E+00  0.00000000000E+00  0.18250000000E+03  0.18250000000E+03  0.00000000000E+00 0. -1.
         11   -1    0    0    0    0 -0.00000000000E+00 -0.00000000000E+00 -0.18250000000E+03  0.18250000000E+03  0.00000000000E+00 0.  1.
        -11    1    1    2    0    0  0.38178551809E+02  0.52525833006E+01  0.16998555364E+03  0.17429939729E+03  0.00000000000E+00 0. -1.
         11    1    1    2    0    0  0.13968767202E+01 -0.11095061982E+00 -0.69951835614E+02  0.69965869396E+02  0.00000000000E+00 0.  1.
        -15    1    1    2    0    0 -0.32625417423E+02  0.97976970945E+00 -0.10507445155E+03  0.11004170077E+03  0.17770000000E+01 0.  1.
         15    1    1    2    0    0 -0.69500111062E+01 -0.61214023902E+01  0.50407335236E+01  0.10693032547E+02  0.17770000000E+01 0. -1.
</event>
<event>
 6    1  0.8353910E-003  0.1833510E+03  0.7546771E-02  0.1067779E+00
        -11   -1    0    0    0    0  0.00000000000E+00  0.00000000000E+00  0.18250000000E+03  0.18250000000E+03  0.00000000000E+00 0.  1.
         11   -1    0    0    0    0 -0.00000000000E+00 -0.00000000000E+00 -0.18250000000E+03  0.18250000000E+03  0.00000000000E+00 0.  1.
        -11    1    1    2    0    0  0.63623606702E+01  0.88478623758E+00  0.18153537089E+03  0.18164898393E+03  0.00000000000E+00 0.  1.
         11    1    1    2    0    0  0.28228556811E+01  0.13970158928E+01 -0.58013042791E+02  0.58098479338E+02  0.00000000000E+00 0.  1.
        -15    1    1    2    0    0 -0.14310087556E+02 -0.37452273664E+01 -0.80758578295E+02  0.82121318980E+02  0.17770000000E+01 0. -1.
         15    1    1    2    0    0  0.51248712048E+01  0.14634252361E+01 -0.42763749803E+02  0.43131217749E+02  0.17770000000E+01 0.  1.
</event>
<event>
 6    1  0.8353910E-003  0.1849097E+03  0.7546771E-02  0.1066553E+00
        -11   -1    0    0    0    0  0.00000000000E+00  0.00000000000E+00  0.18250000000E+03  0.18250000000E+03  0.00000000000E+00 0. -1.
         11   -1    0    0    0    0 -0.00000000000E+00 -0.00000000000E+00 -0.18250000000E+03  0.18250000000E+03  0.00000000000E+00 0.  1.
        -11    1    1    2    0    0  0.84866742438E+01 -0.13635138767E+01  0.15755059378E+03  0.15778489284E+03  0.00000000000E+00 0. -1.
         11    1    1    2    0    0  0.18429515581E+01  0.59340571545E+01 -0.17998304435E+03  0.18009027113E+03  0.00000000000E+00 0.  1.
        -15    1    1    2    0    0 -0.81486420631E+01 -0.66719135359E+01  0.20503355090E+02  0.23118393038E+02  0.17770000000E+01 0.  1.
         15    1    1    2    0    0 -0.21809837388E+01  0.21013702581E+01  0.19290954756E+01  0.40064429841E+01  0.17770000000E+01 0. -1.
</event>
<event>
 6    1  0.8353910E-003  0.1932089E+03  0.7546771E-02  0.1060236E+00
        -11   -1    0    0    0    0  0.00000000000E+00  0.00000000000E+00  0.18250000000E+03  0.18250000000E+03  0.00000000000E+00 0. -1.
         11   -1    0    0    0    0 -0.00000000000E+00 -0.00000000000E+00 -0.18250000000E+03  0.18250000000E+03  0.00000000000E+00 0. -1.
        -11    1    1    2    0    0 -0.25283014778E+01 -0.70190064237E+00  0.13433954792E+03  0.13436517074E+03  0.00000000000E+00 0. -1.
         11    1    1    2    0    0 -0.25375793447E+00  0.69413246109E+01 -0.17165059421E+03  0.17179107333E+03  0.00000000000E+00 0. -1.
        -15    1    1    2    0    0 -0.44248726483E+01  0.35633157193E+01 -0.90764169399E+01  0.10854298242E+02  0.17770000000E+01 0.  1.
         15    1    1    2    0    0  0.72069320606E+01 -0.98027396878E+01  0.46387463238E+02  0.47989457694E+02  0.17770000000E+01 0. -1.
</event>
<event>
 6    1  0.8353910E-003  0.1874070E+03  0.7546771E-02  0.1064615E+00
        -11   -1    0    0    0    0  0.00000000000E+00  0.00000000000E+00  0.18250000000E+03  0.18250000000E+03  0.00000000000E+00 0.  1.
         11   -1    0    0    0    0 -0.00000000000E+00 -0.00000000000E+00 -0.18250000000E+03  0.18250000000E+03  0.00000000000E+00 0.  1.
        -11    1    1    2    0    0 -0.17937112032E+01  0.23897826668E+01  0.16083953642E+03  0.16086728983E+03  0.00000000000E+00 0.  1.
         11    1    1    2    0    0  0.34989914101E+01 -0.21920242224E+01 -0.17754503927E+03  0.17759304289E+03  0.00000000000E+00 0.  1.
        -15    1    1    2    0    0  0.13189720435E+01 -0.41341792907E+01  0.19852913764E+02  0.20399192130E+02  0.17770000000E+01 0.  1.
         15    1    1    2    0    0 -0.30242522503E+01  0.39364208464E+01 -0.31474109079E+01  0.61404751588E+01  0.17770000000E+01 0. -1.
</event>
<event>
 6    1  0.8353910E-003  0.1845568E+03  0.7546771E-02  0.1066829E+00
        -11   -1    0    0    0    0  0.00000000000E+00  0.00000000000E+00  0.18250000000E+03  0.18250000000E+03  0.00000000000E+00 0.  1.
         11   -1    0    0    0    0 -0.00000000000E+00 -0.00000000000E+00 -0.18250000000E+03  0.18250000000E+03  0.00000000000E+00 0. -1.
        -11    1    1    2    0    0  0.24726746647E+01 -0.19997109860E+01  0.18041522121E+03  0.18044324594E+03  0.00000000000E+00 0.  1.
         11    1    1    2    0    0  0.33750789694E+00 -0.23986084954E+01 -0.15783873556E+03  0.15785732063E+03  0.00000000000E+00 0. -1.
        -15    1    1    2    0    0 -0.40350003445E+01  0.72285223524E+01 -0.21295037809E+02  0.22916568841E+02  0.17770000000E+01 0. -1.
         15    1    1    2    0    0  0.12248177829E+01 -0.28302028710E+01 -0.12814478416E+01  0.37828645843E+01  0.17770000000E+01 0.  1.
</event>
<event>
 6    1  0.8353910E-003  0.1835063E+03  0.7546771E-02  0.1067657E+00
        -11   -1    0    0    0    0  0.00000000000E+00  0.00000000000E+00  0.18250000000E+03  0.18250000000E+03  0.00000000000E+00 0.  1.
         11   -1    0    0    0    0 -0.00000000000E+00 -0.00000000000E+00 -0.18250000000E+03  0.18250000000E+03  0.00000000000E+00 0. -1.
        -11    1    1    2    0    0 -0.13310973077E+01  0.15514005944E+01  0.10455269756E+03  0.10457267918E+03  0.00000000000E+00 0.  1.
         11    1    1    2    0    0 -0.20082996757E+01 -0.14002062815E+01 -0.18147718543E+03  0.18149369872E+03  0.00000000000E+00 0. -1.
        -15    1    1    2    0    0 -0.15705266619E+01  0.27049981766E+01  0.27690016523E+01  0.45396771121E+01  0.17770000000E+01 0. -1.
         15    1    1    2    0    0  0.49099236453E+01 -0.28561924895E+01  0.74155486220E+02  0.74393944991E+02  0.17770000000E+01 0.  1.
</event>
<event>
 6    1  0.8353910E-003  0.1844127E+03  0.7546771E-02  0.1066942E+00
        -11   -1    0    0    0    0  0.00000000000E+00  0.00000000000E+00  0.18250000000E+03  0.18250000000E+03  0.00000000000E+00 0. -1.
         11   -1    0    0    0    0 -0.00000000000E+00 -0.00000000000E+00 -0.18250000000E+03  0.18250000000E+03  0.00000000000E+00 0.  1.
        -11    1    1    2    0    0 -0.41433940965E+00 -0.13509667607E+01  0.43281965160E+02  0.43305026226E+02  0.00000000000E+00 0. -1.
         11    1    1    2    0    0 -0.10591530382E+02 -0.86445577460E+01 -0.18006908888E+03  0.18058733528E+03  0.00000000000E+00 0.  1.
        -15    1    1    2    0    0  0.94340639012E+01  0.65210693536E+01  0.13725971442E+02  0.17974591184E+02  0.17770000000E+01 0.  1.
         15    1    1    2    0    0  0.15718058900E+01  0.34744551531E+01  0.12306115227E+03  0.12313304731E+03  0.17770000000E+01 0. -1.
</event>
<event>
 6    1  0.8353910E-003  0.1834601E+03  0.7546771E-02  0.1067693E+00
        -11   -1    0    0    0    0  0.00000000000E+00  0.00000000000E+00  0.18250000000E+03  0.18250000000E+03  0.00000000000E+00 0.  1.
         11   -1    0    0    0    0 -0.00000000000E+00 -0.00000000000E+00 -0.18250000000E+03  0.18250000000E+03  0.00000000000E+00 0. -1.
        -11    1    1    2    0    0 -0.13428053388E+01  0.18072926016E+01  0.13527638625E+03  0.13529512227E+03  0.00000000000E+00 0.  1.
         11    1    1    2    0    0  0.28445632369E+01 -0.25396269103E+01 -0.18149988599E+03  0.18153994012E+03  0.00000000000E+00 0. -1.
        -15    1    1    2    0    0 -0.22365101858E+01  0.67929347862E+00  0.13182918724E+01  0.32185462405E+01  0.17770000000E+01 0. -1.
         15    1    1    2    0    0  0.73475228775E+00  0.53040830031E-01  0.44905207870E+02  0.44946391370E+02  0.17770000000E+01 0.  1.
</event>
<event>
 6    1  0.8353910E-003  0.1826901E+03  0.7546771E-02  0.1068304E+00
        -11   -1    0    0    0    0  0.00000000000E+00  0.00000000000E+00  0.18250000000E+03  0.18250000000E+03  0.00000000000E+00 0.  1.
         11   -1    0    0    0    0 -0.00000000000E+00 -0.00000000000E+00 -0.18250000000E+03  0.18250000000E+03  0.00000000000E+00 0.  1.
        -11    1    1    2    0    0 -0.49198019427E+01  0.47951681541E+00  0.18224282674E+03  0.18230985241E+03  0.00000000000E+00 0.  1.
         11    1    1    2    0    0  0.13314255443E+01 -0.74865307784E+00 -0.77046838941E+02  0.77061978733E+02  0.00000000000E+00 0.  1.
        -15    1    1    2    0    0 -0.15727333253E+00  0.37361589567E+01 -0.44982747103E+02  0.45172877754E+02  0.17770000000E+01 0. -1.
         15    1    1    2    0    0  0.37456497309E+01 -0.34670226943E+01 -0.60213240696E+02  0.60455291104E+02  0.17770000000E+01 0.  1.
</event>
<event>
 6    1  0.8353910E-003  0.1843073E+03  0.7546771E-02  0.1067025E+00
        -11   -1    0    0    0    0  0.00000000000E+00  0.00000000000E+00  0.18250000000E+03  0.18250000000E+03  0.00000000000E+00 0.  1.
         11   -1    0    0    0    0 -0.00000000000E+00 -0.00000000000E+00 -0.18250000000E+03  0.18250000000E+03  0.00000000000E+00 0. -1.
        -11    1    1    2    0    0 -0.83720423626E+01  0.23105312930E+01  0.15753207076E+03  0.15777129957E+03  0.00000000000E+00 0.  1.
         11    1    1    2    0    0 -0.69725565024E+00  0.36009685357E+01 -0.18065545336E+03  0.18069268378E+03  0.00000000000E+00 0. -1.
        -15    1    1    2    0    0  0.63683037650E+01 -0.41361696218E+01  0.20705916780E+02  0.22125910392E+02  0.17770000000E+01 0.  1.
         15    1    1    2    0    0  0.27009942478E+01 -0.17753302069E+01  0.24174658207E+01  0.44101062646E+01  0.17770000000E+01 0. -1.
</event>
<event>
 6    1  0.8353910E-003  0.1789298E+03  0.7546771E-02  0.1071333E+00
        -11   -1    0    0    0    0  0.00000000000E+00  0.00000000000E+00  0.18250000000E+03  0.18250000000E+03  0.00000000000E+00 0.  1.
         11   -1    0    0    0    0 -0.00000000000E+00 -0.00000000000E+00 -0.18250000000E+03  0.18250000000E+03  0.00000000000E+00 0.  1.
        -11    1    1    2    0    0 -0.35275092694E+01 -0.14500243642E+01  0.17790553178E+03  0.17794640803E+03  0.00000000000E+00 0.  1.
         11    1    1    2    0    0 -0.12762848818E+01  0.37845876222E+01 -0.17991428856E+03  0.17995861534E+03  0.00000000000E+00 0.  1.
        -15    1    1    2    0    0  0.26963285042E+01 -0.82010908299E-01  0.11867774467E+01  0.34413780524E+01  0.17770000000E+01 0. -1.
         15    1    1    2    0    0  0.21074656471E+01 -0.22525523497E+01  0.82197933419E+00  0.36535985778E+01  0.17770000000E+01 0.  1.
</event>
<event>
 6    1  0.8353910E-003  0.1844909E+03  0.7546771E-02  0.1066881E+00
        -11   -1    0    0    0    0  0.00000000000E+00  0.00000000000E+00  0.18250000000E+03  0.18250000000E+03  0.00000000000E+00 0.  1.
         11   -1    0    0    0    0 -0.00000000000E+00 -0.00000000000E+00 -0.18250000000E+03  0.18250000000E+03  0.00000000000E+00 0. -1.
        -11    1    1    2    0    0 -0.14003595275E+01 -0.71516745729E+01  0.18036189847E+03  0.18050906314E+03  0.00000000000E+00 0.  1.
         11    1    1    2    0    0  0.23953084435E+01 -0.27392669835E+01 -0.13455837971E+03  0.13460757273E+03  0.00000000000E+00 0. -1.
        -15    1    1    2    0    0 -0.45988980065E+01  0.14736854208E+01 -0.27567991366E+01  0.58377463180E+01  0.17770000000E+01 0. -1.
         15    1    1    2    0    0  0.36039490906E+01  0.84172561356E+01 -0.43046719615E+02  0.44045617813E+02  0.17770000000E+01 0.  1.
</event>
<event>
 6    1  0.8353910E-003  0.1830846E+03  0.7546771E-02  0.1067990E+00
        -11   -1    0    0    0    0  0.00000000000E+00  0.00000000000E+00  0.18250000000E+03  0.18250000000E+03  0.00000000000E+00 0. -1.
         11   -1    0    0    0    0 -0.00000000000E+00 -0.00000000000E+00 -0.18250000000E+03  0.18250000000E+03  0.00000000000E+00 0. -1.
        -11    1    1    2    0    0 -0.73869744540E+00  0.39651568111E+01  0.12271981689E+03  0.12278608064E+03  0.00000000000E+00 0. -1.
         11    1    1    2    0    0 -0.28091101108E+01 -0.42263265495E+01 -0.18184462026E+03  0.18191541676E+03  0.00000000000E+00 0. -1.
        -15    1    1    2    0    0  0.36949569481E+01  0.51804707924E+01  0.32877449795E+02  0.33534674868E+02  0.17770000000E+01 0. -1.
         15    1    1    2    0    0 -0.14714939189E+00 -0.49193010540E+01  0.26247353579E+02  0.26763827729E+02  0.17770000000E+01 0.  1.
</event>
<event>
 6    1  0.8353910E-003  0.1848925E+03  0.7546771E-02  0.1066566E+00
        -11   -1    0    0    0    0  0.00000000000E+00  0.00000000000E+00  0.18250000000E+03  0.18250000000E+03  0.00000000000E+00 0.  1.
         11   -1    0    0    0    0 -0.00000000000E+00 -0.00000000000E+00 -0.18250000000E+03  0.18250000000E+03  0.00000000000E+00 0.  1.
        -11    1    1    2    0    0  0.18790723054E+01  0.21684925647E+01  0.18008464065E+03  0.18010749865E+03  0.00000000000E+00 0.  1.
         11    1    1    2    0    0  0.76709293688E+01  0.37258553483E+01 -0.13559094557E+03  0.13585885940E+03  0.00000000000E+00 0.  1.
        -15    1    1    2    0    0 -0.94204307380E+01 -0.71802164369E+01 -0.45172891286E+02  0.46733797829E+02  0.17770000000E+01 0.  1.
         15    1    1    2    0    0 -0.12957093623E+00  0.12858685238E+01  0.67919620976E+00  0.22998441207E+01  0.17770000000E+01 0.  1.
</event>
<event>
 6    1  0.8353910E-003  0.1997216E+03  0.7546771E-02  0.1055517E+00
        -11   -1    0    0    0    0  0.00000000000E+00  0.00000000000E+00  0.18250000000E+03  0.18250000000E+03  0.00000000000E+00 0. -1.
         11   -1    0    0    0    0 -0.00000000000E+00 -0.00000000000E+00 -0.18250000000E+03  0.18250000000E+03  0.00000000000E+00 0. -1.
        -11    1    1    2    0    0 -0.98217631272E+01 -0.87160093204E+01  0.13635692416E+03  0.13698776083E+03  0.00000000000E+00 0. -1.
         11    1    1    2    0    0 -0.87767891542E+01  0.12805905426E+02 -0.16454766126E+03  0.16527841985E+03  0.00000000000E+00 0. -1.
        -15    1    1    2    0    0  0.69303758924E+00 -0.10571352647E+01  0.40605312180E+02  0.40663828427E+02  0.17770000000E+01 0.  1.
         15    1    1    2    0    0  0.17905514692E+02 -0.30327608409E+01 -0.12414575078E+02  0.22069990895E+02  0.17770000000E+01 0. -1.
</event>
<event>
 6    1  0.8353910E-003  0.1833648E+03  0.7546771E-02  0.1067768E+00
        -11   -1    0    0    0    0  0.00000000000E+00  0.00000000000E+00  0.18250000000E+03  0.18250000000E+03  0.00000000000E+00 0.  1.
         11   -1    0    0    0    0 -0.00000000000E+00 -0.00000000000E+00 -0.18250000000E+03  0.18250000000E+03  0.00000000000E+00 0. -1.
        -11    1    1    2    0    0  0.46229100902E+01 -0.51201624470E+01  0.11206654030E+03  0.11227865699E+03  0.00000000000E+00 0.  1.
         11    1    1    2    0    0  0.39890504060E+01  0.84495303923E+01 -0.18139465960E+03  0.18163515524E+03  0.00000000000E+00 0. -1.
        -15    1    1    2    0    0  0.30126149753E+01 -0.40516422213E+00  0.12922236658E+02  0.13393354183E+02  0.17770000000E+01 0.  1.
         15    1    1    2    0    0 -0.11624575471E+02 -0.29242037232E+01  0.56405882643E+02  0.57692833593E+02  0.17770000000E+01 0. -1.
</event>
<event>
 6    1  0.8353910E-003  0.1830072E+03  0.7546771E-02  0.1068052E+00
        -11   -1    0    0    0    0  0.00000000000E+00  0.00000000000E+00  0.18250000000E+03  0.18250000000E+03  0.00000000000E+00 0.  1.
         11   -1    0    0    0    0 -0.00000000000E+00 -0.00000000000E+00 -0.18250000000E+03  0.18250000000E+03  0.00000000000E+00 0. -1.
        -11    1    1    2    0    0 -0.17713610605E+01 -0.34924492832E+01  0.18195070313E+03  0.18199283858E+03  0.00000000000E+00 0.  1.
         11    1    1    2    0    0  0.11219541725E+01  0.25343683722E+01 -0.12365102776E+03  0.12368208630E+03  0.00000000000E+00 0. -1.
        -15    1    1    2    0    0 -0.24950493448E+01 -0.79328393304E+00 -0.50057526253E+02  0.50157434486E+02  0.17770000000E+01 0.  1.
         15    1    1    2    0    0  0.31444562328E+01  0.17513648440E+01 -0.82421491201E+01  0.91676406417E+01  0.17770000000E+01 0. -1.
</event>
<event>
 6    1  0.8353910E-003  0.1853037E+03  0.7546771E-02  0.1066245E+00
        -11   -1    0    0    0    0  0.00000000000E+00  0.00000000000E+00  0.18250000000E+03  0.18250000000E+03  0.00000000000E+00 0. -1.
         11   -1    0    0    0    0 -0.00000000000E+00 -0.00000000000E+00 -0.18250000000E+03  0.18250000000E+03  0.00000000000E+00 0.  1.
        -11    1    1    2    0    0 -0.96900910988E+01 -0.57325344394E+01  0.14833271600E+03  0.14875938442E+03  0.00000000000E+00 0. -1.
         11    1    1    2    0    0 -0.11605673848E+01 -0.23281465201E+01 -0.17967750650E+03  0.17969633698E+03  0.00000000000E+00 0.  1.
        -15    1    1    2    0    0  0.80971079300E+01  0.87775142603E+01  0.12407607742E+02  0.17312260751E+02  0.17770000000E+01 0.  1.
         15    1    1    2    0    0  0.27535505537E+01 -0.71683330077E+00  0.18937182755E+02  0.19232017844E+02  0.17770000000E+01 0. -1.
</event>
<event>
 6    1  0.8353910E-003  0.1862808E+03  0.7546771E-02  0.1065484E+00
        -11   -1    0    0    0    0  0.00000000000E+00  0.00000000000E+00  0.18250000000E+03  0.18250000000E+03  0.00000000000E+00 0.  1.
         11   -1    0    0    0    0 -0.00000000000E+00 -0.00000000000E+00 -0.18250000000E+03  0.18250000000E+03  0.00000000000E+00 0.  1.
        -11    1    1    2    0    0  0.15347328739E+01  0.21551691770E+01  0.17869958740E+03  0.17871917272E+03  0.00000000000E+00 0.  1.
         11    1    1    2    0    0 -0.53206482778E+00  0.96421117096E+00 -0.47927384170E+02  0.47940034935E+02  0.00000000000E+00 0.  1.
        -15    1    1    2    0    0 -0.14134231472E+01 -0.10823799897E+02 -0.12990631459E+03  0.13037622754E+03  0.17770000000E+01 0.  1.
         15    1    1    2    0    0  0.41075510105E+00  0.77044195487E+01 -0.86588864289E+00  0.79645648015E+01  0.17770000000E+01 0. -1.
</event>
<event>
 6    1  0.8353910E-003  0.1828496E+03  0.7546771E-02  0.1068177E+00
        -11   -1    0    0    0    0  0.00000000000E+00  0.00000000000E+00  0.18250000000E+03  0.18250000000E+03  0.00000000000E+00 0.  1.
         11   -1    0    0    0    0 -0.00000000000E+00 -0.00000000000E+00 -0.18250000000E+03  0.18250000000E+03  0.00000000000E+00 0. -1.
        -11    1    1    2    0    0 -0.51031226821E+00  0.10568446770E+01  0.62414172632E+02  0.62425205523E+02  0.00000000000E+00 0.  1.
         11    1    1    2    0    0 -0.42859326901E+00 -0.34231789246E+01 -0.18211777285E+03  0.18215044615E+03  0.00000000000E+00 0. -1.
        -15    1    1    2    0    0 -0.40817223054E+01  0.48549989047E+01  0.43689296644E+02  0.44183071889E+02  0.17770000000E+01 0. -1.
         15    1    1    2    0    0  0.50206278426E+01 -0.24886646571E+01  0.76014303573E+02  0.76241276435E+02  0.17770000000E+01 0.  1.
</event>
<event>
 6    1  0.8353910E-003  0.1827879E+03  0.7546771E-02  0.1068226E+00
        -11   -1    0    0    0    0  0.00000000000E+00  0.00000000000E+00  0.18250000000E+03  0.18250000000E+03  0.00000000000E+00 0.  1.
         11   -1    0    0    0    0 -0.00000000000E+00 -0.00000000000E+00 -0.18250000000E+03  0.18250000000E+03  0.00000000000E+00 0.  1.
        -11    1    1    2    0    0  0.25849281931E+00  0.73806502429E+00  0.22402113431E+02  0.22415758847E+02  0.00000000000E+00 0.  1.
         11    1    1    2    0    0 -0.29081476204E+01  0.80294695947E+00 -0.18218713574E+03  0.18221211397E+03  0.00000000000E+00 0.  1.
        -15    1    1    2    0    0  0.45441208879E+01 -0.31301067449E+01  0.30199791241E+02  0.30751125555E+02  0.17770000000E+01 0.  1.
         15    1    1    2    0    0 -0.18944660868E+01  0.15890947611E+01  0.12958523107E+03  0.12962100163E+03  0.17770000000E+01 0.  1.
</event>
<event>
 6    1  0.8353910E-003  0.1826624E+03  0.7546771E-02  0.1068326E+00
        -11   -1    0    0    0    0  0.00000000000E+00  0.00000000000E+00  0.18250000000E+03  0.18250000000E+03  0.00000000000E+00 0.  1.
         11   -1    0    0    0    0 -0.00000000000E+00 -0.00000000000E+00 -0.18250000000E+03  0.18250000000E+03  0.00000000000E+00 0. -1.
        -11    1    1    2    0    0 -0.89207988795E+00  0.24481547390E+01  0.18231897543E+03  0.18233759368E+03  0.00000000000E+00 0.  1.
         11    1    1    2    0    0 -0.95647870913E+00  0.46975747386E+00 -0.40224466953E+02  0.40238579315E+02  0.00000000000E+00 0. -1.
        -15    1    1    2    0    0  0.48727830326E+01 -0.14156649002E+00 -0.80574570994E+02  0.80741459458E+02  0.17770000000E+01 0. -1.
         15    1    1    2    0    0 -0.30242244355E+01 -0.27763457229E+01 -0.61519937483E+02  0.61682367545E+02  0.17770000000E+01 0.  1.
</event>
<event>
 6    1  0.1563687E-002  0.1856611E+03  0.7546771E-02  0.1065966E+00
        -11   -1    0    0    0    0  0.00000000000E+00  0.00000000000E+00  0.18250000000E+03  0.18250000000E+03  0.00000000000E+00 0.  1.
         11   -1    0    0    0    0 -0.00000000000E+00 -0.00000000000E+00 -0.18250000000E+03  0.18250000000E+03  0.00000000000E+00 0.  1.
        -11    1    1    2    0    0  0.10481202396E+01 -0.26394174829E+01  0.17931643914E+03  0.17933892613E+03  0.00000000000E+00 0.  1.
         11    1    1    2    0    0  0.13444263574E+01  0.22385894403E+01 -0.15647420994E+03  0.15649599720E+03  0.00000000000E+00 0.  1.
        -15    1    1    2    0    0 -0.14987914249E+01 -0.18303005500E+01 -0.25190655855E+02  0.25363817679E+02  0.17770000000E+01 0. -1.
         15    1    1    2    0    0 -0.89375517218E+00  0.22311285925E+01  0.23484266541E+01  0.38012589828E+01  0.17770000000E+01 0. -1.
</event>
<event>
 6    1  0.8353910E-003  0.1827876E+03  0.7546771E-02  0.1068226E+00
        -11   -1    0    0    0    0  0.00000000000E+00  0.00000000000E+00  0.18250000000E+03  0.18250000000E+03  0.00000000000E+00 0.  1.
         11   -1    0    0    0    0 -0.00000000000E+00 -0.00000000000E+00 -0.18250000000E+03  0.18250000000E+03  0.00000000000E+00 0. -1.
        -11    1    1    2    0    0 -0.14317629254E+01 -0.99410469747E+00  0.11997527026E+03  0.11998793132E+03  0.00000000000E+00 0.  1.
         11    1    1    2    0    0 -0.18922664552E+01 -0.32767697346E+01 -0.18217313831E+03  0.18221243156E+03  0.00000000000E+00 0. -1.
        -15    1    1    2    0    0  0.11169015693E+01  0.48871705621E+01  0.29687152646E+02  0.30159851897E+02  0.17770000000E+01 0.  1.
         15    1    1    2    0    0  0.22071278113E+01 -0.61629612996E+00  0.32510715408E+02  0.32639785223E+02  0.17770000000E+01 0.  1.
</event>
<event>
 6    1  0.8353910E-003  0.1830411E+03  0.7546771E-02  0.1068025E+00
        -11   -1    0    0    0    0  0.00000000000E+00  0.00000000000E+00  0.18250000000E+03  0.18250000000E+03  0.00000000000E+00 0. -1.
         11   -1    0    0    0    0 -0.00000000000E+00 -0.00000000000E+00 -0.18250000000E+03  0.18250000000E+03  0.00000000000E+00 0.  1.
        -11    1    1    2    0    0 -0.23040632736E+01 -0.10794009313E+01  0.18194111349E+03  0.18195890358E+03  0.00000000000E+00 0. -1.
         11    1    1    2    0    0  0.49385770973E+01 -0.10247836729E+01 -0.12020044500E+03  0.12030622055E+03  0.00000000000E+00 0.  1.
        -15    1    1    2    0    0  0.65719927874E+00 -0.60321047443E+00 -0.20146077174E+01  0.28305736209E+01  0.17770000000E+01 0. -1.
         15    1    1    2    0    0 -0.32917131024E+01  0.27073950787E+01 -0.59726060772E+02  0.59904302246E+02  0.17770000000E+01 0.  1.
</event>
<event>
 6    1  0.8353910E-003  0.1772582E+03  0.7546771E-02  0.1072706E+00
        -11   -1    0    0    0    0  0.00000000000E+00  0.00000000000E+00  0.18250000000E+03  0.18250000000E+03  0.00000000000E+00 0.  1.
         11   -1    0    0    0    0 -0.00000000000E+00 -0.00000000000E+00 -0.18250000000E+03  0.18250000000E+03  0.00000000000E+00 0. -1.
        -11    1    1    2    0    0  0.38172045930E+00  0.26614407749E+01  0.17753560967E+03  0.17755596773E+03  0.00000000000E+00 0.  1.
         11    1    1    2    0    0 -0.31496321504E+01  0.98312568111E+00 -0.17695973680E+03  0.17699049457E+03  0.00000000000E+00 0. -1.
        -15    1    1    2    0    0  0.33417204847E+01 -0.42637825806E+00 -0.39093296900E+01  0.54579741518E+01  0.17770000000E+01 0. -1.
         15    1    1    2    0    0 -0.57380879363E+00 -0.32181881980E+01  0.33334568197E+01  0.49955635496E+01  0.17770000000E+01 0. -1.
</event>
<event>
 6    1  0.8353910E-003  0.1844031E+03  0.7546771E-02  0.1066950E+00
        -11   -1    0    0    0    0  0.00000000000E+00  0.00000000000E+00  0.18250000000E+03  0.18250000000E+03  0.00000000000E+00 0.  1.
         11   -1    0    0    0    0 -0.00000000000E+00 -0.00000000000E+00 -0.18250000000E+03  0.18250000000E+03  0.00000000000E+00 0.  1.
        -11    1    1    2    0    0 -0.14166487561E+01  0.22304538844E+01  0.74458670519E+02  0.74505539618E+02  0.00000000000E+00 0.  1.
         11    1    1    2    0    0  0.72158754102E+01 -0.91634340238E-01 -0.18045262938E+03  0.18059686793E+03  0.00000000000E+00 0.  1.
        -15    1    1    2    0    0 -0.58061997238E+01 -0.14778845367E+02  0.51125821457E+02  0.53564293838E+02  0.17770000000E+01 0. -1.
         15    1    1    2    0    0  0.69730696628E-02  0.12640025823E+02  0.54868137406E+02  0.56333298615E+02  0.17770000000E+01 0.  1.
</event>
<event>
 6    1  0.8353910E-003  0.1948777E+03  0.7546771E-02  0.1059008E+00
        -11   -1    0    0    0    0  0.00000000000E+00  0.00000000000E+00  0.18250000000E+03  0.18250000000E+03  0.00000000000E+00 0. -1.
         11   -1    0    0    0    0 -0.00000000000E+00 -0.00000000000E+00 -0.18250000000E+03  0.18250000000E+03  0.00000000000E+00 0.  1.
        -11    1    1    2    0    0  0.35551212945E+01 -0.29009112128E+01  0.17006042760E+03  0.17012231837E+03  0.00000000000E+00 0. -1.
         11    1    1    2    0    0  0.15477734654E+01 -0.32505221439E+01 -0.11423986500E+03  0.11429658023E+03  0.00000000000E+00 0.  1.
        -15    1    1    2    0    0 -0.35531144785E+01  0.39057506675E+01 -0.67870603146E+02  0.68098869383E+02  0.17770000000E+01 0.  1.
         15    1    1    2    0    0 -0.15497802814E+01  0.22456826892E+01  0.12050040553E+02  0.12482232012E+02  0.17770000000E+01 0.  1.
</event>
<event>
 6    1  0.8353910E-003  0.1867534E+03  0.7546771E-02  0.1065119E+00
        -11   -1    0    0    0    0  0.00000000000E+00  0.00000000000E+00  0.18250000000E+03  0.18250000000E+03  0.00000000000E+00 0.  1.
         11   -1    0    0    0    0 -0.00000000000E+00 -0.00000000000E+00 -0.18250000000E+03  0.18250000000E+03  0.00000000000E+00 0.  1.
        -11    1    1    2    0    0  0.33515654853E+01 -0.36110246747E+01  0.17013772110E+03  0.17020903804E+03  0.00000000000E+00 0.  1.
         11    1    1    2    0    0  0.27368443012E+01 -0.26221157719E+01 -0.17820630033E+03  0.17824660245E+03  0.00000000000E+00 0.  1.
        -15    1    1    2    0    0  0.88776208384E+00 -0.16213455013E+01  0.47278922024E+01  0.53784362439E+01  0.17770000000E+01 0. -1.
         15    1    1    2    0    0 -0.69761718704E+01  0.78544859480E+01  0.33406870353E+01  0.11165923264E+02  0.17770000000E+01 0.  1.
</event>
<event>
 6    1  0.8353910E-003  0.1826344E+03  0.7546771E-02  0.1068348E+00
        -11   -1    0    0    0    0  0.00000000000E+00  0.00000000000E+00  0.18250000000E+03  0.18250000000E+03  0.00000000000E+00 0. -1.
         11   -1    0    0    0    0 -0.00000000000E+00 -0.00000000000E+00 -0.18250000000E+03  0.18250000000E+03  0.00000000000E+00 0.  1.
        -11    1    1    2    0    0 -0.19298222670E+01  0.28588244279E+00  0.80242840435E+02  0.80266552087E+02  0.00000000000E+00 0. -1.
         11    1    1    2    0    0 -0.47487953984E+00  0.69154976626E+01 -0.18223380182E+03  0.18236558926E+03  0.00000000000E+00 0.  1.
        -15    1    1    2    0    0  0.98876407601E+00 -0.51349116277E+01  0.74902592906E+02  0.75105932687E+02  0.17770000000E+01 0. -1.
         15    1    1    2    0    0  0.14159377309E+01 -0.20664684777E+01  0.27088368480E+02  0.27261925969E+02  0.17770000000E+01 0.  1.
</event>
<event>
 6    1  0.8353910E-003  0.1327727E+03  0.7546771E-02  0.1116802E+00
        -11   -1    0    0    0    0  0.00000000000E+00  0.00000000000E+00  0.18250000000E+03  0.18250000000E+03  0.00000000000E+00 0.  1.
         11   -1    0    0    0    0 -0.00000000000E+00 -0.00000000000E+00 -0.18250000000E+03  0.18250000000E+03  0.00000000000E+00 0.  1.
        -11    1    1    2    0    0  0.68340540910E+00  0.10654625760E+01  0.46085977967E+02  0.46103357997E+02  0.00000000000E+00 0.  1.
         11    1    1    2    0    0 -0.12017957373E+02 -0.35092854294E+02 -0.13398620201E+03  0.13902604811E+03  0.00000000000E+00 0.  1.
        -15    1    1    2    0    0 -0.11710132894E+02  0.31117648410E+02 -0.38753482587E+02  0.51092322286E+02  0.17770000000E+01 0. -1.
         15    1    1    2    0    0  0.23044684858E+02  0.29097433081E+01  0.12665370663E+03  0.12877827161E+03  0.17770000000E+01 0.  1.
</event>
<event>
 6    1  0.8353910E-003  0.1831445E+03  0.7546771E-02  0.1067943E+00
        -11   -1    0    0    0    0  0.00000000000E+00  0.00000000000E+00  0.18250000000E+03  0.18250000000E+03  0.00000000000E+00 0. -1.
         11   -1    0    0    0    0 -0.00000000000E+00 -0.00000000000E+00 -0.18250000000E+03  0.18250000000E+03  0.00000000000E+00 0.  1.
        -11    1    1    2    0    0 -0.35885185609E+01  0.10422010227E+01  0.18181712282E+03  0.18185551902E+03  0.00000000000E+00 0. -1.
         11    1    1    2    0    0  0.38100158239E+01  0.59129897474E+00 -0.13439903314E+03  0.13445432668E+03  0.00000000000E+00 0.  1.
        -15    1    1    2    0    0  0.32775628631E+01 -0.46228895109E+01 -0.30241792470E+02  0.30819430016E+02  0.17770000000E+01 0.  1.
         15    1    1    2    0    0 -0.34990601260E+01  0.29893895135E+01 -0.17176297212E+02  0.17870724281E+02  0.17770000000E+01 0. -1.
</event>
<event>
 6    1  0.8353910E-003  0.1864903E+03  0.7546771E-02  0.1065322E+00
        -11   -1    0    0    0    0  0.00000000000E+00  0.00000000000E+00  0.18250000000E+03  0.18250000000E+03  0.00000000000E+00 0. -1.
         11   -1    0    0    0    0 -0.00000000000E+00 -0.00000000000E+00 -0.18250000000E+03  0.18250000000E+03  0.00000000000E+00 0. -1.
        -11    1    1    2    0    0  0.12026610919E+02  0.11532808098E+02  0.17773032058E+03  0.17850969690E+03  0.00000000000E+00 0. -1.
         11    1    1    2    0    0 -0.41251314732E+01  0.12439425162E+01 -0.10972140167E+03  0.10980596563E+03  0.00000000000E+00 0. -1.
        -15    1    1    2    0    0  0.12240794805E+02 -0.67742703953E+01 -0.31658192226E+02  0.34657274285E+02  0.17770000000E+01 0. -1.
         15    1    1    2    0    0 -0.20142274251E+02 -0.60024802192E+01 -0.36350726681E+02  0.42027063186E+02  0.17770000000E+01 0.  1.
</event>
<event>
 6    1  0.8353910E-003  0.1830176E+03  0.7546771E-02  0.1068044E+00
        -11   -1    0    0    0    0  0.00000000000E+00  0.00000000000E+00  0.18250000000E+03  0.18250000000E+03  0.00000000000E+00 0. -1.
         11   -1    0    0    0    0 -0.00000000000E+00 -0.00000000000E+00 -0.18250000000E+03  0.18250000000E+03  0.00000000000E+00 0. -1.
        -11    1    1    2    0    0  0.86593358645E-01 -0.64528860635E+00  0.10580653439E+02  0.10600666158E+02  0.00000000000E+00 0. -1.
         11    1    1    2    0    0 -0.15859269954E+01 -0.20269295231E+01 -0.18196418204E+03  0.18198238143E+03  0.00000000000E+00 0. -1.
        -15    1    1    2    0    0  0.20976791544E+00 -0.13426441158E+01  0.16160711800E+03  0.16162260057E+03  0.17770000000E+01 0. -1.
         15    1    1    2    0    0  0.12895657213E+01  0.40148622452E+01  0.97764105965E+01  0.10794351845E+02  0.17770000000E+01 0. -1.
</event>
<event>
 6    1  0.8353910E-003  0.1838645E+03  0.7546771E-02  0.1067374E+00
        -11   -1    0    0    0    0  0.00000000000E+00  0.00000000000E+00  0.18250000000E+03  0.18250000000E+03  0.00000000000E+00 0. -1.
         11   -1    0    0    0    0 -0.00000000000E+00 -0.00000000000E+00 -0.18250000000E+03  0.18250000000E+03  0.00000000000E+00 0.  1.
        -11    1    1    2    0    0  0.26403628998E+01 -0.37410770525E+00  0.17001775092E+03  0.17003866355E+03  0.00000000000E+00 0. -1.
         11    1    1    2    0    0 -0.30450084200E+01 -0.41360087602E+01 -0.18106269097E+03  0.18113552028E+03  0.00000000000E+00 0.  1.
        -15    1    1    2    0    0  0.11253452279E+01  0.20581790309E+01  0.70305430927E+00  0.30256432650E+01  0.17770000000E+01 0. -1.
         15    1    1    2    0    0 -0.72069970767E+00  0.24519374346E+01  0.10341885739E+02  0.10800172910E+02  0.17770000000E+01 0.  1.
</event>
<event>
 6    1  0.8353910E-003  0.1912563E+03  0.7546771E-02  0.1061691E+00
        -11   -1    0    0    0    0  0.00000000000E+00  0.00000000000E+00  0.18250000000E+03  0.18250000000E+03  0.00000000000E+00 0.  1.
         11   -1    0    0    0    0 -0.00000000000E+00 -0.00000000000E+00 -0.18250000000E+03  0.18250000000E+03  0.00000000000E+00 0. -1.
        -11    1    1    2    0    0  0.51056476863E+01  0.58963056677E+01  0.17356853671E+03  0.17374369339E+03  0.00000000000E+00 0.  1.
         11    1    1    2    0    0 -0.13858835652E+02 -0.12039966713E+02 -0.10304681729E+03  0.10466935883E+03  0.00000000000E+00 0. -1.
        -15    1    1    2    0    0 -0.16838796129E+02 -0.17549732102E+01 -0.85450930298E+01  0.19047344432E+02  0.17770000000E+01 0.  1.
         15    1    1    2    0    0  0.25591984095E+02  0.78986342551E+01 -0.61976626387E+02  0.67539603347E+02  0.17770000000E+01 0. -1.
</event>
<event>
 6    1  0.8353910E-003  0.1863974E+03  0.7546771E-02  0.1065394E+00
        -11   -1    0    0    0    0  0.00000000000E+00  0.00000000000E+00  0.18250000000E+03  0.18250000000E+03  0.00000000000E+00 0.  1.
         11   -1    0    0    0    0 -0.00000000000E+00 -0.00000000000E+00 -0.18250000000E+03  0.18250000000E+03  0.00000000000E+00 0.  1.
        -11    1    1    2    0    0 -0.12232444441E+02  0.59067242053E+01  0.17808527667E+03  0.17860259756E+03  0.00000000000E+00 0.  1.
         11    1    1    2    0    0 -0.61170008658E+00 -0.70199881609E+01 -0.14609131343E+03  0.14626115777E+03  0.00000000000E+00 0.  1.
        -15    1    1    2    0    0  0.28715049774E+01  0.69346531551E+01 -0.25767880364E+02  0.26897515549E+02  0.17770000000E+01 0. -1.
         15    1    1    2    0    0  0.99726395499E+01 -0.58213891995E+01 -0.62260828785E+01  0.13238729124E+02  0.17770000000E+01 0.  1.
</event>
<event>
 6    1  0.8353910E-003  0.1838495E+03  0.7546771E-02  0.1067386E+00
        -11   -1    0    0    0    0  0.00000000000E+00  0.00000000000E+00  0.18250000000E+03  0.18250000000E+03  0.00000000000E+00 0.  1.
         11   -1    0    0    0    0 -0.00000000000E+00 -0.00000000000E+00 -0.18250000000E+03  0.18250000000E+03  0.00000000000E+00 0.  1.
        -11    1    1    2    0    0 -0.33521608353E+01 -0.14269050979E+01  0.18111388447E+03  0.18115052357E+03  0.00000000000E+00 0.  1.
         11    1    1    2    0    0 -0.16800765609E+01  0.12243567484E+01 -0.14547204625E+03  0.14548689957E+03  0.00000000000E+00 0.  1.
        -15    1    1    2    0    0  0.33748763013E+01 -0.57830383359E+01 -0.12020764496E+02  0.13874070437E+02  0.17770000000E+01 0. -1.
         15    1    1    2    0    0  0.16573610949E+01  0.59855866854E+01 -0.23621073724E+02  0.24488506420E+02  0.17770000000E+01 0.  1.
</event>
<event>
 6    1  0.8353910E-003  0.1826992E+03  0.7546771E-02  0.1068296E+00
        -11   -1    0    0    0    0  0.00000000000E+00  0.00000000000E+00  0.18250000000E+03  0.18250000000E+03  0.00000000000E+00 0.  1.
         11   -1    0    0    0    0 -0.00000000000E+00 -0.00000000000E+00 -0.18250000000E+03  0.18250000000E+03  0.00000000000E+00 0. -1.
        -11    1    1    2    0    0 -0.47697126136E+00 -0.24186216030E+01  0.93167371563E+02  0.93199980450E+02  0.00000000000E+00 0.  1.
         11    1    1    2    0    0  0.12085797178E+01 -0.30407112973E+01 -0.18227146108E+03  0.18230082861E+03  0.00000000000E+00 0. -1.
        -15    1    1    2    0    0 -0.12910816118E+01  0.60445307875E+01  0.70621735121E+02  0.70913965090E+02  0.17770000000E+01 0. -1.
         15    1    1    2    0    0  0.55947315539E+00 -0.58519788717E+00  0.18482354394E+02  0.18585225845E+02  0.17770000000E+01 0. -1.
</event>
<event>
 6    1  0.8353910E-003  0.1828025E+03  0.7546771E-02  0.1068214E+00
        -11   -1    0    0    0    0  0.00000000000E+00  0.00000000000E+00  0.18250000000E+03  0.18250000000E+03  0.00000000000E+00 0. -1.
         11   -1    0    0    0    0 -0.00000000000E+00 -0.00000000000E+00 -0.18250000000E+03  0.18250000000E+03  0.00000000000E+00 0.  1.
        -11    1    1    2    0    0 -0.44462025391E+01  0.72508293116E-01  0.18214321343E+03  0.18219748674E+03  0.00000000000E+00 0. -1.
         11    1    1    2    0    0  0.19316894150E+01 -0.24886861104E+00 -0.97032306135E+02  0.97051851056E+02  0.00000000000E+00 0.  1.
        -15    1    1    2    0    0 -0.21078133476E+01 -0.32560007529E+01 -0.28065371078E+02  0.28387800210E+02  0.17770000000E+01 0.  1.
         15    1    1    2    0    0  0.46223264717E+01  0.34323610709E+01 -0.57045536221E+02  0.57362861995E+02  0.17770000000E+01 0. -1.
</event>
<event>
 6    1  0.8353910E-003  0.1913123E+03  0.7546771E-02  0.1061649E+00
        -11   -1    0    0    0    0  0.00000000000E+00  0.00000000000E+00  0.18250000000E+03  0.18250000000E+03  0.00000000000E+00 0. -1.
         11   -1    0    0    0    0 -0.00000000000E+00 -0.00000000000E+00 -0.18250000000E+03  0.18250000000E+03  0.00000000000E+00 0.  1.
        -11    1    1    2    0    0  0.13310139578E+01 -0.23412237396E+01  0.16019976291E+03  0.16022239845E+03  0.00000000000E+00 0. -1.
         11    1    1    2    0    0  0.80944485965E+01  0.16880875474E+01 -0.17349074105E+03  0.17368767074E+03  0.00000000000E+00 0.  1.
        -15    1    1    2    0    0 -0.13514687744E+01  0.73195488744E+01  0.17934566119E+02  0.19498939829E+02  0.17770000000E+01 0. -1.
         15    1    1    2    0    0 -0.80739937798E+01 -0.66664126822E+01 -0.46435879785E+01  0.11590990981E+02  0.17770000000E+01 0.  1.
</event>
<event>
 6    1  0.8353910E-003  0.1826136E+03  0.7546771E-02  0.1068364E+00
        -11   -1    0    0    0    0  0.00000000000E+00  0.00000000000E+00  0.18250000000E+03  0.18250000000E+03  0.00000000000E+00 0.  1.
         11   -1    0    0    0    0 -0.00000000000E+00 -0.00000000000E+00 -0.18250000000E+03  0.18250000000E+03  0.00000000000E+00 0.  1.
        -11    1    1    2    0    0 -0.55569341522E+00 -0.50875732443E-01  0.29246567923E+02  0.29251890858E+02  0.00000000000E+00 0.  1.
         11    1    1    2    0    0  0.30730077483E+01 -0.21406283983E+01 -0.18234792653E+03  0.18238638101E+03  0.00000000000E+00 0.  1.
        -15    1    1    2    0    0 -0.11113690710E+01  0.35917663837E+01  0.37532959187E+02  0.37762636048E+02  0.17770000000E+01 0. -1.
         15    1    1    2    0    0 -0.14059452621E+01 -0.14002622529E+01  0.11556839942E+03  0.11559909208E+03  0.17770000000E+01 0.  1.
</event>
<event>
 6    1  0.8353910E-003  0.1837982E+03  0.7546771E-02  0.1067426E+00
        -11   -1    0    0    0    0  0.00000000000E+00  0.00000000000E+00  0.18250000000E+03  0.18250000000E+03  0.00000000000E+00 0. -1.
         11   -1    0    0    0    0 -0.00000000000E+00 -0.00000000000E+00 -0.18250000000E+03  0.18250000000E+03  0.00000000000E+00 0. -1.
        -11    1    1    2    0    0  0.21557561618E+00 -0.22749638044E+01  0.11888479091E+03  0.11890675103E+03  0.00000000000E+00 0. -1.
         11    1    1    2    0    0 -0.31959419643E+01 -0.35708990694E+00 -0.18117323952E+03  0.18120177780E+03  0.00000000000E+00 0. -1.
        -15    1    1    2    0    0 -0.30151662230E+01 -0.13695798591E+01  0.52357629534E+02  0.52492343020E+02  0.17770000000E+01 0.  1.
         15    1    1    2    0    0  0.59955325711E+01  0.40016335703E+01  0.99308190853E+01  0.12399128145E+02  0.17770000000E+01 0. -1.
</event>
<event>
 6    1  0.8353910E-003  0.1881676E+03  0.7546771E-02  0.1064031E+00
        -11   -1    0    0    0    0  0.00000000000E+00  0.00000000000E+00  0.18250000000E+03  0.18250000000E+03  0.00000000000E+00 0.  1.
         11   -1    0    0    0    0 -0.00000000000E+00 -0.00000000000E+00 -0.18250000000E+03  0.18250000000E+03  0.00000000000E+00 0.  1.
        -11    1    1    2    0    0 -0.29890028488E+01 -0.79014621329E+00  0.16718450811E+03  0.16721309225E+03  0.00000000000E+00 0.  1.
         11    1    1    2    0    0  0.60635394765E+01 -0.31306326148E+01 -0.17670064388E+03  0.17683236389E+03  0.00000000000E+00 0.  1.
        -15    1    1    2    0    0 -0.55474344311E+01  0.47114809229E+01  0.13762551183E+02  0.15669640242E+02  0.17770000000E+01 0.  1.
         15    1    1    2    0    0  0.24728978034E+01 -0.79070209488E+00 -0.42464154144E+01  0.52849036151E+01  0.17770000000E+01 0. -1.
</event>
<event>
 6    1  0.8353910E-003  0.1888290E+03  0.7546771E-02  0.1063526E+00
        -11   -1    0    0    0    0  0.00000000000E+00  0.00000000000E+00  0.18250000000E+03  0.18250000000E+03  0.00000000000E+00 0.  1.
         11   -1    0    0    0    0 -0.00000000000E+00 -0.00000000000E+00 -0.18250000000E+03  0.18250000000E+03  0.00000000000E+00 0. -1.
        -11    1    1    2    0    0  0.30040989079E+01  0.19808779536E+01  0.17613428240E+03  0.17617103600E+03  0.00000000000E+00 0.  1.
         11    1    1    2    0    0 -0.38233723122E+01  0.27505389880E+00 -0.17413862081E+03  0.17418080574E+03  0.00000000000E+00 0. -1.
        -15    1    1    2    0    0  0.16368221068E+01 -0.58471227589E+00 -0.78603205770E+01  0.82439943976E+01  0.17770000000E+01 0.  1.
         15    1    1    2    0    0 -0.81754870243E+00 -0.16712195765E+01  0.58646589881E+01  0.64041638643E+01  0.17770000000E+01 0.  1.
</event>
<event>
 6    1  0.8353910E-003  0.1827391E+03  0.7546771E-02  0.1068265E+00
        -11   -1    0    0    0    0  0.00000000000E+00  0.00000000000E+00  0.18250000000E+03  0.18250000000E+03  0.00000000000E+00 0.  1.
         11   -1    0    0    0    0 -0.00000000000E+00 -0.00000000000E+00 -0.18250000000E+03  0.18250000000E+03  0.00000000000E+00 0. -1.
        -11    1    1    2    0    0  0.32403114914E+01  0.23529613149E+01  0.18221693218E+03  0.18226092949E+03  0.00000000000E+00 0.  1.
         11    1    1    2    0    0 -0.16626065047E+01  0.13961733482E+01 -0.14796834016E+03  0.14798426690E+03  0.00000000000E+00 0. -1.
        -15    1    1    2    0    0 -0.98579350703E+00 -0.33837763564E+01 -0.25193021967E+02  0.25500349333E+02  0.17770000000E+01 0. -1.
         15    1    1    2    0    0 -0.59191147966E+00 -0.36535830681E+00 -0.90555700560E+01  0.92544542752E+01  0.17770000000E+01 0.  1.
</event>
<event>
 6    1  0.8353910E-003  0.1870082E+03  0.7546771E-02  0.1064922E+00
        -11   -1    0    0    0    0  0.00000000000E+00  0.00000000000E+00  0.18250000000E+03  0.18250000000E+03  0.00000000000E+00 0. -1.
         11   -1    0    0    0    0 -0.00000000000E+00 -0.00000000000E+00 -0.18250000000E+03  0.18250000000E+03  0.00000000000E+00 0.  1.
        -11    1    1    2    0    0 -0.18584958312E+01 -0.31418125138E+01  0.17795432102E+03  0.17799175644E+03  0.00000000000E+00 0. -1.
         11    1    1    2    0    0 -0.43473709857E+01 -0.58797991649E+00 -0.17264174686E+03  0.17269747570E+03  0.00000000000E+00 0.  1.
        -15    1    1    2    0    0  0.41987193270E+01  0.30654578115E+01 -0.84826203871E+01  0.10106376859E+02  0.17770000000E+01 0. -1.
         15    1    1    2    0    0  0.20071474898E+01  0.66433461873E+00  0.31700462319E+01  0.42043909956E+01  0.17770000000E+01 0.  1.
</event>
<event>
 6    1  0.8353910E-003  0.1843962E+03  0.7546771E-02  0.1066955E+00
        -11   -1    0    0    0    0  0.00000000000E+00  0.00000000000E+00  0.18250000000E+03  0.18250000000E+03  0.00000000000E+00 0.  1.
         11   -1    0    0    0    0 -0.00000000000E+00 -0.00000000000E+00 -0.18250000000E+03  0.18250000000E+03  0.00000000000E+00 0. -1.
        -11    1    1    2    0    0 -0.36151528005E+01  0.22649045538E+01  0.18055343709E+03  0.18060382822E+03  0.00000000000E+00 0.  1.
         11    1    1    2    0    0 -0.15181520466E+01  0.26030871664E+01 -0.97649643499E+02  0.97696129524E+02  0.00000000000E+00 0. -1.
        -15    1    1    2    0    0  0.94226153583E+01 -0.62367627697E+01 -0.80476111468E+02  0.81284962545E+02  0.17770000000E+01 0.  1.
         15    1    1    2    0    0 -0.42893105111E+01  0.13687710495E+01 -0.24276821202E+01  0.54150797153E+01  0.17770000000E+01 0. -1.
</event>
<event>
 6    1  0.8353910E-003  0.1706315E+03  0.7546771E-02  0.1078315E+00
        -11   -1    0    0    0    0  0.00000000000E+00  0.00000000000E+00  0.18250000000E+03  0.18250000000E+03  0.00000000000E+00 0.  1.
         11   -1    0    0    0    0 -0.00000000000E+00 -0.00000000000E+00 -0.18250000000E+03  0.18250000000E+03  0.00000000000E+00 0. -1.
        -11    1    1    2    0    0 -0.12154627882E+01 -0.35761889134E+01  0.17256746628E+03  0.17260879727E+03  0.00000000000E+00 0.  1.
         11    1    1    2    0    0 -0.34955931469E-01 -0.95280937710E+01 -0.16866141806E+03  0.16893033989E+03  0.00000000000E+00 0. -1.
        -15    1    1    2    0    0 -0.61356966835E+01 -0.12207277936E+01 -0.31560107743E+01  0.72287677473E+01  0.17770000000E+01 0.  1.
         15    1    1    2    0    0  0.73861154031E+01  0.14325010478E+02 -0.75003744877E+00  0.16232095093E+02  0.17770000000E+01 0. -1.
</event>
<event>
 6    1  0.8353910E-003  0.1842476E+03  0.7546771E-02  0.1067072E+00
        -11   -1    0    0    0    0  0.00000000000E+00  0.00000000000E+00  0.18250000000E+03  0.18250000000E+03  0.00000000000E+00 0. -1.
         11   -1    0    0    0    0 -0.00000000000E+00 -0.00000000000E+00 -0.18250000000E+03  0.18250000000E+03  0.00000000000E+00 0.  1.
        -11    1    1    2    0    0  0.22865007173E+01  0.38668297575E+01  0.18069657276E+03  0.18075240487E+03  0.00000000000E+00 0. -1.
         11    1    1    2    0    0 -0.59706562530E+01  0.49034785219E+01 -0.85268371320E+02  0.85617685003E+02  0.00000000000E+00 0.  1.
        -15    1    1    2    0    0  0.98743661408E+00  0.23405117245E+01 -0.67487398991E+00  0.31727291252E+01  0.17770000000E+01 0. -1.
         15    1    1    2    0    0  0.26967189216E+01 -0.11110820004E+02 -0.94753327449E+02  0.95457181007E+02  0.17770000000E+01 0. -1.
</event>
<event>
 6    1  0.8353910E-003  0.1872359E+03  0.7546771E-02  0.1064746E+00
        -11   -1    0    0    0    0  0.00000000000E+00  0.00000000000E+00  0.18250000000E+03  0.18250000000E+03  0.00000000000E+00 0. -1.
         11   -1    0    0    0    0 -0.00000000000E+00 -0.00000000000E+00 -0.18250000000E+03  0.18250000000E+03  0.00000000000E+00 0.  1.
        -11    1    1    2    0    0  0.75426541115E+00 -0.49286525420E+01  0.17769418510E+03  0.17776412448E+03  0.00000000000E+00 0. -1.
         11    1    1    2    0    0  0.12728415894E+01 -0.15781330137E+01 -0.10040957366E+03  0.10043004089E+03  0.00000000000E+00 0.  1.
        -15    1    1    2    0    0 -0.78059868744E+01  0.18838573126E+01 -0.78645444871E+02  0.79074307315E+02  0.17770000000E+01 0. -1.
         15    1    1    2    0    0  0.57788798739E+01  0.46229282432E+01  0.13608334320E+01  0.77315273244E+01  0.17770000000E+01 0.  1.
</event>
<event>
 6    1  0.8353910E-003  0.1847136E+03  0.7546771E-02  0.1066706E+00
        -11   -1    0    0    0    0  0.00000000000E+00  0.00000000000E+00  0.18250000000E+03  0.18250000000E+03  0.00000000000E+00 0.  1.
         11   -1    0    0    0    0 -0.00000000000E+00 -0.00000000000E+00 -0.18250000000E+03  0.18250000000E+03  0.00000000000E+00 0. -1.
        -11    1    1    2    0    0 -0.48257061496E+01 -0.73255454567E+00  0.18022029490E+03  0.18028637988E+03  0.00000000000E+00 0.  1.
         11    1    1    2    0    0  0.84391219760E+01 -0.48453505415E+01 -0.92553395932E+02  0.93063565912E+02  0.00000000000E+00 0. -1.
        -15    1    1    2    0    0 -0.13110935200E+00  0.10238119658E+02 -0.12580072779E+02  0.16317237632E+02  0.17770000000E+01 0.  1.
         15    1    1    2    0    0 -0.34823064744E+01 -0.46602145706E+01 -0.75086826186E+02  0.75332816580E+02  0.17770000000E+01 0. -1.
</event>
<event>
 6    1  0.8353910E-003  0.1842036E+03  0.7546771E-02  0.1067107E+00
        -11   -1    0    0    0    0  0.00000000000E+00  0.00000000000E+00  0.18250000000E+03  0.18250000000E+03  0.00000000000E+00 0. -1.
         11   -1    0    0    0    0 -0.00000000000E+00 -0.00000000000E+00 -0.18250000000E+03  0.18250000000E+03  0.00000000000E+00 0. -1.
        -11    1    1    2    0    0 -0.24169235160E+01  0.27931839548E+00  0.14776711134E+03  0.14778713994E+03  0.00000000000E+00 0. -1.
         11    1    1    2    0    0  0.10237701997E+01  0.23635310597E+01 -0.18077800848E+03  0.18079635709E+03  0.00000000000E+00 0. -1.
        -15    1    1    2    0    0 -0.42004401134E+01  0.18017498034E+01  0.35611696379E+01  0.60604997888E+01  0.17770000000E+01 0.  1.
         15    1    1    2    0    0  0.55935934296E+01 -0.44445992585E+01  0.29449727509E+02  0.30356003185E+02  0.17770000000E+01 0. -1.
</event>
<event>
 6    1  0.8353910E-003  0.1929163E+03  0.7546771E-02  0.1060453E+00
        -11   -1    0    0    0    0  0.00000000000E+00  0.00000000000E+00  0.18250000000E+03  0.18250000000E+03  0.00000000000E+00 0. -1.
         11   -1    0    0    0    0 -0.00000000000E+00 -0.00000000000E+00 -0.18250000000E+03  0.18250000000E+03  0.00000000000E+00 0.  1.
        -11    1    1    2    0    0  0.22860898423E+01  0.23099498122E+01  0.17205300444E+03  0.17208369595E+03  0.00000000000E+00 0. -1.
         11    1    1    2    0    0  0.65945237429E+00 -0.25391847212E+01 -0.13751739658E+03  0.13754241781E+03  0.00000000000E+00 0.  1.
        -15    1    1    2    0    0 -0.59549161641E+01  0.24260069524E+01 -0.44286020347E+02  0.44785665825E+02  0.17770000000E+01 0. -1.
         15    1    1    2    0    0  0.30093739475E+01 -0.21967720434E+01  0.97504124795E+01  0.10588220412E+02  0.17770000000E+01 0.  1.
</event>
<event>
 6    1  0.8353910E-003  0.1851323E+03  0.7546771E-02  0.1066379E+00
        -11   -1    0    0    0    0  0.00000000000E+00  0.00000000000E+00  0.18250000000E+03  0.18250000000E+03  0.00000000000E+00 0. -1.
         11   -1    0    0    0    0 -0.00000000000E+00 -0.00000000000E+00 -0.18250000000E+03  0.18250000000E+03  0.00000000000E+00 0.  1.
        -11    1    1    2    0    0 -0.11914327096E+01  0.30612462775E+01  0.12225308333E+03  0.12229720816E+03  0.00000000000E+00 0. -1.
         11    1    1    2    0    0  0.17655232961E+01  0.54085980386E+01 -0.17977772566E+03  0.17986773098E+03  0.00000000000E+00 0.  1.
        -15    1    1    2    0    0  0.10623289433E+01  0.58166913601E+00  0.51824044129E+02  0.51868643328E+02  0.17770000000E+01 0. -1.
         15    1    1    2    0    0 -0.16364195299E+01 -0.90515134521E+01  0.57005981997E+01  0.10966417532E+02  0.17770000000E+01 0.  1.
</event>
<event>
 6    1  0.8353910E-003  0.1825328E+03  0.7546771E-02  0.1068429E+00
        -11   -1    0    0    0    0  0.00000000000E+00  0.00000000000E+00  0.18250000000E+03  0.18250000000E+03  0.00000000000E+00 0.  1.
         11   -1    0    0    0    0 -0.00000000000E+00 -0.00000000000E+00 -0.18250000000E+03  0.18250000000E+03  0.00000000000E+00 0.  1.
        -11    1    1    2    0    0  0.32201047110E+01 -0.15650237681E-01  0.18243880018E+03  0.18246721659E+03  0.00000000000E+00 0.  1.
         11    1    1    2    0    0 -0.75570240672E+00  0.32443751867E+00 -0.51599993814E+02  0.51606547137E+02  0.00000000000E+00 0.  1.
        -15    1    1    2    0    0 -0.14285820228E+01 -0.62067472359E+00 -0.44794053843E+02  0.44856338152E+02  0.17770000000E+01 0. -1.
         15    1    1    2    0    0 -0.10358202815E+01  0.31188744260E+00 -0.86044752520E+02  0.86069898122E+02  0.17770000000E+01 0.  1.
</event>
<event>
 6    1  0.8353910E-003  0.1827442E+03  0.7546771E-02  0.1068261E+00
        -11   -1    0    0    0    0  0.00000000000E+00  0.00000000000E+00  0.18250000000E+03  0.18250000000E+03  0.00000000000E+00 0.  1.
         11   -1    0    0    0    0 -0.00000000000E+00 -0.00000000000E+00 -0.18250000000E+03  0.18250000000E+03  0.00000000000E+00 0. -1.
        -11    1    1    2    0    0  0.27705201581E+01 -0.37488199848E+01  0.18219616263E+03  0.18225578485E+03  0.00000000000E+00 0.  1.
         11    1    1    2    0    0 -0.95879556694E+00 -0.12787434064E+01 -0.75939098177E+02  0.75955915540E+02  0.00000000000E+00 0. -1.
        -15    1    1    2    0    0 -0.48645656344E+01  0.25142745031E+01 -0.43126742050E+02  0.43509299970E+02  0.17770000000E+01 0. -1.
         15    1    1    2    0    0  0.30528410432E+01  0.25132888881E+01 -0.63130322405E+02  0.63278999640E+02  0.17770000000E+01 0. -1.
</event>
<event>
 6    1  0.8353910E-003  0.1759021E+03  0.7546771E-02  0.1073832E+00
        -11   -1    0    0    0    0  0.00000000000E+00  0.00000000000E+00  0.18250000000E+03  0.18250000000E+03  0.00000000000E+00 0.  1.
         11   -1    0    0    0    0 -0.00000000000E+00 -0.00000000000E+00 -0.18250000000E+03  0.18250000000E+03  0.00000000000E+00 0.  1.
        -11    1    1    2    0    0  0.30521911804E+01  0.75007159610E+01  0.17722441924E+03  0.17740933286E+03  0.00000000000E+00 0.  1.
         11    1    1    2    0    0 -0.12956317831E+01 -0.25312504854E+01 -0.17442223928E+03  0.17444541681E+03  0.00000000000E+00 0.  1.
        -15    1    1    2    0    0 -0.43336276135E+01 -0.51898279221E+01  0.21222741419E+01  0.73059166904E+01  0.17770000000E+01 0.  1.
         15    1    1    2    0    0  0.25770682162E+01  0.22036244650E+00 -0.49244541005E+01  0.58393336423E+01  0.17770000000E+01 0. -1.
</event>
<event>
 6    1  0.8353910E-003  0.1830827E+03  0.7546771E-02  0.1067992E+00
        -11   -1    0    0    0    0  0.00000000000E+00  0.00000000000E+00  0.18250000000E+03  0.18250000000E+03  0.00000000000E+00 0.  1.
         11   -1    0    0    0    0 -0.00000000000E+00 -0.00000000000E+00 -0.18250000000E+03  0.18250000000E+03  0.00000000000E+00 0.  1.
        -11    1    1    2    0    0 -0.22958373223E+01  0.10800673900E+01  0.18189959780E+03  0.18191729191E+03  0.00000000000E+00 0.  1.
         11    1    1    2    0    0 -0.19237626335E+01  0.12582607681E+01 -0.16019171224E+03  0.16020820438E+03  0.00000000000E+00 0.  1.
        -15    1    1    2    0    0  0.37254545462E+01 -0.26681861119E+01 -0.11661750439E+02  0.12655132595E+02  0.17770000000E+01 0. -1.
         15    1    1    2    0    0  0.49414540949E+00  0.32985795386E+00 -0.10046135127E+02  0.10219371113E+02  0.17770000000E+01 0. -1.
</event>
<event>
 6    1  0.8353910E-003  0.1959897E+03  0.7546771E-02  0.1058197E+00
        -11   -1    0    0    0    0  0.00000000000E+00  0.00000000000E+00  0.18250000000E+03  0.18250000000E+03  0.00000000000E+00 0.  1.
         11   -1    0    0    0    0 -0.00000000000E+00 -0.00000000000E+00 -0.18250000000E+03  0.18250000000E+03  0.00000000000E+00 0.  1.
        -11    1    1    2    0    0  0.16702340469E+01 -0.61542639834E+00  0.11696819350E+03  0.11698173671E+03  0.00000000000E+00 0.  1.
         11    1    1    2    0    0 -0.73665325829E+00 -0.41889127721E+01 -0.16895672844E+03  0.16901025333E+03  0.00000000000E+00 0.  1.
        -15    1    1    2    0    0 -0.31573773008E+01 -0.59681640149E+01  0.62974653497E+02  0.63360498145E+02  0.17770000000E+01 0.  1.
         15    1    1    2    0    0  0.22237965122E+01  0.10772503185E+02 -0.10986118566E+02  0.15647511813E+02  0.17770000000E+01 0.  1.
</event>
<event>
 6    1  0.8353910E-003  0.1829847E+03  0.7546771E-02  0.1068070E+00
        -11   -1    0    0    0    0  0.00000000000E+00  0.00000000000E+00  0.18250000000E+03  0.18250000000E+03  0.00000000000E+00 0.  1.
         11   -1    0    0    0    0 -0.00000000000E+00 -0.00000000000E+00 -0.18250000000E+03  0.18250000000E+03  0.00000000000E+00 0.  1.
        -11    1    1    2    0    0  0.66543901606E+00 -0.25506245322E+01  0.73269427298E+02  0.73316829385E+02  0.00000000000E+00 0.  1.
         11    1    1    2    0    0 -0.22983800489E+01  0.41098935818E+01 -0.18195440208E+03  0.18201532412E+03  0.00000000000E+00 0.  1.
        -15    1    1    2    0    0  0.46948661000E+00  0.30213284133E+01  0.95246903237E+02  0.95312534057E+02  0.17770000000E+01 0.  1.
         15    1    1    2    0    0  0.11634544229E+01 -0.45805974630E+01  0.13438071549E+02  0.14355312440E+02  0.17770000000E+01 0. -1.
</event>
<event>
 6    1  0.8353910E-003  0.1837911E+03  0.7546771E-02  0.1067432E+00
        -11   -1    0    0    0    0  0.00000000000E+00  0.00000000000E+00  0.18250000000E+03  0.18250000000E+03  0.00000000000E+00 0. -1.
         11   -1    0    0    0    0 -0.00000000000E+00 -0.00000000000E+00 -0.18250000000E+03  0.18250000000E+03  0.00000000000E+00 0. -1.
        -11    1    1    2    0    0  0.25674475371E+01  0.24129599176E+00  0.14380128295E+03  0.14382440331E+03  0.00000000000E+00 0. -1.
         11    1    1    2    0    0  0.32117239524E+01  0.26893032297E+01 -0.18116052457E+03  0.18120894896E+03  0.00000000000E+00 0. -1.
        -15    1    1    2    0    0 -0.17879011538E+01 -0.22875578968E+01  0.34583648076E+02  0.34750769127E+02  0.17770000000E+01 0.  1.
         15    1    1    2    0    0 -0.39912703357E+01 -0.64304132475E+00  0.27755935422E+01  0.52158785980E+01  0.17770000000E+01 0. -1.
</event>
<event>
 6    1  0.8353910E-003  0.1846614E+03  0.7546771E-02  0.1066747E+00
        -11   -1    0    0    0    0  0.00000000000E+00  0.00000000000E+00  0.18250000000E+03  0.18250000000E+03  0.00000000000E+00 0.  1.
         11   -1    0    0    0    0 -0.00000000000E+00 -0.00000000000E+00 -0.18250000000E+03  0.18250000000E+03  0.00000000000E+00 0.  1.
        -11    1    1    2    0    0 -0.23503264887E+01 -0.30081003352E+01  0.14947851457E+03  0.14952725176E+03  0.00000000000E+00 0.  1.
         11    1    1    2    0    0  0.89285521216E+01  0.21592595969E+01 -0.18010450529E+03  0.18033861004E+03  0.00000000000E+00 0.  1.
        -15    1    1    2    0    0 -0.66908949175E+01  0.27315851656E+01  0.31524773302E+02  0.32391336698E+02  0.17770000000E+01 0. -1.
         15    1    1    2    0    0  0.11266928458E+00 -0.18827444274E+01 -0.89878257474E+00  0.27428014990E+01  0.17770000000E+01 0.  1.
</event>
<event>
 6    1  0.8353910E-003  0.1881989E+03  0.7546771E-02  0.1064007E+00
        -11   -1    0    0    0    0  0.00000000000E+00  0.00000000000E+00  0.18250000000E+03  0.18250000000E+03  0.00000000000E+00 0. -1.
         11   -1    0    0    0    0 -0.00000000000E+00 -0.00000000000E+00 -0.18250000000E+03  0.18250000000E+03  0.00000000000E+00 0.  1.
        -11    1    1    2    0    0 -0.93562620544E+01  0.91212131556E+01  0.14906288052E+03  0.14963448305E+03  0.00000000000E+00 0. -1.
         11    1    1    2    0    0  0.61124747089E+01  0.53013132223E+01 -0.17661582651E+03  0.17680106460E+03  0.00000000000E+00 0.  1.
        -15    1    1    2    0    0  0.54975450845E+01  0.25252198514E+01  0.17614588133E+02  0.18709120272E+02  0.17770000000E+01 0. -1.
         15    1    1    2    0    0 -0.22537577391E+01 -0.16947746229E+02  0.99383578617E+01  0.19855332085E+02  0.17770000000E+01 0. -1.
</event>
<event>
 6    1  0.8353910E-003  0.1214537E+03  0.7546771E-02  0.1131157E+00
        -11   -1    0    0    0    0  0.00000000000E+00  0.00000000000E+00  0.18250000000E+03  0.18250000000E+03  0.00000000000E+00 0. -1.
         11   -1    0    0    0    0 -0.00000000000E+00 -0.00000000000E+00 -0.18250000000E+03  0.18250000000E+03  0.00000000000E+00 0.  1.
        -11    1    1    2    0    0 -0.24442181921E+01 -0.10126671616E+02  0.14005662211E+03  0.14044351562E+03  0.00000000000E+00 0. -1.
         11    1    1    2    0    0  0.47991143906E+01 -0.12390242917E+02 -0.76508750952E+02  0.77653966999E+02  0.00000000000E+00 0.  1.
        -15    1    1    2    0    0 -0.12061304789E+02  0.19395648081E+02 -0.10330792033E+03  0.10581753338E+03  0.17770000000E+01 0.  1.
         15    1    1    2    0    0  0.97064085908E+01  0.31212664522E+01  0.39760049170E+02  0.41084984009E+02  0.17770000000E+01 0. -1.
</event>
<event>
 6    1  0.8353910E-003  0.1784396E+03  0.7546771E-02  0.1071734E+00
        -11   -1    0    0    0    0  0.00000000000E+00  0.00000000000E+00  0.18250000000E+03  0.18250000000E+03  0.00000000000E+00 0. -1.
         11   -1    0    0    0    0 -0.00000000000E+00 -0.00000000000E+00 -0.18250000000E+03  0.18250000000E+03  0.00000000000E+00 0.  1.
        -11    1    1    2    0    0 -0.25630049363E+01 -0.32251760162E+00  0.17801600290E+03  0.17803474465E+03  0.00000000000E+00 0. -1.
         11    1    1    2    0    0  0.37285263451E+01 -0.10891465859E+01 -0.17880792972E+03  0.17885011568E+03  0.00000000000E+00 0.  1.
        -15    1    1    2    0    0 -0.14088754426E+01 -0.49949733961E+00 -0.28196461559E+01  0.36527470552E+01  0.17770000000E+01 0. -1.
         15    1    1    2    0    0  0.24335403381E+00  0.19111615271E+01  0.36115729691E+01  0.44623926183E+01  0.17770000000E+01 0.  1.
</event>
<event>
 6    1  0.8353910E-003  0.1830107E+03  0.7546771E-02  0.1068049E+00
        -11   -1    0    0    0    0  0.00000000000E+00  0.00000000000E+00  0.18250000000E+03  0.18250000000E+03  0.00000000000E+00 0.  1.
         11   -1    0    0    0    0 -0.00000000000E+00 -0.00000000000E+00 -0.18250000000E+03  0.18250000000E+03  0.00000000000E+00 0. -1.
        -11    1    1    2    0    0  0.80529964492E-01  0.49718141063E+01  0.18192136689E+03  0.18198931055E+03  0.00000000000E+00 0.  1.
         11    1    1    2    0    0 -0.26952175915E+01  0.24341265360E+01 -0.13727271836E+03  0.13732074998E+03  0.00000000000E+00 0. -1.
        -15    1    1    2    0    0  0.11419412729E+01 -0.70542004917E+01 -0.33676874770E+02  0.34472531061E+02  0.17770000000E+01 0.  1.
         15    1    1    2    0    0  0.14727463541E+01 -0.35174015057E+00 -0.10971773765E+02  0.11217408413E+02  0.17770000000E+01 0. -1.
</event>
<event>
 6    1  0.8353910E-003  0.1847075E+03  0.7546771E-02  0.1066711E+00
        -11   -1    0    0    0    0  0.00000000000E+00  0.00000000000E+00  0.18250000000E+03  0.18250000000E+03  0.00000000000E+00 0.  1.
         11   -1    0    0    0    0 -0.00000000000E+00 -0.00000000000E+00 -0.18250000000E+03  0.18250000000E+03  0.00000000000E+00 0.  1.
        -11    1    1    2    0    0  0.45714500802E+01  0.24224853361E+01  0.18021824589E+03  0.18029249220E+03  0.00000000000E+00 0.  1.
         11    1    1    2    0    0 -0.39072704029E+00 -0.25768855938E+01 -0.14270872135E+03  0.14273251962E+03  0.00000000000E+00 0.  1.
        -15    1    1    2    0    0 -0.87499811983E+01 -0.40054332886E+01 -0.11116693295E+02  0.14810275677E+02  0.17770000000E+01 0. -1.
         15    1    1    2    0    0  0.45692581584E+01  0.41598335462E+01 -0.26392831249E+02  0.27164712507E+02  0.17770000000E+01 0. -1.
</event>
<event>
 6    1  0.8353910E-003  0.1841825E+03  0.7546771E-02  0.1067123E+00
        -11   -1    0    0    0    0  0.00000000000E+00  0.00000000000E+00  0.18250000000E+03  0.18250000000E+03  0.00000000000E+00 0. -1.
         11   -1    0    0    0    0 -0.00000000000E+00 -0.00000000000E+00 -0.18250000000E+03  0.18250000000E+03  0.00000000000E+00 0.  1.
        -11    1    1    2    0    0  0.10879433456E+01  0.15436778789E+01  0.60341081743E+02  0.60370627859E+02  0.00000000000E+00 0. -1.
         11    1    1    2    0    0 -0.50108995396E+00  0.12254922279E+02 -0.18040108580E+03  0.18081754884E+03  0.00000000000E+00 0.  1.
        -15    1    1    2    0    0  0.11570403715E+02 -0.35106207311E+01  0.74953601981E+02  0.75943392596E+02  0.17770000000E+01 0. -1.
         15    1    1    2    0    0 -0.12157257107E+02 -0.10287979426E+02  0.45106402074E+02  0.47868430705E+02  0.17770000000E+01 0.  1.
</event>
<event>
 6    1  0.8353910E-003  0.1914838E+03  0.7546771E-02  0.1061520E+00
        -11   -1    0    0    0    0  0.00000000000E+00  0.00000000000E+00  0.18250000000E+03  0.18250000000E+03  0.00000000000E+00 0. -1.
         11   -1    0    0    0    0 -0.00000000000E+00 -0.00000000000E+00 -0.18250000000E+03  0.18250000000E+03  0.00000000000E+00 0.  1.
        -11    1    1    2    0    0 -0.45699073059E+01 -0.32429932797E+01  0.17342565155E+03  0.17351615969E+03  0.00000000000E+00 0. -1.
         11    1    1    2    0    0 -0.67609635993E+01  0.85021229045E+00 -0.61735017696E+02  0.62109950085E+02  0.00000000000E+00 0.  1.
        -15    1    1    2    0    0  0.10709130111E+02  0.15602849291E+02 -0.11422167913E+03  0.11579241809E+03  0.17770000000E+01 0.  1.
         15    1    1    2    0    0  0.62174079375E+00 -0.13210068302E+02  0.25310452789E+01  0.13581472135E+02  0.17770000000E+01 0. -1.
</event>
<event>
 6    1  0.8353910E-003  0.1831797E+03  0.7546771E-02  0.1067915E+00
        -11   -1    0    0    0    0  0.00000000000E+00  0.00000000000E+00  0.18250000000E+03  0.18250000000E+03  0.00000000000E+00 0.  1.
         11   -1    0    0    0    0 -0.00000000000E+00 -0.00000000000E+00 -0.18250000000E+03  0.18250000000E+03  0.00000000000E+00 0. -1.
        -11    1    1    2    0    0  0.24288001721E+01  0.18896380443E+01  0.14893157688E+03  0.14896336595E+03  0.00000000000E+00 0.  1.
         11    1    1    2    0    0  0.34823053779E+01 -0.38762120158E+00 -0.18178651790E+03  0.18182028157E+03  0.00000000000E+00 0. -1.
        -15    1    1    2    0    0 -0.11650078342E+01 -0.17089054717E+01  0.35533771264E+01  0.44790422154E+01  0.17770000000E+01 0. -1.
         15    1    1    2    0    0 -0.47460977159E+01  0.20688862898E+00  0.29301563891E+02  0.29737310267E+02  0.17770000000E+01 0.  1.
</event>
<event>
 6    1  0.8353910E-003  0.1854837E+03  0.7546771E-02  0.1066104E+00
        -11   -1    0    0    0    0  0.00000000000E+00  0.00000000000E+00  0.18250000000E+03  0.18250000000E+03  0.00000000000E+00 0.  1.
         11   -1    0    0    0    0 -0.00000000000E+00 -0.00000000000E+00 -0.18250000000E+03  0.18250000000E+03  0.00000000000E+00 0. -1.
        -11    1    1    2    0    0 -0.32137018166E+01  0.59290973069E+00  0.16442732582E+03  0.16445979721E+03  0.00000000000E+00 0.  1.
         11    1    1    2    0    0 -0.67835611332E+01  0.23016199851E+01 -0.17937329402E+03  0.17951627437E+03  0.00000000000E+00 0. -1.
        -15    1    1    2    0    0  0.89268307058E+01 -0.32144430119E+01  0.50234160808E+01  0.10881791601E+02  0.17770000000E+01 0. -1.
         15    1    1    2    0    0  0.10704322440E+01  0.31991329613E+00  0.99225521224E+01  0.10142136823E+02  0.17770000000E+01 0. -1.
</event>
<event>
 6    1  0.8353910E-003  0.1827890E+03  0.7546771E-02  0.1068225E+00
        -11   -1    0    0    0    0  0.00000000000E+00  0.00000000000E+00  0.18250000000E+03  0.18250000000E+03  0.00000000000E+00 0.  1.
         11   -1    0    0    0    0 -0.00000000000E+00 -0.00000000000E+00 -0.18250000000E+03  0.18250000000E+03  0.00000000000E+00 0.  1.
        -11    1    1    2    0    0  0.83749364486E+01 -0.13688299104E+01  0.18201333255E+03  0.18221104928E+03  0.00000000000E+00 0.  1.
         11    1    1    2    0    0 -0.17964848482E+01 -0.26902530353E-01 -0.92189671993E+02  0.92207178158E+02  0.00000000000E+00 0.  1.
        -15    1    1    2    0    0 -0.57261503241E+01 -0.13507338762E+01 -0.28036147616E+02  0.28701856764E+02  0.17770000000E+01 0. -1.
         15    1    1    2    0    0 -0.85230127637E+00  0.27464663170E+01 -0.61787512938E+02  0.61879915795E+02  0.17770000000E+01 0.  1.
</event>
<event>
 6    1  0.8353910E-003  0.1826656E+03  0.7546771E-02  0.1068323E+00
        -11   -1    0    0    0    0  0.00000000000E+00  0.00000000000E+00  0.18250000000E+03  0.18250000000E+03  0.00000000000E+00 0.  1.
         11   -1    0    0    0    0 -0.00000000000E+00 -0.00000000000E+00 -0.18250000000E+03  0.18250000000E+03  0.00000000000E+00 0.  1.
        -11    1    1    2    0    0  0.75658440758E+00  0.32413328050E-02  0.79444627837E+01  0.79804084728E+01  0.00000000000E+00 0.  1.
         11    1    1    2    0    0  0.10040013534E+02 -0.75598751607E+00 -0.18205616740E+03  0.18233436724E+03  0.00000000000E+00 0.  1.
        -15    1    1    2    0    0 -0.76526774109E+01  0.32334265167E+01  0.14467788972E+03  0.14492711279E+03  0.17770000000E+01 0.  1.
         15    1    1    2    0    0 -0.31439205308E+01 -0.24806803335E+01  0.29433814898E+02  0.29758111494E+02  0.17770000000E+01 0. -1.
</event>
<event>
 6    1  0.8353910E-003  0.1832810E+03  0.7546771E-02  0.1067835E+00
        -11   -1    0    0    0    0  0.00000000000E+00  0.00000000000E+00  0.18250000000E+03  0.18250000000E+03  0.00000000000E+00 0. -1.
         11   -1    0    0    0    0 -0.00000000000E+00 -0.00000000000E+00 -0.18250000000E+03  0.18250000000E+03  0.00000000000E+00 0. -1.
        -11    1    1    2    0    0 -0.16975905884E+01  0.21519532599E+01  0.18169828229E+03  0.18171895472E+03  0.00000000000E+00 0. -1.
         11    1    1    2    0    0  0.17886436618E+01 -0.20345700054E+01 -0.15477836661E+03  0.15480207199E+03  0.00000000000E+00 0. -1.
        -15    1    1    2    0    0  0.17758684239E+01 -0.32949266678E+01 -0.69264296124E+01  0.80711465469E+01  0.17770000000E+01 0. -1.
         15    1    1    2    0    0 -0.18669214973E+01  0.31775434134E+01 -0.19993486071E+02  0.20407826741E+02  0.17770000000E+01 0. -1.
</event>
<event>
 6    1  0.8353910E-003  0.1843256E+03  0.7546771E-02  0.1067011E+00
        -11   -1    0    0    0    0  0.00000000000E+00  0.00000000000E+00  0.18250000000E+03  0.18250000000E+03  0.00000000000E+00 0.  1.
         11   -1    0    0    0    0 -0.00000000000E+00 -0.00000000000E+00 -0.18250000000E+03  0.18250000000E+03  0.00000000000E+00 0. -1.
        -11    1    1    2    0    0 -0.40250831729E+01 -0.99980938690E+00  0.13619564996E+03  0.13625878314E+03  0.00000000000E+00 0.  1.
         11    1    1    2    0    0 -0.57786529020E+01 -0.29271843264E+01 -0.18055819581E+03  0.18067435709E+03  0.00000000000E+00 0. -1.
        -15    1    1    2    0    0  0.38450235587E+01 -0.17051850658E+01  0.35761126193E+02  0.36051459581E+02  0.17770000000E+01 0. -1.
         15    1    1    2    0    0  0.59587125162E+01  0.56321787791E+01  0.86014196510E+01  0.12015400187E+02  0.17770000000E+01 0.  1.
</event>
<event>
 6    1  0.8353910E-003  0.1668796E+03  0.7546771E-02  0.1081617E+00
        -11   -1    0    0    0    0  0.00000000000E+00  0.00000000000E+00  0.18250000000E+03  0.18250000000E+03  0.00000000000E+00 0. -1.
         11   -1    0    0    0    0 -0.00000000000E+00 -0.00000000000E+00 -0.18250000000E+03  0.18250000000E+03  0.00000000000E+00 0.  1.
        -11    1    1    2    0    0  0.13635219502E+01 -0.89000646338E+01  0.16499541822E+03  0.16524091012E+03  0.00000000000E+00 0. -1.
         11    1    1    2    0    0  0.91111509730E+01 -0.90584880446E+01 -0.16869707929E+03  0.16918561948E+03  0.00000000000E+00 0.  1.
        -15    1    1    2    0    0  0.61250557459E+01  0.11298502882E+01 -0.51209148988E+00  0.64971406217E+01  0.17770000000E+01 0.  1.
         15    1    1    2    0    0 -0.16599728669E+02  0.16828702390E+02  0.42137525608E+01  0.24076329780E+02  0.17770000000E+01 0. -1.
</event>
<event>
 6    1  0.8353910E-003  0.1826548E+03  0.7546771E-02  0.1068332E+00
        -11   -1    0    0    0    0  0.00000000000E+00  0.00000000000E+00  0.18250000000E+03  0.18250000000E+03  0.00000000000E+00 0. -1.
         11   -1    0    0    0    0 -0.00000000000E+00 -0.00000000000E+00 -0.18250000000E+03  0.18250000000E+03  0.00000000000E+00 0.  1.
        -11    1    1    2    0    0 -0.46682040279E+00 -0.32983310749E+00  0.80253814224E+01  0.80457105431E+01  0.00000000000E+00 0. -1.
         11    1    1    2    0    0 -0.22316237466E+01 -0.23515217444E+01 -0.18231635367E+03  0.18234517437E+03  0.00000000000E+00 0.  1.
        -15    1    1    2    0    0 -0.15399054207E+00  0.17556141899E+01  0.11007207002E+02  0.11288145518E+02  0.17770000000E+01 0.  1.
         15    1    1    2    0    0  0.28524346915E+01  0.92574066191E+00  0.16328376525E+03  0.16332096957E+03  0.17770000000E+01 0. -1.
</event>
<event>
 6    1  0.8353910E-003  0.1862673E+03  0.7546771E-02  0.1065495E+00
        -11   -1    0    0    0    0  0.00000000000E+00  0.00000000000E+00  0.18250000000E+03  0.18250000000E+03  0.00000000000E+00 0.  1.
         11   -1    0    0    0    0 -0.00000000000E+00 -0.00000000000E+00 -0.18250000000E+03  0.18250000000E+03  0.00000000000E+00 0.  1.
        -11    1    1    2    0    0 -0.49496970017E+00  0.27217627769E+00  0.39035205485E+02  0.39039292286E+02  0.00000000000E+00 0.  1.
         11    1    1    2    0    0 -0.19634221891E+01 -0.63814282983E+01 -0.17860798045E+03  0.17873272877E+03  0.00000000000E+00 0.  1.
        -15    1    1    2    0    0  0.77326436054E+01  0.55873767387E+01  0.14109986279E+03  0.14143316996E+03  0.17770000000E+01 0.  1.
         15    1    1    2    0    0 -0.52742517161E+01  0.52187528191E+00 -0.15270878256E+01  0.57948089875E+01  0.17770000000E+01 0. -1.
</event>
<event>
 6    1  0.8353910E-003  0.1836439E+03  0.7546771E-02  0.1067548E+00
        -11   -1    0    0    0    0  0.00000000000E+00  0.00000000000E+00  0.18250000000E+03  0.18250000000E+03  0.00000000000E+00 0.  1.
         11   -1    0    0    0    0 -0.00000000000E+00 -0.00000000000E+00 -0.18250000000E+03  0.18250000000E+03  0.00000000000E+00 0. -1.
        -11    1    1    2    0    0 -0.27619288722E+00  0.25055869457E+01  0.13534993864E+03  0.13537341001E+03  0.00000000000E+00 0.  1.
         11    1    1    2    0    0 -0.16572226304E+01  0.28918967681E+01 -0.18132545328E+03  0.18135608471E+03  0.00000000000E+00 0. -1.
        -15    1    1    2    0    0 -0.63931281846E+00 -0.63944597855E+00  0.51066119331E-01  0.19944795782E+01  0.17770000000E+01 0. -1.
         15    1    1    2    0    0  0.25727283360E+01 -0.47580377352E+01  0.45924448520E+02  0.46276025705E+02  0.17770000000E+01 0.  1.
</event>
<event>
 6    1  0.8353910E-003  0.1834011E+03  0.7546771E-02  0.1067740E+00
        -11   -1    0    0    0    0  0.00000000000E+00  0.00000000000E+00  0.18250000000E+03  0.18250000000E+03  0.00000000000E+00 0. -1.
         11   -1    0    0    0    0 -0.00000000000E+00 -0.00000000000E+00 -0.18250000000E+03  0.18250000000E+03  0.00000000000E+00 0. -1.
        -11    1    1    2    0    0  0.23234312985E+01  0.16356608167E+01  0.86963938468E+02  0.87010346012E+02  0.00000000000E+00 0. -1.
         11    1    1    2    0    0  0.97169770036E+01 -0.33121736648E+01 -0.18130848204E+03  0.18159888710E+03  0.00000000000E+00 0. -1.
        -15    1    1    2    0    0 -0.55112945683E+01  0.15773196836E+01  0.92430009660E+01  0.11020576258E+02  0.17770000000E+01 0. -1.
         15    1    1    2    0    0 -0.65291137337E+01  0.99193164491E-01  0.85101542606E+02  0.85370190631E+02  0.17770000000E+01 0.  1.
</event>
<event>
 6    1  0.8353910E-003  0.1831685E+03  0.7546771E-02  0.1067924E+00
        -11   -1    0    0    0    0  0.00000000000E+00  0.00000000000E+00  0.18250000000E+03  0.18250000000E+03  0.00000000000E+00 0. -1.
         11   -1    0    0    0    0 -0.00000000000E+00 -0.00000000000E+00 -0.18250000000E+03  0.18250000000E+03  0.00000000000E+00 0. -1.
        -11    1    1    2    0    0  0.58289944028E-01 -0.64009274418E+01  0.18171878741E+03  0.18183149608E+03  0.00000000000E+00 0. -1.
         11    1    1    2    0    0 -0.14848103182E+01 -0.29125075318E+01 -0.76929933774E+02  0.76999364104E+02  0.00000000000E+00 0. -1.
        -15    1    1    2    0    0 -0.49790946518E+00  0.70305386152E+00 -0.75565513071E+02  0.75591313609E+02  0.17770000000E+01 0. -1.
         15    1    1    2    0    0  0.19244298394E+01  0.86103811121E+01 -0.29223340561E+02  0.30577826209E+02  0.17770000000E+01 0. -1.
</event>
<event>
 6    1  0.8353910E-003  0.1827471E+03  0.7546771E-02  0.1068258E+00
        -11   -1    0    0    0    0  0.00000000000E+00  0.00000000000E+00  0.18250000000E+03  0.18250000000E+03  0.00000000000E+00 0.  1.
         11   -1    0    0    0    0 -0.00000000000E+00 -0.00000000000E+00 -0.18250000000E+03  0.18250000000E+03  0.00000000000E+00 0.  1.
        -11    1    1    2    0    0  0.41211088227E+01  0.14769702247E+01  0.18220032073E+03  0.18225290629E+03  0.00000000000E+00 0.  1.
         11    1    1    2    0    0  0.11474269602E+01 -0.25723045009E+01 -0.13737180832E+03  0.13740068072E+03  0.00000000000E+00 0.  1.
        -15    1    1    2    0    0 -0.41473597510E+01  0.17158002888E+00 -0.27899826066E+02  0.28262838784E+02  0.17770000000E+01 0.  1.
         15    1    1    2    0    0 -0.11211760319E+01  0.92375424725E+00 -0.16928686337E+02  0.17083574207E+02  0.17770000000E+01 0.  1.
</event>
<event>
 6    1  0.8353910E-003  0.1834134E+03  0.7546771E-02  0.1067730E+00
        -11   -1    0    0    0    0  0.00000000000E+00  0.00000000000E+00  0.18250000000E+03  0.18250000000E+03  0.00000000000E+00 0.  1.
         11   -1    0    0    0    0 -0.00000000000E+00 -0.00000000000E+00 -0.18250000000E+03  0.18250000000E+03  0.00000000000E+00 0.  1.
        -11    1    1    2    0    0 -0.18240609039E+01 -0.47744605382E+00  0.95828861737E+02  0.95847409432E+02  0.00000000000E+00 0.  1.
         11    1    1    2    0    0 -0.31932764884E+01  0.25899526801E+01 -0.18154008493E+03  0.18158663856E+03  0.00000000000E+00 0.  1.
        -15    1    1    2    0    0  0.10125434171E+02  0.21019564898E+01  0.62064610474E+02  0.62945343279E+02  0.17770000000E+01 0.  1.
         15    1    1    2    0    0 -0.51080967785E+01 -0.42144631161E+01  0.23646612716E+02  0.24620608725E+02  0.17770000000E+01 0. -1.
</event>
<event>
 6    1  0.8353910E-003  0.1829964E+03  0.7546771E-02  0.1068060E+00
        -11   -1    0    0    0    0  0.00000000000E+00  0.00000000000E+00  0.18250000000E+03  0.18250000000E+03  0.00000000000E+00 0. -1.
         11   -1    0    0    0    0 -0.00000000000E+00 -0.00000000000E+00 -0.18250000000E+03  0.18250000000E+03  0.00000000000E+00 0. -1.
        -11    1    1    2    0    0  0.57789172504E+00  0.39615822388E+01  0.18195960117E+03  0.18200363884E+03  0.00000000000E+00 0. -1.
         11    1    1    2    0    0 -0.27472550272E+01 -0.10737544161E+01 -0.14428786472E+03  0.14431801088E+03  0.00000000000E+00 0. -1.
        -15    1    1    2    0    0  0.10057423957E+01  0.67788473829E+00 -0.26585971370E+01  0.34200750316E+01  0.17770000000E+01 0. -1.
         15    1    1    2    0    0  0.11636209065E+01 -0.35657125609E+01 -0.35013139311E+02  0.35258275243E+02  0.17770000000E+01 0. -1.
</event>
<event>
 6    1  0.1009145E-002  0.1832930E+03  0.7546771E-02  0.1067825E+00
        -11   -1    0    0    0    0  0.00000000000E+00  0.00000000000E+00  0.18250000000E+03  0.18250000000E+03  0.00000000000E+00 0.  1.
         11   -1    0    0    0    0 -0.00000000000E+00 -0.00000000000E+00 -0.18250000000E+03  0.18250000000E+03  0.00000000000E+00 0. -1.
        -11    1    1    2    0    0 -0.11313615978E+01  0.34495201226E+01  0.18167075902E+03  0.18170702752E+03  0.00000000000E+00 0.  1.
         11    1    1    2    0    0 -0.60654149849E+00  0.10746842172E+01 -0.73897468239E+02  0.73907771248E+02  0.00000000000E+00 0. -1.
        -15    1    1    2    0    0  0.59571422143E+00 -0.24057915679E+01 -0.10570316689E+03  0.10574715092E+03  0.17770000000E+01 0. -1.
         15    1    1    2    0    0  0.11421888749E+01 -0.21184127720E+01 -0.20701238892E+01  0.36380503041E+01  0.17770000000E+01 0.  1.
</event>
<event>
 6    1  0.8353910E-003  0.1745357E+03  0.7546771E-02  0.1074977E+00
        -11   -1    0    0    0    0  0.00000000000E+00  0.00000000000E+00  0.18250000000E+03  0.18250000000E+03  0.00000000000E+00 0.  1.
         11   -1    0    0    0    0 -0.00000000000E+00 -0.00000000000E+00 -0.18250000000E+03  0.18250000000E+03  0.00000000000E+00 0.  1.
        -11    1    1    2    0    0 -0.10540344801E+02 -0.17825777920E+00  0.17529534319E+03  0.17561203828E+03  0.00000000000E+00 0.  1.
         11    1    1    2    0    0  0.55629669285E+01 -0.19580133905E+01 -0.17340614259E+03  0.17350639961E+03  0.00000000000E+00 0.  1.
        -15    1    1    2    0    0  0.91760388057E+01  0.45869534929E+01 -0.12218578902E+00  0.10412131812E+02  0.17770000000E+01 0.  1.
         15    1    1    2    0    0 -0.41986609331E+01 -0.24506823232E+01 -0.17670148088E+01  0.54694303007E+01  0.17770000000E+01 0. -1.
</event>
<event>
 6    1  0.8353910E-003  0.1828817E+03  0.7546771E-02  0.1068151E+00
        -11   -1    0    0    0    0  0.00000000000E+00  0.00000000000E+00  0.18250000000E+03  0.18250000000E+03  0.00000000000E+00 0. -1.
         11   -1    0    0    0    0 -0.00000000000E+00 -0.00000000000E+00 -0.18250000000E+03  0.18250000000E+03  0.00000000000E+00 0.  1.
        -11    1    1    2    0    0  0.32022810716E+00 -0.25158859142E+01  0.12056422380E+03  0.12059089638E+03  0.00000000000E+00 0. -1.
         11    1    1    2    0    0  0.25908619077E+01  0.16989327904E+01 -0.18209198191E+03  0.18211833739E+03  0.00000000000E+00 0.  1.
        -15    1    1    2    0    0 -0.57355632792E+01  0.89801983873E+00  0.46633327759E+02  0.47026887124E+02  0.17770000000E+01 0. -1.
         15    1    1    2    0    0  0.28244732643E+01 -0.81066714910E-01  0.14894430348E+02  0.15263879108E+02  0.17770000000E+01 0. -1.
</event>
<event>
 6    1  0.8353910E-003  0.1853987E+03  0.7546771E-02  0.1066171E+00
        -11   -1    0    0    0    0  0.00000000000E+00  0.00000000000E+00  0.18250000000E+03  0.18250000000E+03  0.00000000000E+00 0.  1.
         11   -1    0    0    0    0 -0.00000000000E+00 -0.00000000000E+00 -0.18250000000E+03  0.18250000000E+03  0.00000000000E+00 0. -1.
        -11    1    1    2    0    0 -0.23327894176E+01  0.89788857254E+00  0.17078025414E+03  0.17079854599E+03  0.00000000000E+00 0.  1.
         11    1    1    2    0    0  0.26704802930E+01  0.46576853542E+01 -0.17952099578E+03  0.17960126231E+03  0.00000000000E+00 0. -1.
        -15    1    1    2    0    0 -0.28089805603E+01 -0.64465445277E+01  0.26294231087E+01  0.77149143236E+01  0.17770000000E+01 0. -1.
         15    1    1    2    0    0  0.24712896849E+01  0.89097060097E+00  0.61113185305E+01  0.68852773728E+01  0.17770000000E+01 0.  1.
</event>
<event>
 6    1  0.8353910E-003  0.1829612E+03  0.7546771E-02  0.1068088E+00
        -11   -1    0    0    0    0  0.00000000000E+00  0.00000000000E+00  0.18250000000E+03  0.18250000000E+03  0.00000000000E+00 0. -1.
         11   -1    0    0    0    0 -0.00000000000E+00 -0.00000000000E+00 -0.18250000000E+03  0.18250000000E+03  0.00000000000E+00 0.  1.
        -11    1    1    2    0    0 -0.18969344168E+01  0.17155669820E+01  0.18202082213E+03  0.18203879042E+03  0.00000000000E+00 0. -1.
         11    1    1    2    0    0  0.25466716689E+01 -0.77966987095E+00 -0.15535767930E+03  0.15538050695E+03  0.00000000000E+00 0.  1.
        -15    1    1    2    0    0  0.25249399970E+01 -0.10597943810E+01 -0.98094154456E+01  0.10338319327E+02  0.17770000000E+01 0.  1.
         15    1    1    2    0    0 -0.31746772491E+01  0.12389726994E+00 -0.16853727382E+02  0.17242383299E+02  0.17770000000E+01 0.  1.
</event>
<event>
 6    1  0.8353910E-003  0.1830918E+03  0.7546771E-02  0.1067985E+00
        -11   -1    0    0    0    0  0.00000000000E+00  0.00000000000E+00  0.18250000000E+03  0.18250000000E+03  0.00000000000E+00 0. -1.
         11   -1    0    0    0    0 -0.00000000000E+00 -0.00000000000E+00 -0.18250000000E+03  0.18250000000E+03  0.00000000000E+00 0.  1.
        -11    1    1    2    0    0  0.14396110270E+01  0.30152382781E+01  0.18187752298E+03  0.18190821177E+03  0.00000000000E+00 0. -1.
         11    1    1    2    0    0  0.41813843731E+01  0.91006344820E+00 -0.12846509133E+03  0.12853634459E+03  0.00000000000E+00 0.  1.
        -15    1    1    2    0    0 -0.33216160996E+01 -0.27206131926E+00 -0.42742558229E+02  0.42909103508E+02  0.17770000000E+01 0. -1.
         15    1    1    2    0    0 -0.22993793005E+01 -0.36532404070E+01 -0.10669873424E+02  0.11646340135E+02  0.17770000000E+01 0. -1.
</event>
<event>
 6    1  0.8353910E-003  0.1854256E+03  0.7546771E-02  0.1066150E+00
        -11   -1    0    0    0    0  0.00000000000E+00  0.00000000000E+00  0.18250000000E+03  0.18250000000E+03  0.00000000000E+00 0.  1.
         11   -1    0    0    0    0 -0.00000000000E+00 -0.00000000000E+00 -0.18250000000E+03  0.18250000000E+03  0.00000000000E+00 0.  1.
        -11    1    1    2    0    0  0.23801744508E+00 -0.25908169265E+01  0.17955559927E+03  0.17957444755E+03  0.00000000000E+00 0.  1.
         11    1    1    2    0    0  0.43046945761E+01 -0.13665112362E+01 -0.17317496082E+03  0.17323384428E+03  0.00000000000E+00 0.  1.
        -15    1    1    2    0    0 -0.22420634422E+01  0.20715662433E+01  0.13014690285E+01  0.37642775949E+01  0.17770000000E+01 0. -1.
         15    1    1    2    0    0 -0.23006485790E+01  0.18857619194E+01 -0.76821074708E+01  0.84274305748E+01  0.17770000000E+01 0. -1.
</event>
<event>
 6    1  0.8353910E-003  0.1936149E+03  0.7546771E-02  0.1059936E+00
        -11   -1    0    0    0    0  0.00000000000E+00  0.00000000000E+00  0.18250000000E+03  0.18250000000E+03  0.00000000000E+00 0. -1.
         11   -1    0    0    0    0 -0.00000000000E+00 -0.00000000000E+00 -0.18250000000E+03  0.18250000000E+03  0.00000000000E+00 0.  1.
        -11    1    1    2    0    0 -0.16372743515E+01  0.37607440521E+01  0.17133603254E+03  0.17138512161E+03  0.00000000000E+00 0. -1.
         11    1    1    2    0    0  0.16360263764E+01  0.31485492550E+01 -0.16108746154E+03  0.16112653478E+03  0.00000000000E+00 0.  1.
        -15    1    1    2    0    0 -0.55330248467E+01 -0.28315075813E+01 -0.19661967599E+02  0.20697403170E+02  0.17770000000E+01 0.  1.
         15    1    1    2    0    0  0.55342728218E+01 -0.40777857258E+01  0.94133965949E+01  0.11790940444E+02  0.17770000000E+01 0. -1.
</event>
<event>
 6    1  0.8353910E-003  0.1833647E+03  0.7546771E-02  0.1067769E+00
        -11   -1    0    0    0    0  0.00000000000E+00  0.00000000000E+00  0.18250000000E+03  0.18250000000E+03  0.00000000000E+00 0.  1.
         11   -1    0    0    0    0 -0.00000000000E+00 -0.00000000000E+00 -0.18250000000E+03  0.18250000000E+03  0.00000000000E+00 0. -1.
        -11    1    1    2    0    0  0.24171172715E+01 -0.13238438021E+01  0.18161441137E+03  0.18163531990E+03  0.00000000000E+00 0.  1.
         11    1    1    2    0    0  0.35929352580E+00  0.23052701728E+01 -0.16756525085E+03  0.16758149258E+03  0.00000000000E+00 0. -1.
        -15    1    1    2    0    0 -0.19511650275E+01  0.11245416022E+01 -0.22707794836E+01  0.36586619470E+01  0.17770000000E+01 0.  1.
         15    1    1    2    0    0 -0.82524576976E+00 -0.21059679728E+01 -0.11778381029E+02  0.12124525572E+02  0.17770000000E+01 0.  1.
</event>
<event>
 6    1  0.8353910E-003  0.1842792E+03  0.7546771E-02  0.1067047E+00
        -11   -1    0    0    0    0  0.00000000000E+00  0.00000000000E+00  0.18250000000E+03  0.18250000000E+03  0.00000000000E+00 0.  1.
         11   -1    0    0    0    0 -0.00000000000E+00 -0.00000000000E+00 -0.18250000000E+03  0.18250000000E+03  0.00000000000E+00 0.  1.
        -11    1    1    2    0    0 -0.26155474311E+01 -0.34057042639E+01  0.18066977915E+03  0.18072080402E+03  0.00000000000E+00 0.  1.
         11    1    1    2    0    0  0.11581352829E+01 -0.31346923946E+01 -0.11484937176E+03  0.11489797982E+03  0.00000000000E+00 0.  1.
        -15    1    1    2    0    0 -0.25742730265E+01  0.68904641553E+01 -0.67337594108E+01  0.10129492717E+02  0.17770000000E+01 0. -1.
         15    1    1    2    0    0  0.40316851746E+01 -0.35006749687E+00 -0.59086647974E+02  0.59251723438E+02  0.17770000000E+01 0.  1.
</event>
<event>
 6    1  0.8353910E-003  0.1828909E+03  0.7546771E-02  0.1068144E+00
        -11   -1    0    0    0    0  0.00000000000E+00  0.00000000000E+00  0.18250000000E+03  0.18250000000E+03  0.00000000000E+00 0. -1.
         11   -1    0    0    0    0 -0.00000000000E+00 -0.00000000000E+00 -0.18250000000E+03  0.18250000000E+03  0.00000000000E+00 0.  1.
        -11    1    1    2    0    0 -0.15465890065E+01 -0.17059078549E+01  0.14834855586E+03  0.14836642506E+03  0.00000000000E+00 0. -1.
         11    1    1    2    0    0 -0.24376076330E+01 -0.99714058221E+00 -0.18209004654E+03  0.18210909167E+03  0.00000000000E+00 0.  1.
        -15    1    1    2    0    0  0.14180995709E+01 -0.96858148964E+00  0.12700234003E+02  0.12938424527E+02  0.17770000000E+01 0. -1.
         15    1    1    2    0    0  0.25660970685E+01  0.36716299267E+01  0.21041256680E+02  0.21586058745E+02  0.17770000000E+01 0.  1.
</event>
<event>
 6    1  0.8353910E-003  0.1829043E+03  0.7546771E-02  0.1068133E+00
        -11   -1    0    0    0    0  0.00000000000E+00  0.00000000000E+00  0.18250000000E+03  0.18250000000E+03  0.00000000000E+00 0. -1.
         11   -1    0    0    0    0 -0.00000000000E+00 -0.00000000000E+00 -0.18250000000E+03  0.18250000000E+03  0.00000000000E+00 0.  1.
        -11    1    1    2    0    0  0.30453940892E+01 -0.28018280059E+00  0.18206998511E+03  0.18209566828E+03  0.00000000000E+00 0. -1.
         11    1    1    2    0    0  0.12712106973E+01 -0.11551206761E+01 -0.10714463112E+03  0.10715839798E+03  0.00000000000E+00 0.  1.
        -15    1    1    2    0    0 -0.38313392537E+01  0.23729962697E+01 -0.14551232057E+02  0.15336438802E+02  0.17770000000E+01 0. -1.
         15    1    1    2    0    0 -0.48526553283E+00 -0.93769279304E+00 -0.60374121931E+02  0.60409494935E+02  0.17770000000E+01 0.  1.
</event>
<event>
 6    1  0.8353910E-003  0.1838694E+03  0.7546771E-02  0.1067370E+00
        -11   -1    0    0    0    0  0.00000000000E+00  0.00000000000E+00  0.18250000000E+03  0.18250000000E+03  0.00000000000E+00 0.  1.
         11   -1    0    0    0    0 -0.00000000000E+00 -0.00000000000E+00 -0.18250000000E+03  0.18250000000E+03  0.00000000000E+00 0. -1.
        -11    1    1    2    0    0 -0.23277373027E+01 -0.57405153568E+00  0.15167558243E+03  0.15169452925E+03  0.00000000000E+00 0.  1.
         11    1    1    2    0    0  0.20420602956E+01 -0.48263217240E+01 -0.18105479598E+03  0.18113062286E+03  0.00000000000E+00 0. -1.
        -15    1    1    2    0    0  0.41186607382E+01  0.29555467945E+01  0.25146925762E+02  0.25714280612E+02  0.17770000000E+01 0. -1.
         15    1    1    2    0    0 -0.38329837311E+01  0.24448264652E+01  0.42322877817E+01  0.64605672812E+01  0.17770000000E+01 0.  1.
</event>
<event>
 6    1  0.8353910E-003  0.1568412E+03  0.7546771E-02  0.1090938E+00
        -11   -1    0    0    0    0  0.00000000000E+00  0.00000000000E+00  0.18250000000E+03  0.18250000000E+03  0.00000000000E+00 0.  1.
         11   -1    0    0    0    0 -0.00000000000E+00 -0.00000000000E+00 -0.18250000000E+03  0.18250000000E+03  0.00000000000E+00 0. -1.
        -11    1    1    2    0    0  0.13428510840E+02  0.25597439267E+01  0.15131041185E+03  0.15192668602E+03  0.00000000000E+00 0.  1.
         11    1    1    2    0    0  0.34774591367E+01  0.43923817726E+01 -0.13644697109E+02  0.14750033860E+02  0.00000000000E+00 0. -1.
        -15    1    1    2    0    0 -0.23372272480E+02 -0.10481391820E+02  0.24790140469E+02  0.35690775963E+02  0.17770000000E+01 0.  1.
         15    1    1    2    0    0  0.64663025039E+01  0.35292661206E+01 -0.16245585521E+03  0.16263250415E+03  0.17770000000E+01 0. -1.
</event>
<event>
 6    1  0.8353910E-003  0.1852253E+03  0.7546771E-02  0.1066306E+00
        -11   -1    0    0    0    0  0.00000000000E+00  0.00000000000E+00  0.18250000000E+03  0.18250000000E+03  0.00000000000E+00 0. -1.
         11   -1    0    0    0    0 -0.00000000000E+00 -0.00000000000E+00 -0.18250000000E+03  0.18250000000E+03  0.00000000000E+00 0. -1.
        -11    1    1    2    0    0  0.85540555452E+00  0.32125837131E+01  0.17974397265E+03  0.17977471490E+03  0.00000000000E+00 0. -1.
         11    1    1    2    0    0 -0.18582993453E+01  0.42130280941E+01 -0.15811960609E+03  0.15818663885E+03  0.00000000000E+00 0. -1.
        -15    1    1    2    0    0  0.14034734423E+01  0.23533878619E+01 -0.32932845952E-01  0.32660351658E+01  0.17770000000E+01 0. -1.
         15    1    1    2    0    0 -0.40057965146E+00 -0.97789996691E+01 -0.21591433721E+02  0.23772611083E+02  0.17770000000E+01 0.  1.
</event>
<event>
 6    1  0.8353910E-003  0.1863755E+03  0.7546771E-02  0.1065411E+00
        -11   -1    0    0    0    0  0.00000000000E+00  0.00000000000E+00  0.18250000000E+03  0.18250000000E+03  0.00000000000E+00 0.  1.
         11   -1    0    0    0    0 -0.00000000000E+00 -0.00000000000E+00 -0.18250000000E+03  0.18250000000E+03  0.00000000000E+00 0.  1.
        -11    1    1    2    0    0 -0.26531952187E+01  0.43687838695E+01  0.17855138718E+03  0.17862453241E+03  0.00000000000E+00 0.  1.
         11    1    1    2    0    0  0.13306631614E+01  0.29002510865E+00 -0.88470945569E+02  0.88481427367E+02  0.00000000000E+00 0.  1.
        -15    1    1    2    0    0 -0.49788248916E+01  0.33084186865E+01  0.92642601945E+00  0.63047859341E+01  0.17770000000E+01 0. -1.
         15    1    1    2    0    0  0.63013569489E+01 -0.79672276646E+01 -0.91006867627E+02  0.91589254284E+02  0.17770000000E+01 0.  1.
</event>
<event>
 6    1  0.8353910E-003  0.1918653E+03  0.7546771E-02  0.1061235E+00
        -11   -1    0    0    0    0  0.00000000000E+00  0.00000000000E+00  0.18250000000E+03  0.18250000000E+03  0.00000000000E+00 0.  1.
         11   -1    0    0    0    0 -0.00000000000E+00 -0.00000000000E+00 -0.18250000000E+03  0.18250000000E+03  0.00000000000E+00 0. -1.
        -11    1    1    2    0    0 -0.63322687280E+01  0.41225758468E+01  0.91587434209E+02  0.91898592828E+02  0.00000000000E+00 0.  1.
         11    1    1    2    0    0  0.53011732410E+00  0.24127815478E+02 -0.17144441842E+03  0.17313469067E+03  0.00000000000E+00 0. -1.
        -15    1    1    2    0    0  0.43195192713E+01 -0.11860303603E+02  0.82258912586E+02  0.83240684026E+02  0.17770000000E+01 0.  1.
         15    1    1    2    0    0  0.14826321325E+01 -0.16390087722E+02 -0.24019283726E+01  0.16726032479E+02  0.17770000000E+01 0. -1.
</event>
<event>
 6    1  0.8353910E-003  0.1921299E+03  0.7546771E-02  0.1061038E+00
        -11   -1    0    0    0    0  0.00000000000E+00  0.00000000000E+00  0.18250000000E+03  0.18250000000E+03  0.00000000000E+00 0. -1.
         11   -1    0    0    0    0 -0.00000000000E+00 -0.00000000000E+00 -0.18250000000E+03  0.18250000000E+03  0.00000000000E+00 0. -1.
        -11    1    1    2    0    0 -0.33058755302E+01 -0.11450863818E+02  0.17245873018E+03  0.17287008044E+03  0.00000000000E+00 0. -1.
         11    1    1    2    0    0  0.15233361657E+01  0.21612259005E+01 -0.16366897967E+03  0.16369033678E+03  0.00000000000E+00 0. -1.
        -15    1    1    2    0    0 -0.11439655777E+02  0.67172213715E+01 -0.54264823176E+01  0.14442687652E+02  0.17770000000E+01 0.  1.
         15    1    1    2    0    0  0.13222195142E+02  0.25724165459E+01 -0.33632681969E+01  0.13996895128E+02  0.17770000000E+01 0. -1.
</event>
<event>
 6    1  0.1188994E-002  0.1848597E+03  0.7546771E-02  0.1066592E+00
        -11   -1    0    0    0    0  0.00000000000E+00  0.00000000000E+00  0.18250000000E+03  0.18250000000E+03  0.00000000000E+00 0. -1.
         11   -1    0    0    0    0 -0.00000000000E+00 -0.00000000000E+00 -0.18250000000E+03  0.18250000000E+03  0.00000000000E+00 0. -1.
        -11    1    1    2    0    0  0.10458521960E+01 -0.83079896232E+01  0.17994555266E+03  0.18014027429E+03  0.00000000000E+00 0. -1.
         11    1    1    2    0    0  0.57715394973E+01  0.67928986729E+01 -0.14840609502E+03  0.14867354566E+03  0.00000000000E+00 0. -1.
        -15    1    1    2    0    0 -0.20840289856E+01  0.58726332776E+01 -0.35029222411E+01  0.73660838750E+01  0.17770000000E+01 0.  1.
         15    1    1    2    0    0 -0.47333627077E+01 -0.43575423272E+01 -0.28036535400E+02  0.28820096181E+02  0.17770000000E+01 0. -1.
</event>
<event>
 6    1  0.8353910E-003  0.1869630E+03  0.7546771E-02  0.1064957E+00
        -11   -1    0    0    0    0  0.00000000000E+00  0.00000000000E+00  0.18250000000E+03  0.18250000000E+03  0.00000000000E+00 0.  1.
         11   -1    0    0    0    0 -0.00000000000E+00 -0.00000000000E+00 -0.18250000000E+03  0.18250000000E+03  0.00000000000E+00 0. -1.
        -11    1    1    2    0    0 -0.23800002984E+01 -0.65856282160E+00  0.17801983169E+03  0.17803695847E+03  0.00000000000E+00 0.  1.
         11    1    1    2    0    0 -0.61925501449E+00  0.28374846083E+01 -0.39357827113E+02  0.39464836889E+02  0.00000000000E+00 0. -1.
        -15    1    1    2    0    0 -0.46672865554E+01  0.44517635808E+01  0.15839551709E+01  0.68752022336E+01  0.17770000000E+01 0. -1.
         15    1    1    2    0    0  0.76665418682E+01 -0.66306853675E+01 -0.14024595975E+03  0.14062300241E+03  0.17770000000E+01 0.  1.
</event>
<event>
 6    1  0.8353910E-003  0.1829632E+03  0.7546771E-02  0.1068087E+00
        -11   -1    0    0    0    0  0.00000000000E+00  0.00000000000E+00  0.18250000000E+03  0.18250000000E+03  0.00000000000E+00 0.  1.
         11   -1    0    0    0    0 -0.00000000000E+00 -0.00000000000E+00 -0.18250000000E+03  0.18250000000E+03  0.00000000000E+00 0. -1.
        -11    1    1    2    0    0 -0.20249216838E+00 -0.50370015829E+01  0.18196700616E+03  0.18203681968E+03  0.00000000000E+00 0.  1.
         11    1    1    2    0    0  0.22893381337E+01 -0.42742713698E+00 -0.14587929115E+03  0.14589787987E+03  0.00000000000E+00 0. -1.
        -15    1    1    2    0    0  0.88186490634E+00  0.39995053324E+01 -0.23832839600E+02  0.24247385447E+02  0.17770000000E+01 0.  1.
         15    1    1    2    0    0 -0.29687108716E+01  0.14649233874E+01 -0.12254875412E+02  0.12817915007E+02  0.17770000000E+01 0. -1.
</event>
<event>
 6    1  0.9785375E-003  0.1763634E+03  0.7546771E-02  0.1073447E+00
        -11   -1    0    0    0    0  0.00000000000E+00  0.00000000000E+00  0.18250000000E+03  0.18250000000E+03  0.00000000000E+00 0.  1.
         11   -1    0    0    0    0 -0.00000000000E+00 -0.00000000000E+00 -0.18250000000E+03  0.18250000000E+03  0.00000000000E+00 0. -1.
        -11    1    1    2    0    0  0.17025511632E+01  0.19656173633E+01  0.17743587972E+03  0.17745493441E+03  0.00000000000E+00 0.  1.
         11    1    1    2    0    0 -0.33247192381E+01  0.52699529304E+01 -0.17524587520E+03  0.17535661646E+03  0.00000000000E+00 0. -1.
        -15    1    1    2    0    0 -0.11232590934E+01 -0.46922140094E+00  0.25231979927E+01  0.33175498224E+01  0.17770000000E+01 0.  1.
         15    1    1    2    0    0  0.27454271683E+01 -0.67663488928E+01 -0.47132025195E+01  0.88708993155E+01  0.17770000000E+01 0. -1.
</event>
<event>
 6    1  0.8353910E-003  0.1841065E+03  0.7546771E-02  0.1067183E+00
        -11   -1    0    0    0    0  0.00000000000E+00  0.00000000000E+00  0.18250000000E+03  0.18250000000E+03  0.00000000000E+00 0.  1.
         11   -1    0    0    0    0 -0.00000000000E+00 -0.00000000000E+00 -0.18250000000E+03  0.18250000000E+03  0.00000000000E+00 0.  1.
        -11    1    1    2    0    0 -0.20544688006E+01  0.44131857374E+01  0.18082797951E+03  0.18089349138E+03  0.00000000000E+00 0.  1.
         11    1    1    2    0    0  0.99311805789E+00  0.21054432237E+01 -0.12224835695E+03  0.12227051955E+03  0.00000000000E+00 0.  1.
        -15    1    1    2    0    0  0.59441335959E+01  0.86793227475E+00 -0.66853743214E+01  0.91617678128E+01  0.17770000000E+01 0.  1.
         15    1    1    2    0    0 -0.48827828532E+01 -0.73865612359E+01 -0.51894248241E+02  0.52674221255E+02  0.17770000000E+01 0. -1.
</event>
<event>
 6    1  0.8353910E-003  0.1832725E+03  0.7546771E-02  0.1067842E+00
        -11   -1    0    0    0    0  0.00000000000E+00  0.00000000000E+00  0.18250000000E+03  0.18250000000E+03  0.00000000000E+00 0.  1.
         11   -1    0    0    0    0 -0.00000000000E+00 -0.00000000000E+00 -0.18250000000E+03  0.18250000000E+03  0.00000000000E+00 0. -1.
        -11    1    1    2    0    0 -0.33083962972E+01 -0.88381056218E+00  0.15739330778E+03  0.15743055593E+03  0.00000000000E+00 0.  1.
         11    1    1    2    0    0  0.42206023985E+00  0.44203456624E+01 -0.18167324103E+03  0.18172749956E+03  0.00000000000E+00 0. -1.
        -15    1    1    2    0    0  0.28441778493E+01  0.92596396063E+00  0.14933372220E+02  0.15333300094E+02  0.17770000000E+01 0.  1.
         15    1    1    2    0    0  0.42158208082E-01 -0.44624990608E+01  0.93465610337E+01  0.10508644410E+02  0.17770000000E+01 0.  1.
</event>
<event>
 6    1  0.8353910E-003  0.1826900E+03  0.7546771E-02  0.1068304E+00
        -11   -1    0    0    0    0  0.00000000000E+00  0.00000000000E+00  0.18250000000E+03  0.18250000000E+03  0.00000000000E+00 0.  1.
         11   -1    0    0    0    0 -0.00000000000E+00 -0.00000000000E+00 -0.18250000000E+03  0.18250000000E+03  0.00000000000E+00 0. -1.
        -11    1    1    2    0    0 -0.19424005004E+01  0.15560405142E+01  0.11235539333E+03  0.11238295508E+03  0.00000000000E+00 0.  1.
         11    1    1    2    0    0  0.17197564261E+01 -0.22326899648E+01 -0.18228817804E+03  0.18230996221E+03  0.00000000000E+00 0. -1.
        -15    1    1    2    0    0 -0.15358999610E+01  0.14156696676E+01  0.11744837945E+02  0.12060765177E+02  0.17770000000E+01 0.  1.
         15    1    1    2    0    0  0.17585440353E+01 -0.73902021706E+00  0.58187946767E+02  0.58246317532E+02  0.17770000000E+01 0.  1.
</event>
<event>
 6    1  0.8353910E-003  0.1827384E+03  0.7546771E-02  0.1068265E+00
        -11   -1    0    0    0    0  0.00000000000E+00  0.00000000000E+00  0.18250000000E+03  0.18250000000E+03  0.00000000000E+00 0. -1.
         11   -1    0    0    0    0 -0.00000000000E+00 -0.00000000000E+00 -0.18250000000E+03  0.18250000000E+03  0.00000000000E+00 0.  1.
        -11    1    1    2    0    0 -0.27181775543E+01  0.85641606959E+00  0.11617948622E+03  0.11621443524E+03  0.00000000000E+00 0. -1.
         11    1    1    2    0    0 -0.23314425645E+01  0.11784687732E+01 -0.18224289643E+03  0.18226161887E+03  0.00000000000E+00 0.  1.
        -15    1    1    2    0    0  0.34993538669E+01 -0.19612965011E+01  0.56639761521E+02  0.56809440022E+02  0.17770000000E+01 0. -1.
         15    1    1    2    0    0  0.15502662519E+01 -0.73588341714E-01  0.94236486887E+01  0.97145058703E+01  0.17770000000E+01 0.  1.
</event>
<event>
 6    1  0.8353910E-003  0.1846715E+03  0.7546771E-02  0.1066739E+00
        -11   -1    0    0    0    0  0.00000000000E+00  0.00000000000E+00  0.18250000000E+03  0.18250000000E+03  0.00000000000E+00 0. -1.
         11   -1    0    0    0    0 -0.00000000000E+00 -0.00000000000E+00 -0.18250000000E+03  0.18250000000E+03  0.00000000000E+00 0.  1.
        -11    1    1    2    0    0 -0.14516818312E+01  0.40883706016E+01  0.18027634226E+03  0.18032853833E+03  0.00000000000E+00 0. -1.
         11    1    1    2    0    0 -0.34321747128E+00  0.25163039456E+01 -0.14993708812E+03  0.14995859421E+03  0.00000000000E+00 0.  1.
        -15    1    1    2    0    0  0.39267397579E+01 -0.50801843869E-01 -0.26047496598E+02  0.26401736193E+02  0.17770000000E+01 0. -1.
         15    1    1    2    0    0 -0.21318404554E+01 -0.65538727033E+01 -0.42917575422E+01  0.83111312672E+01  0.17770000000E+01 0.  1.
</event>
<event>
 6    1  0.8353910E-003  0.1829514E+03  0.7546771E-02  0.1068096E+00
        -11   -1    0    0    0    0  0.00000000000E+00  0.00000000000E+00  0.18250000000E+03  0.18250000000E+03  0.00000000000E+00 0.  1.
         11   -1    0    0    0    0 -0.00000000000E+00 -0.00000000000E+00 -0.18250000000E+03  0.18250000000E+03  0.00000000000E+00 0. -1.
        -11    1    1    2    0    0  0.18928706510E+01  0.27124523673E+01  0.18201851107E+03  0.18204856146E+03  0.00000000000E+00 0.  1.
         11    1    1    2    0    0 -0.53940779424E+00  0.74210322054E+00 -0.43821366992E+02  0.43830969451E+02  0.00000000000E+00 0. -1.
        -15    1    1    2    0    0 -0.43078895567E+01 -0.76283821121E+01 -0.52754621717E+02  0.53506616111E+02  0.17770000000E+01 0. -1.
         15    1    1    2    0    0  0.29544266999E+01  0.41738265242E+01 -0.85442522362E+02  0.85613852977E+02  0.17770000000E+01 0.  1.
</event>
<event>
 6    1  0.8353910E-003  0.1858516E+03  0.7546771E-02  0.1065818E+00
        -11   -1    0    0    0    0  0.00000000000E+00  0.00000000000E+00  0.18250000000E+03  0.18250000000E+03  0.00000000000E+00 0.  1.
         11   -1    0    0    0    0 -0.00000000000E+00 -0.00000000000E+00 -0.18250000000E+03  0.18250000000E+03  0.00000000000E+00 0. -1.
        -11    1    1    2    0    0  0.32249462984E+01  0.11410653862E+01  0.12663616890E+03  0.12668236493E+03  0.00000000000E+00 0.  1.
         11    1    1    2    0    0  0.34447388311E+00  0.83337770742E+01 -0.17895409572E+03  0.17914837113E+03  0.00000000000E+00 0. -1.
        -15    1    1    2    0    0 -0.11116641184E+01 -0.19995665321E+01  0.50895316080E+02  0.50977691114E+02  0.17770000000E+01 0.  1.
         15    1    1    2    0    0 -0.24577560631E+01 -0.74752759283E+01  0.14226107386E+01  0.81915728272E+01  0.17770000000E+01 0. -1.
</event>
<event>
 6    1  0.8353910E-003  0.1856341E+03  0.7546771E-02  0.1065987E+00
        -11   -1    0    0    0    0  0.00000000000E+00  0.00000000000E+00  0.18250000000E+03  0.18250000000E+03  0.00000000000E+00 0. -1.
         11   -1    0    0    0    0 -0.00000000000E+00 -0.00000000000E+00 -0.18250000000E+03  0.18250000000E+03  0.00000000000E+00 0.  1.
        -11    1    1    2    0    0 -0.43698820182E+01  0.24628545337E+01  0.17929576525E+03  0.17936591916E+03  0.00000000000E+00 0. -1.
         11    1    1    2    0    0  0.43249546613E+01 -0.68688720712E+01 -0.15856565405E+03  0.15877327635E+03  0.00000000000E+00 0.  1.
        -15    1    1    2    0    0 -0.12512478368E+01  0.10361666752E+02 -0.14607731239E+02  0.18040878581E+02  0.17770000000E+01 0.  1.
         15    1    1    2    0    0  0.12961751937E+01 -0.59556492143E+01 -0.61223799573E+01  0.88199259088E+01  0.17770000000E+01 0. -1.
</event>
<event>
 6    1  0.8353910E-003  0.1838142E+03  0.7546771E-02  0.1067414E+00
        -11   -1    0    0    0    0  0.00000000000E+00  0.00000000000E+00  0.18250000000E+03  0.18250000000E+03  0.00000000000E+00 0. -1.
         11   -1    0    0    0    0 -0.00000000000E+00 -0.00000000000E+00 -0.18250000000E+03  0.18250000000E+03  0.00000000000E+00 0. -1.
        -11    1    1    2    0    0 -0.26330235835E+01 -0.19595805823E+01  0.18115611743E+03  0.18118584838E+03  0.00000000000E+00 0. -1.
         11    1    1    2    0    0 -0.32307764225E+01  0.43639717401E+01 -0.75736747230E+02  0.75931133579E+02  0.00000000000E+00 0. -1.
        -15    1    1    2    0    0  0.16327312423E+01 -0.43539929449E+01 -0.41222502351E+01  0.64632609320E+01  0.17770000000E+01 0.  1.
         15    1    1    2    0    0  0.42310687637E+01  0.19496017871E+01 -0.10129711997E+03  0.10141975711E+03  0.17770000000E+01 0. -1.
</event>
<event>
 6    1  0.8353910E-003  0.1869013E+03  0.7546771E-02  0.1065004E+00
        -11   -1    0    0    0    0  0.00000000000E+00  0.00000000000E+00  0.18250000000E+03  0.18250000000E+03  0.00000000000E+00 0.  1.
         11   -1    0    0    0    0 -0.00000000000E+00 -0.00000000000E+00 -0.18250000000E+03  0.18250000000E+03  0.00000000000E+00 0.  1.
        -11    1    1    2    0    0  0.42077752808E+01  0.21185103851E+01  0.17803634864E+03  0.17809866618E+03  0.00000000000E+00 0.  1.
         11    1    1    2    0    0  0.41051856148E+01  0.31499470926E+01 -0.12401028432E+03  0.12411819099E+03  0.00000000000E+00 0.  1.
        -15    1    1    2    0    0  0.10299045187E+02 -0.68433537134E+01 -0.28366416401E+02  0.30995372723E+02  0.17770000000E+01 0. -1.
         15    1    1    2    0    0 -0.18612006082E+02  0.15748962358E+01 -0.25659647912E+02  0.31787770110E+02  0.17770000000E+01 0.  1.
</event>
<event>
 6    1  0.8353910E-003  0.1835359E+03  0.7546771E-02  0.1067633E+00
        -11   -1    0    0    0    0  0.00000000000E+00  0.00000000000E+00  0.18250000000E+03  0.18250000000E+03  0.00000000000E+00 0. -1.
         11   -1    0    0    0    0 -0.00000000000E+00 -0.00000000000E+00 -0.18250000000E+03  0.18250000000E+03  0.00000000000E+00 0. -1.
        -11    1    1    2    0    0 -0.38860886606E+01 -0.43858183228E+01  0.18136943488E+03  0.18146407081E+03  0.00000000000E+00 0. -1.
         11    1    1    2    0    0  0.23014719751E+01  0.23021868807E+01 -0.12357168413E+03  0.12361455398E+03  0.00000000000E+00 0. -1.
        -15    1    1    2    0    0 -0.17198994355E+01  0.46164378716E+01 -0.53241998129E+02  0.53498949957E+02  0.17770000000E+01 0. -1.
         15    1    1    2    0    0  0.33045161209E+01 -0.25328064295E+01 -0.45557526191E+01  0.64224252529E+01  0.17770000000E+01 0.  1.
</event>
<event>
 6    1  0.8353910E-003  0.1874184E+03  0.7546771E-02  0.1064606E+00
        -11   -1    0    0    0    0  0.00000000000E+00  0.00000000000E+00  0.18250000000E+03  0.18250000000E+03  0.00000000000E+00 0.  1.
         11   -1    0    0    0    0 -0.00000000000E+00 -0.00000000000E+00 -0.18250000000E+03  0.18250000000E+03  0.00000000000E+00 0.  1.
        -11    1    1    2    0    0 -0.27508054880E+01  0.19262553685E+01  0.15502918880E+03  0.15506555636E+03  0.00000000000E+00 0.  1.
         11    1    1    2    0    0 -0.76566622418E+01  0.84564005869E+01 -0.17721481088E+03  0.17758159922E+03  0.00000000000E+00 0.  1.
        -15    1    1    2    0    0  0.92588162853E+01 -0.13211470218E+02  0.23520094590E+02  0.28576584870E+02  0.17770000000E+01 0.  1.
         15    1    1    2    0    0  0.11486514445E+01  0.28288142622E+01 -0.13344725098E+01  0.37762595448E+01  0.17770000000E+01 0. -1.
</event>
<event>
 6    1  0.8353910E-003  0.1833820E+03  0.7546771E-02  0.1067755E+00
        -11   -1    0    0    0    0  0.00000000000E+00  0.00000000000E+00  0.18250000000E+03  0.18250000000E+03  0.00000000000E+00 0.  1.
         11   -1    0    0    0    0 -0.00000000000E+00 -0.00000000000E+00 -0.18250000000E+03  0.18250000000E+03  0.00000000000E+00 0. -1.
        -11    1    1    2    0    0 -0.55780688983E+00  0.64339833219E+01  0.18150311617E+03  0.18161797397E+03  0.00000000000E+00 0.  1.
         11    1    1    2    0    0  0.85601249933E+00  0.41203859198E+01 -0.12550719524E+03  0.12557773049E+03  0.00000000000E+00 0. -1.
        -15    1    1    2    0    0 -0.26966835919E+01 -0.15012152979E+01 -0.28095954561E+02  0.28320772261E+02  0.17770000000E+01 0. -1.
         15    1    1    2    0    0  0.23984779824E+01 -0.90531539438E+01 -0.27899966363E+02  0.29483523280E+02  0.17770000000E+01 0.  1.
</event>
<event>
 6    1  0.8353910E-003  0.1828880E+03  0.7546771E-02  0.1068146E+00
        -11   -1    0    0    0    0  0.00000000000E+00  0.00000000000E+00  0.18250000000E+03  0.18250000000E+03  0.00000000000E+00 0. -1.
         11   -1    0    0    0    0 -0.00000000000E+00 -0.00000000000E+00 -0.18250000000E+03  0.18250000000E+03  0.00000000000E+00 0. -1.
        -11    1    1    2    0    0  0.26776866936E+01 -0.15674369026E+01  0.18208552322E+03  0.18211195631E+03  0.00000000000E+00 0. -1.
         11    1    1    2    0    0  0.97673242412E+00 -0.14725235987E-01 -0.66741015767E+02  0.66748164085E+02  0.00000000000E+00 0. -1.
        -15    1    1    2    0    0  0.11461381248E+01  0.25739007449E+00 -0.97626167763E+02  0.97649404726E+02  0.17770000000E+01 0. -1.
         15    1    1    2    0    0 -0.48005572425E+01  0.13247720641E+01 -0.17718339691E+02  0.18490474879E+02  0.17770000000E+01 0.  1.
</event>
<event>
 6    1  0.8353910E-003  0.1836077E+03  0.7546771E-02  0.1067576E+00
        -11   -1    0    0    0    0  0.00000000000E+00  0.00000000000E+00  0.18250000000E+03  0.18250000000E+03  0.00000000000E+00 0.  1.
         11   -1    0    0    0    0 -0.00000000000E+00 -0.00000000000E+00 -0.18250000000E+03  0.18250000000E+03  0.00000000000E+00 0.  1.
        -11    1    1    2    0    0 -0.22365118436E+01 -0.88313006345E-01  0.11708632129E+03  0.11710771289E+03  0.00000000000E+00 0.  1.
         11    1    1    2    0    0  0.41135034337E+01 -0.17622124964E+01 -0.18133704842E+03  0.18139225847E+03  0.00000000000E+00 0.  1.
        -15    1    1    2    0    0 -0.53633858602E+01  0.57921035107E+01  0.15989720444E+02  0.17920470413E+02  0.17770000000E+01 0. -1.
         15    1    1    2    0    0  0.34863942701E+01 -0.39415780080E+01  0.48261006689E+02  0.48579558230E+02  0.17770000000E+01 0.  1.
</event>
<event>
 6    1  0.8353910E-003  0.1842439E+03  0.7546771E-02  0.1067075E+00
        -11   -1    0    0    0    0  0.00000000000E+00  0.00000000000E+00  0.18250000000E+03  0.18250000000E+03  0.00000000000E+00 0. -1.
         11   -1    0    0    0    0 -0.00000000000E+00 -0.00000000000E+00 -0.18250000000E+03  0.18250000000E+03  0.00000000000E+00 0.  1.
        -11    1    1    2    0    0  0.26286458206E+01  0.24054252915E+01  0.18072094255E+03  0.18075606470E+03  0.00000000000E+00 0. -1.
         11    1    1    2    0    0  0.83853334969E+00 -0.28385158309E+01 -0.16593174521E+03  0.16595814044E+03  0.00000000000E+00 0.  1.
        -15    1    1    2    0    0 -0.29994740185E+01  0.33060469871E+01 -0.13977463550E+02  0.14780189693E+02  0.17770000000E+01 0. -1.
         15    1    1    2    0    0 -0.46770515172E+00 -0.28729564477E+01 -0.81173378773E+00  0.35056051691E+01  0.17770000000E+01 0.  1.
</event>
<event>
 6    1  0.8353910E-003  0.1839787E+03  0.7546771E-02  0.1067284E+00
        -11   -1    0    0    0    0  0.00000000000E+00  0.00000000000E+00  0.18250000000E+03  0.18250000000E+03  0.00000000000E+00 0.  1.
         11   -1    0    0    0    0 -0.00000000000E+00 -0.00000000000E+00 -0.18250000000E+03  0.18250000000E+03  0.00000000000E+00 0.  1.
        -11    1    1    2    0    0  0.37802814765E+01  0.66113328221E+01  0.18086098771E+03  0.18102126153E+03  0.00000000000E+00 0.  1.
         11    1    1    2    0    0 -0.21010689397E+00 -0.10451327719E+01 -0.33349653092E+02  0.33366687111E+02  0.00000000000E+00 0.  1.
        -15    1    1    2    0    0  0.19960310939E+00  0.45298367488E+01 -0.12919186683E+03  0.12928362404E+03  0.17770000000E+01 0.  1.
         15    1    1    2    0    0 -0.37697776920E+01 -0.10096036799E+02 -0.18319467787E+02  0.21328427319E+02  0.17770000000E+01 0.  1.
</event>
<event>
 6    1  0.8353910E-003  0.1856667E+03  0.7546771E-02  0.1065962E+00
        -11   -1    0    0    0    0  0.00000000000E+00  0.00000000000E+00  0.18250000000E+03  0.18250000000E+03  0.00000000000E+00 0. -1.
         11   -1    0    0    0    0 -0.00000000000E+00 -0.00000000000E+00 -0.18250000000E+03  0.18250000000E+03  0.00000000000E+00 0. -1.
        -11    1    1    2    0    0 -0.16592423934E+01  0.38580177089E+01  0.17928412185E+03  0.17933330347E+03  0.00000000000E+00 0. -1.
         11    1    1    2    0    0 -0.47946754871E+01  0.34881856553E+01 -0.15816779173E+03  0.15827888897E+03  0.00000000000E+00 0. -1.
        -15    1    1    2    0    0  0.34735910164E+01 -0.28735626938E+01 -0.21179398352E+02  0.21726661977E+02  0.17770000000E+01 0.  1.
         15    1    1    2    0    0  0.29803268641E+01 -0.44726406705E+01  0.63068235247E-01  0.56611455895E+01  0.17770000000E+01 0. -1.
</event>
<event>
 6    1  0.8353910E-003  0.1847890E+03  0.7546771E-02  0.1066647E+00
        -11   -1    0    0    0    0  0.00000000000E+00  0.00000000000E+00  0.18250000000E+03  0.18250000000E+03  0.00000000000E+00 0. -1.
         11   -1    0    0    0    0 -0.00000000000E+00 -0.00000000000E+00 -0.18250000000E+03  0.18250000000E+03  0.00000000000E+00 0.  1.
        -11    1    1    2    0    0 -0.39040761309E+00  0.50292950961E+01  0.18014043136E+03  0.18021104638E+03  0.00000000000E+00 0. -1.
         11    1    1    2    0    0 -0.87463523972E+01  0.15598546950E+01 -0.14919687476E+03  0.14946116307E+03  0.00000000000E+00 0.  1.
        -15    1    1    2    0    0  0.78475796856E+01 -0.77347810196E+01 -0.30896939734E+02  0.32851026746E+02  0.17770000000E+01 0. -1.
         15    1    1    2    0    0  0.12891803247E+01  0.11456312285E+01 -0.46616857639E-01  0.24767638064E+01  0.17770000000E+01 0. -1.
</event>
<event>
 6    1  0.8353910E-003  0.1830787E+03  0.7546771E-02  0.1067995E+00
        -11   -1    0    0    0    0  0.00000000000E+00  0.00000000000E+00  0.18250000000E+03  0.18250000000E+03  0.00000000000E+00 0. -1.
         11   -1    0    0    0    0 -0.00000000000E+00 -0.00000000000E+00 -0.18250000000E+03  0.18250000000E+03  0.00000000000E+00 0.  1.
        -11    1    1    2    0    0  0.21491506446E+01  0.24167801367E+01  0.18189256036E+03  0.18192131043E+03  0.00000000000E+00 0. -1.
         11    1    1    2    0    0  0.24924037583E+01 -0.80343542213E+00 -0.14948541708E+03  0.14950835262E+03  0.00000000000E+00 0.  1.
        -15    1    1    2    0    0  0.99216997525E+00 -0.19805114550E+01 -0.10832863800E+02  0.11198905928E+02  0.17770000000E+01 0.  1.
         15    1    1    2    0    0 -0.56337243782E+01  0.36716674043E+00 -0.21574279479E+02  0.22371431019E+02  0.17770000000E+01 0. -1.
</event>
<event>
 6    1  0.8353910E-003  0.1861871E+03  0.7546771E-02  0.1065557E+00
        -11   -1    0    0    0    0  0.00000000000E+00  0.00000000000E+00  0.18250000000E+03  0.18250000000E+03  0.00000000000E+00 0. -1.
         11   -1    0    0    0    0 -0.00000000000E+00 -0.00000000000E+00 -0.18250000000E+03  0.18250000000E+03  0.00000000000E+00 0. -1.
        -11    1    1    2    0    0 -0.17421286588E+01 -0.18771515463E+01  0.17879459857E+03  0.17881293909E+03  0.00000000000E+00 0. -1.
         11    1    1    2    0    0 -0.60409151735E+01 -0.13193062234E+01 -0.16823207047E+03  0.16834566451E+03  0.00000000000E+00 0. -1.
        -15    1    1    2    0    0  0.76095593486E+01  0.11684881033E+01 -0.12307169878E+02  0.14625146746E+02  0.17770000000E+01 0. -1.
         15    1    1    2    0    0  0.17348448381E+00  0.20279696665E+01  0.17446417826E+01  0.32162496458E+01  0.17770000000E+01 0.  1.
</event>
<event>
 6    1  0.8353910E-003  0.1826825E+03  0.7546771E-02  0.1068310E+00
        -11   -1    0    0    0    0  0.00000000000E+00  0.00000000000E+00  0.18250000000E+03  0.18250000000E+03  0.00000000000E+00 0.  1.
         11   -1    0    0    0    0 -0.00000000000E+00 -0.00000000000E+00 -0.18250000000E+03  0.18250000000E+03  0.00000000000E+00 0.  1.
        -11    1    1    2    0    0  0.17310327179E+00  0.20663913965E+01  0.65625030944E+02  0.65657784189E+02  0.00000000000E+00 0.  1.
         11    1    1    2    0    0  0.30983922214E+01 -0.35784373457E+01 -0.18225604350E+03  0.18231749955E+03  0.00000000000E+00 0.  1.
        -15    1    1    2    0    0 -0.12345145786E+01 -0.33379742557E+01  0.42312537903E+02  0.42499114005E+02  0.17770000000E+01 0. -1.
         15    1    1    2    0    0 -0.20369809146E+01  0.48500202049E+01  0.74318474657E+02  0.74525602256E+02  0.17770000000E+01 0.  1.
</event>
<event>
 6    1  0.8353910E-003  0.1827750E+03  0.7546771E-02  0.1068236E+00
        -11   -1    0    0    0    0  0.00000000000E+00  0.00000000000E+00  0.18250000000E+03  0.18250000000E+03  0.00000000000E+00 0. -1.
         11   -1    0    0    0    0 -0.00000000000E+00 -0.00000000000E+00 -0.18250000000E+03  0.18250000000E+03  0.00000000000E+00 0.  1.
        -11    1    1    2    0    0 -0.24612485444E+01 -0.39672112869E+01  0.67233896054E+02  0.67395795777E+02  0.00000000000E+00 0. -1.
         11    1    1    2    0    0  0.25483616155E+01  0.10103531310E+02 -0.18192687941E+03  0.18222503929E+03  0.00000000000E+00 0.  1.
        -15    1    1    2    0    0 -0.18121121401E+01 -0.17851508220E+01  0.81826758084E+01  0.87512528390E+01  0.17770000000E+01 0.  1.
         15    1    1    2    0    0  0.17249990690E+01 -0.43511692015E+01  0.10651030755E+03  0.10662791210E+03  0.17770000000E+01 0. -1.
</event>
<event>
 6    1  0.8353910E-003  0.1870811E+03  0.7546771E-02  0.1064866E+00
        -11   -1    0    0    0    0  0.00000000000E+00  0.00000000000E+00  0.18250000000E+03  0.18250000000E+03  0.00000000000E+00 0.  1.
         11   -1    0    0    0    0 -0.00000000000E+00 -0.00000000000E+00 -0.18250000000E+03  0.18250000000E+03  0.00000000000E+00 0.  1.
        -11    1    1    2    0    0  0.10077258865E+01 -0.22225063218E+01  0.47724568801E+02  0.47786917802E+02  0.00000000000E+00 0.  1.
         11    1    1    2    0    0 -0.33172159829E+01  0.26513380513E+01 -0.17786824632E+03  0.17791893256E+03  0.00000000000E+00 0.  1.
        -15    1    1    2    0    0 -0.34645898375E+01 -0.60100054650E+01 -0.15640147879E+01  0.73298990230E+01  0.17770000000E+01 0. -1.
         15    1    1    2    0    0  0.57740799338E+01  0.55811737355E+01  0.13170769230E+03  0.13196425061E+03  0.17770000000E+01 0.  1.
</event>
<event>
 6    1  0.8353910E-003  0.1873427E+03  0.7546771E-02  0.1064664E+00
        -11   -1    0    0    0    0  0.00000000000E+00  0.00000000000E+00  0.18250000000E+03  0.18250000000E+03  0.00000000000E+00 0.  1.
         11   -1    0    0    0    0 -0.00000000000E+00 -0.00000000000E+00 -0.18250000000E+03  0.18250000000E+03  0.00000000000E+00 0. -1.
        -11    1    1    2    0    0 -0.49420857648E+01  0.21435346650E+01  0.17757559104E+03  0.17765728098E+03  0.00000000000E+00 0.  1.
         11    1    1    2    0    0 -0.32405904303E+01 -0.16213337224E+01 -0.14371075784E+03  0.14375643314E+03  0.00000000000E+00 0. -1.
        -15    1    1    2    0    0  0.34513525456E+01 -0.19848686101E+01  0.36611413992E+01  0.56932612041E+01  0.17770000000E+01 0. -1.
         15    1    1    2    0    0  0.47313236495E+01  0.14626676675E+01 -0.37525974597E+02  0.37893024670E+02  0.17770000000E+01 0.  1.
</event>
<event>
 6    1  0.8353910E-003  0.1841858E+03  0.7546771E-02  0.1067121E+00
        -11   -1    0    0    0    0  0.00000000000E+00  0.00000000000E+00  0.18250000000E+03  0.18250000000E+03  0.00000000000E+00 0.  1.
         11   -1    0    0    0    0 -0.00000000000E+00 -0.00000000000E+00 -0.18250000000E+03  0.18250000000E+03  0.00000000000E+00 0. -1.
        -11    1    1    2    0    0 -0.18478107828E+01  0.85451408628E+01  0.18060270000E+03  0.18081418386E+03  0.00000000000E+00 0.  1.
         11    1    1    2    0    0  0.17240171169E+01 -0.15570553862E+01 -0.10837985129E+03  0.10840474538E+03  0.00000000000E+00 0. -1.
        -15    1    1    2    0    0 -0.90894615248E+01 -0.29675592442E+01 -0.54221207737E+02  0.55086493954E+02  0.17770000000E+01 0. -1.
         15    1    1    2    0    0  0.92132551907E+01 -0.40205262324E+01 -0.18001640977E+02  0.20694576808E+02  0.17770000000E+01 0.  1.
</event>
<event>
 6    1  0.8353910E-003  0.1848121E+03  0.7546771E-02  0.1066629E+00
        -11   -1    0    0    0    0  0.00000000000E+00  0.00000000000E+00  0.18250000000E+03  0.18250000000E+03  0.00000000000E+00 0. -1.
         11   -1    0    0    0    0 -0.00000000000E+00 -0.00000000000E+00 -0.18250000000E+03  0.18250000000E+03  0.00000000000E+00 0.  1.
        -11    1    1    2    0    0  0.90021145903E+00  0.22105197089E+01  0.92844161589E+02  0.92874835769E+02  0.00000000000E+00 0. -1.
         11    1    1    2    0    0  0.22189285157E+00 -0.44163289283E+01 -0.18013362192E+03  0.18018788789E+03  0.00000000000E+00 0.  1.
        -15    1    1    2    0    0 -0.57796080002E+01 -0.63039769900E+01  0.77672761154E+02  0.78162392165E+02  0.17770000000E+01 0. -1.
         15    1    1    2    0    0  0.46575036896E+01  0.85097862094E+01  0.96166991758E+01  0.13774884173E+02  0.17770000000E+01 0.  1.
</event>
<event>
 6    1  0.8353910E-003  0.1827326E+03  0.7546771E-02  0.1068270E+00
        -11   -1    0    0    0    0  0.00000000000E+00  0.00000000000E+00  0.18250000000E+03  0.18250000000E+03  0.00000000000E+00 0. -1.
         11   -1    0    0    0    0 -0.00000000000E+00 -0.00000000000E+00 -0.18250000000E+03  0.18250000000E+03  0.00000000000E+00 0. -1.
        -11    1    1    2    0    0 -0.12501722617E+01  0.32769205271E-01  0.72478678807E+02  0.72489467415E+02  0.00000000000E+00 0. -1.
         11    1    1    2    0    0 -0.27875516755E+01  0.14785480287E+01 -0.18224011051E+03  0.18226742558E+03  0.00000000000E+00 0. -1.
        -15    1    1    2    0    0  0.25957953533E+01  0.93789150449E+00  0.12496968322E+02  0.12920903228E+02  0.17770000000E+01 0.  1.
         15    1    1    2    0    0  0.14419285840E+01 -0.24492087385E+01  0.97264463383E+02  0.97322203775E+02  0.17770000000E+01 0. -1.
</event>
<event>
 6    1  0.8353910E-003  0.1826562E+03  0.7546771E-02  0.1068331E+00
        -11   -1    0    0    0    0  0.00000000000E+00  0.00000000000E+00  0.18250000000E+03  0.18250000000E+03  0.00000000000E+00 0.  1.
         11   -1    0    0    0    0 -0.00000000000E+00 -0.00000000000E+00 -0.18250000000E+03  0.18250000000E+03  0.00000000000E+00 0.  1.
        -11    1    1    2    0    0 -0.11044276921E+01  0.51710829450E+01  0.18226712872E+03  0.18234381281E+03  0.00000000000E+00 0.  1.
         11    1    1    2    0    0  0.31100645308E+01 -0.78904290603E+00 -0.39087309716E+02  0.39218782120E+02  0.00000000000E+00 0.  1.
        -15    1    1    2    0    0  0.81655953926E+00  0.43840982172E+00 -0.67957643877E+02  0.67987190432E+02  0.17770000000E+01 0.  1.
         15    1    1    2    0    0 -0.28221963779E+01 -0.48204498607E+01 -0.75222175125E+02  0.75450214637E+02  0.17770000000E+01 0.  1.
</event>
<event>
 6    1  0.8353910E-003  0.1840390E+03  0.7546771E-02  0.1067236E+00
        -11   -1    0    0    0    0  0.00000000000E+00  0.00000000000E+00  0.18250000000E+03  0.18250000000E+03  0.00000000000E+00 0. -1.
         11   -1    0    0    0    0 -0.00000000000E+00 -0.00000000000E+00 -0.18250000000E+03  0.18250000000E+03  0.00000000000E+00 0.  1.
        -11    1    1    2    0    0 -0.24273551469E-01 -0.24869620268E+01  0.14779355656E+03  0.14781448146E+03  0.00000000000E+00 0. -1.
         11    1    1    2    0    0 -0.86987949251E+01 -0.49747970920E+01 -0.18068332310E+03  0.18096099272E+03  0.00000000000E+00 0.  1.
        -15    1    1    2    0    0 -0.36787736004E+00  0.67918271435E+00  0.13897344564E+02  0.14031768878E+02  0.17770000000E+01 0.  1.
         15    1    1    2    0    0  0.90909458366E+01  0.67825764044E+01  0.18992421981E+02  0.22192756940E+02  0.17770000000E+01 0.  1.
</event>
<event>
 6    1  0.8353910E-003  0.1894291E+03  0.7546771E-02  0.1063069E+00
        -11   -1    0    0    0    0  0.00000000000E+00  0.00000000000E+00  0.18250000000E+03  0.18250000000E+03  0.00000000000E+00 0. -1.
         11   -1    0    0    0    0 -0.00000000000E+00 -0.00000000000E+00 -0.18250000000E+03  0.18250000000E+03  0.00000000000E+00 0. -1.
        -11    1    1    2    0    0 -0.18692740234E+01 -0.15838140717E+01  0.17555383378E+03  0.17557092928E+03  0.00000000000E+00 0. -1.
         11    1    1    2    0    0 -0.13291275357E+01 -0.31732633065E+01 -0.15191822536E+03  0.15195717613E+03  0.00000000000E+00 0. -1.
        -15    1    1    2    0    0  0.21795968069E+01  0.11225511539E+02 -0.27377939422E+02  0.29723257687E+02  0.17770000000E+01 0.  1.
         15    1    1    2    0    0  0.10188047522E+01 -0.64684341610E+01  0.37423310025E+01  0.77486369092E+01  0.17770000000E+01 0. -1.
</event>
<event>
 6    1  0.8353910E-003  0.1826922E+03  0.7546771E-02  0.1068302E+00
        -11   -1    0    0    0    0  0.00000000000E+00  0.00000000000E+00  0.18250000000E+03  0.18250000000E+03  0.00000000000E+00 0. -1.
         11   -1    0    0    0    0 -0.00000000000E+00 -0.00000000000E+00 -0.18250000000E+03  0.18250000000E+03  0.00000000000E+00 0.  1.
        -11    1    1    2    0    0 -0.64918181572E+00 -0.51372727252E-01  0.46300212917E+02  0.46304792326E+02  0.00000000000E+00 0. -1.
         11    1    1    2    0    0 -0.11373041972E+01 -0.37969212562E+01 -0.18226466490E+03  0.18230775668E+03  0.00000000000E+00 0.  1.
        -15    1    1    2    0    0  0.24070004580E+01  0.43279514312E+00  0.11633976763E+03  0.11637903688E+03  0.17770000000E+01 0. -1.
         15    1    1    2    0    0 -0.62051444510E+00  0.34154988403E+01  0.19624684358E+02  0.20008414121E+02  0.17770000000E+01 0.  1.
</event>
<event>
 6    1  0.8353910E-003  0.1785314E+03  0.7546771E-02  0.1071658E+00
        -11   -1    0    0    0    0  0.00000000000E+00  0.00000000000E+00  0.18250000000E+03  0.18250000000E+03  0.00000000000E+00 0. -1.
         11   -1    0    0    0    0 -0.00000000000E+00 -0.00000000000E+00 -0.18250000000E+03  0.18250000000E+03  0.00000000000E+00 0.  1.
        -11    1    1    2    0    0  0.29739090243E+01  0.13563919473E+00  0.17896749125E+03  0.17899224971E+03  0.00000000000E+00 0. -1.
         11    1    1    2    0    0 -0.83384869189E+00  0.41454487509E+01 -0.17805357493E+03  0.17810377760E+03  0.00000000000E+00 0.  1.
        -15    1    1    2    0    0 -0.18644559106E+01 -0.23005163577E+01 -0.29501879541E+01  0.45420159973E+01  0.17770000000E+01 0.  1.
         15    1    1    2    0    0 -0.27560442178E+00 -0.19805715879E+01  0.20362716425E+01  0.33619566943E+01  0.17770000000E+01 0. -1.
</event>
<event>
 6    1  0.8353910E-003  0.1840919E+03  0.7546771E-02  0.1067195E+00
        -11   -1    0    0    0    0  0.00000000000E+00  0.00000000000E+00  0.18250000000E+03  0.18250000000E+03  0.00000000000E+00 0.  1.
         11   -1    0    0    0    0 -0.00000000000E+00 -0.00000000000E+00 -0.18250000000E+03  0.18250000000E+03  0.00000000000E+00 0. -1.
        -11    1    1    2    0    0 -0.39945159646E+01 -0.36126080852E+01  0.16227492615E+03  0.16236427794E+03  0.00000000000E+00 0.  1.
         11    1    1    2    0    0 -0.33823751796E+01 -0.26802406593E+01 -0.18085661554E+03  0.18090809694E+03  0.00000000000E+00 0. -1.
        -15    1    1    2    0    0  0.51394129160E+01  0.52149337368E+01  0.16160086546E+02  0.17830177374E+02  0.17770000000E+01 0. -1.
         15    1    1    2    0    0  0.22374782282E+01  0.10779150078E+01  0.24216028521E+01  0.38974477494E+01  0.17770000000E+01 0.  1.
</event>
<event>
 6    1  0.8353910E-003  0.1757536E+03  0.7546771E-02  0.1073955E+00
        -11   -1    0    0    0    0  0.00000000000E+00  0.00000000000E+00  0.18250000000E+03  0.18250000000E+03  0.00000000000E+00 0. -1.
         11   -1    0    0    0    0 -0.00000000000E+00 -0.00000000000E+00 -0.18250000000E+03  0.18250000000E+03  0.00000000000E+00 0. -1.
        -11    1    1    2    0    0  0.17792391927E+01  0.16957206457E+01  0.17743894232E+03  0.17745596471E+03  0.00000000000E+00 0. -1.
         11    1    1    2    0    0  0.91088223099E+01 -0.41176082675E+01 -0.17395838058E+03  0.17424535436E+03  0.00000000000E+00 0. -1.
        -15    1    1    2    0    0 -0.69831662241E+01 -0.39679815478E+00 -0.37989955528E+01  0.81554984826E+01  0.17770000000E+01 0.  1.
         15    1    1    2    0    0 -0.39048952785E+01  0.28186857766E+01  0.31843381193E+00  0.51431824522E+01  0.17770000000E+01 0. -1.
</event>
<event>
 6    1  0.8353910E-003  0.1836599E+03  0.7546771E-02  0.1067535E+00
        -11   -1    0    0    0    0  0.00000000000E+00  0.00000000000E+00  0.18250000000E+03  0.18250000000E+03  0.00000000000E+00 0.  1.
         11   -1    0    0    0    0 -0.00000000000E+00 -0.00000000000E+00 -0.18250000000E+03  0.18250000000E+03  0.00000000000E+00 0.  1.
        -11    1    1    2    0    0  0.20347177498E+01  0.61151891340E+01  0.13342344068E+03  0.13357900335E+03  0.00000000000E+00 0.  1.
         11    1    1    2    0    0 -0.18950104451E+01 -0.20613161799E+01 -0.18131850569E+03  0.18134012406E+03  0.00000000000E+00 0.  1.
        -15    1    1    2    0    0 -0.20718337668E+01  0.45382380974E+01  0.23356224756E+02  0.23949093178E+02  0.17770000000E+01 0. -1.
         15    1    1    2    0    0  0.19321264621E+01 -0.85921110514E+01  0.24538840255E+02  0.26131779408E+02  0.17770000000E+01 0.  1.
</event>
<event>
 6    1  0.8353910E-003  0.1860813E+03  0.7546771E-02  0.1065639E+00
        -11   -1    0    0    0    0  0.00000000000E+00  0.00000000000E+00  0.18250000000E+03  0.18250000000E+03  0.00000000000E+00 0.  1.
         11   -1    0    0    0    0 -0.00000000000E+00 -0.00000000000E+00 -0.18250000000E+03  0.18250000000E+03  0.00000000000E+00 0.  1.
        -11    1    1    2    0    0  0.24667340904E+01  0.27653918347E+00  0.14595495211E+03  0.14597605727E+03  0.00000000000E+00 0.  1.
         11    1    1    2    0    0 -0.91191984835E+01 -0.11978324792E+02 -0.17828424413E+03  0.17891872946E+03  0.00000000000E+00 0.  1.
        -15    1    1    2    0    0 -0.45409665856E+01  0.11768370273E+01  0.19114514710E+02  0.19761774326E+02  0.17770000000E+01 0.  1.
         15    1    1    2    0    0  0.11193430979E+02  0.10524948582E+02  0.13214777314E+02  0.20343438947E+02  0.17770000000E+01 0. -1.
</event>
<event>
 6    1  0.8353910E-003  0.1835699E+03  0.7546771E-02  0.1067606E+00
        -11   -1    0    0    0    0  0.00000000000E+00  0.00000000000E+00  0.18250000000E+03  0.18250000000E+03  0.00000000000E+00 0.  1.
         11   -1    0    0    0    0 -0.00000000000E+00 -0.00000000000E+00 -0.18250000000E+03  0.18250000000E+03  0.00000000000E+00 0. -1.
        -11    1    1    2    0    0 -0.24049875550E+01  0.23684613420E+01  0.18139867086E+03  0.18143007293E+03  0.00000000000E+00 0.  1.
         11    1    1    2    0    0 -0.29905368349E+01  0.43468779308E+00 -0.12160407852E+03  0.12164162189E+03  0.00000000000E+00 0. -1.
        -15    1    1    2    0    0  0.98987827851E+00  0.53911061085E+01 -0.33224417854E+02  0.33720372993E+02  0.17770000000E+01 0. -1.
         15    1    1    2    0    0  0.44056461114E+01 -0.81942552436E+01 -0.26570174489E+02  0.28207932183E+02  0.17770000000E+01 0.  1.
</event>
<event>
 6    1  0.8353910E-003  0.1843663E+03  0.7546771E-02  0.1066979E+00
        -11   -1    0    0    0    0  0.00000000000E+00  0.00000000000E+00  0.18250000000E+03  0.18250000000E+03  0.00000000000E+00 0.  1.
         11   -1    0    0    0    0 -0.00000000000E+00 -0.00000000000E+00 -0.18250000000E+03  0.18250000000E+03  0.00000000000E+00 0. -1.
        -11    1    1    2    0    0  0.62889729734E+01  0.53652598650E+01  0.18044439284E+03  0.18063365163E+03  0.00000000000E+00 0.  1.
         11    1    1    2    0    0 -0.17548013676E+00 -0.24027475572E+01 -0.12380755824E+03  0.12383099558E+03  0.00000000000E+00 0. -1.
        -15    1    1    2    0    0 -0.51534072706E+01 -0.44413798626E+01 -0.45210699883E+01  0.83595014456E+01  0.17770000000E+01 0. -1.
         15    1    1    2    0    0 -0.96008556611E+00  0.14788675548E+01 -0.52115764615E+02  0.52175851349E+02  0.17770000000E+01 0. -1.
</event>
<event>
 6    1  0.8353910E-003  0.1830204E+03  0.7546771E-02  0.1068041E+00
        -11   -1    0    0    0    0  0.00000000000E+00  0.00000000000E+00  0.18250000000E+03  0.18250000000E+03  0.00000000000E+00 0. -1.
         11   -1    0    0    0    0 -0.00000000000E+00 -0.00000000000E+00 -0.18250000000E+03  0.18250000000E+03  0.00000000000E+00 0. -1.
        -11    1    1    2    0    0 -0.44129101546E+01 -0.13825743739E+01  0.18192081798E+03  0.18197958485E+03  0.00000000000E+00 0. -1.
         11    1    1    2    0    0  0.22175787394E+01  0.13292117439E+01 -0.60654924262E+02  0.60710001619E+02  0.00000000000E+00 0. -1.
        -15    1    1    2    0    0 -0.25116269231E+01 -0.25582562496E+01 -0.10515932397E+03  0.10523542222E+03  0.17770000000E+01 0. -1.
         15    1    1    2    0    0  0.47069583383E+01  0.26116188796E+01 -0.16106569751E+02  0.17074991307E+02  0.17770000000E+01 0. -1.
</event>
<event>
 6    1  0.8353910E-003  0.2129699E+03  0.7546771E-02  0.1046495E+00
        -11   -1    0    0    0    0  0.00000000000E+00  0.00000000000E+00  0.18250000000E+03  0.18250000000E+03  0.00000000000E+00 0. -1.
         11   -1    0    0    0    0 -0.00000000000E+00 -0.00000000000E+00 -0.18250000000E+03  0.18250000000E+03  0.00000000000E+00 0.  1.
        -11    1    1    2    0    0  0.11765852638E+00 -0.40237610477E+01  0.13527461487E+03  0.13533449644E+03  0.00000000000E+00 0. -1.
         11    1    1    2    0    0  0.23189867602E+00  0.34371867519E+01 -0.15199111066E+03  0.15203014750E+03  0.00000000000E+00 0.  1.
        -15    1    1    2    0    0 -0.35459303455E+02 -0.13275229694E+02  0.10562114524E+02  0.39348569442E+02  0.17770000000E+01 0.  1.
         15    1    1    2    0    0  0.35109746253E+02  0.13861803990E+02  0.61543812667E+01  0.38286786618E+02  0.17770000000E+01 0. -1.
</event>
<event>
 6    1  0.8353910E-003  0.1828697E+03  0.7546771E-02  0.1068161E+00
        -11   -1    0    0    0    0  0.00000000000E+00  0.00000000000E+00  0.18250000000E+03  0.18250000000E+03  0.00000000000E+00 0. -1.
         11   -1    0    0    0    0 -0.00000000000E+00 -0.00000000000E+00 -0.18250000000E+03  0.18250000000E+03  0.00000000000E+00 0.  1.
        -11    1    1    2    0    0  0.39542158918E+01 -0.35322179276E+01  0.18205309141E+03  0.18213028435E+03  0.00000000000E+00 0. -1.
         11    1    1    2    0    0 -0.24024952476E+00  0.20512300851E+01 -0.13339660266E+03  0.13341258886E+03  0.00000000000E+00 0.  1.
        -15    1    1    2    0    0  0.16077032651E+01 -0.34637874603E+00 -0.23186541430E+02  0.23312617196E+02  0.17770000000E+01 0.  1.
         15    1    1    2    0    0 -0.53216696321E+01  0.18273665885E+01 -0.25469947323E+02  0.26144509595E+02  0.17770000000E+01 0.  1.
</event>
<event>
 6    1  0.8353910E-003  0.1770547E+03  0.7546771E-02  0.1072874E+00
        -11   -1    0    0    0    0  0.00000000000E+00  0.00000000000E+00  0.18250000000E+03  0.18250000000E+03  0.00000000000E+00 0.  1.
         11   -1    0    0    0    0 -0.00000000000E+00 -0.00000000000E+00 -0.18250000000E+03  0.18250000000E+03  0.00000000000E+00 0. -1.
        -11    1    1    2    0    0 -0.63055638647E+01  0.53463994423E+01  0.17625765083E+03  0.17645141994E+03  0.00000000000E+00 0.  1.
         11    1    1    2    0    0  0.27210866481E+01  0.28105273211E+00 -0.17770269496E+03  0.17772374940E+03  0.00000000000E+00 0. -1.
        -15    1    1    2    0    0  0.48166067665E+00 -0.64214957402E+01 -0.46046268031E+00  0.66960704469E+01  0.17770000000E+01 0.  1.
         15    1    1    2    0    0  0.31028165399E+01  0.79404356588E+00  0.19055068096E+01  0.41287602094E+01  0.17770000000E+01 0. -1.
</event>
<event>
 6    1  0.8353910E-003  0.1828249E+03  0.7546771E-02  0.1068197E+00
        -11   -1    0    0    0    0  0.00000000000E+00  0.00000000000E+00  0.18250000000E+03  0.18250000000E+03  0.00000000000E+00 0.  1.
         11   -1    0    0    0    0 -0.00000000000E+00 -0.00000000000E+00 -0.18250000000E+03  0.18250000000E+03  0.00000000000E+00 0. -1.
        -11    1    1    2    0    0 -0.33529483020E+01  0.66809581614E+01  0.18202169944E+03  0.18217512600E+03  0.00000000000E+00 0.  1.
         11    1    1    2    0    0  0.33351520299E+01 -0.14624989974E+01 -0.14255000807E+03  0.14259651799E+03  0.00000000000E+00 0. -1.
        -15    1    1    2    0    0  0.19619584202E+01 -0.36983055785E+01 -0.27662282435E+02  0.28033664469E+02  0.17770000000E+01 0. -1.
         15    1    1    2    0    0 -0.19441621481E+01 -0.15201535856E+01 -0.11809408935E+02  0.12194691541E+02  0.17770000000E+01 0.  1.
</event>
<event>
 6    1  0.8353910E-003  0.1761504E+03  0.7546771E-02  0.1073625E+00
        -11   -1    0    0    0    0  0.00000000000E+00  0.00000000000E+00  0.18250000000E+03  0.18250000000E+03  0.00000000000E+00 0. -1.
         11   -1    0    0    0    0 -0.00000000000E+00 -0.00000000000E+00 -0.18250000000E+03  0.18250000000E+03  0.00000000000E+00 0. -1.
        -11    1    1    2    0    0 -0.91044968435E+00  0.22606986331E+01  0.17537138927E+03  0.17538832302E+03  0.00000000000E+00 0. -1.
         11    1    1    2    0    0 -0.50908671714E+01  0.52745292261E+01 -0.17689553840E+03  0.17704736399E+03  0.00000000000E+00 0. -1.
        -15    1    1    2    0    0  0.60780911973E+01 -0.62709520240E+01  0.35438824892E+01  0.95908739949E+01  0.17770000000E+01 0. -1.
         15    1    1    2    0    0 -0.76774341583E-01 -0.12642758352E+01 -0.20197333528E+01  0.29734390028E+01  0.17770000000E+01 0.  1.
</event>
<event>
 6    1  0.8353910E-003  0.1931757E+03  0.7546771E-02  0.1060261E+00
        -11   -1    0    0    0    0  0.00000000000E+00  0.00000000000E+00  0.18250000000E+03  0.18250000000E+03  0.00000000000E+00 0.  1.
         11   -1    0    0    0    0 -0.00000000000E+00 -0.00000000000E+00 -0.18250000000E+03  0.18250000000E+03  0.00000000000E+00 0.  1.
        -11    1    1    2    0    0  0.54904048119E+00  0.24644162905E+01  0.16301223439E+03  0.16303178633E+03  0.00000000000E+00 0.  1.
         11    1    1    2    0    0  0.36324804285E+01  0.92336810249E+00 -0.17178341347E+03  0.17182429591E+03  0.00000000000E+00 0.  1.
        -15    1    1    2    0    0  0.13368110675E+00 -0.22007887280E+01 -0.10192421760E+02  0.10578493844E+02  0.17770000000E+01 0.  1.
         15    1    1    2    0    0 -0.43152020165E+01 -0.11869956650E+01  0.18963600844E+02  0.19565423919E+02  0.17770000000E+01 0. -1.
</event>
<event>
 6    1  0.8353910E-003  0.1950894E+03  0.7546771E-02  0.1058853E+00
        -11   -1    0    0    0    0  0.00000000000E+00  0.00000000000E+00  0.18250000000E+03  0.18250000000E+03  0.00000000000E+00 0.  1.
         11   -1    0    0    0    0 -0.00000000000E+00 -0.00000000000E+00 -0.18250000000E+03  0.18250000000E+03  0.00000000000E+00 0.  1.
        -11    1    1    2    0    0 -0.23904717627E+02 -0.79738863069E+01  0.16803156827E+03  0.16991064217E+03  0.00000000000E+00 0.  1.
         11    1    1    2    0    0 -0.37267041088E+01 -0.50117968851E+01 -0.14850426467E+03  0.14863553767E+03  0.00000000000E+00 0.  1.
        -15    1    1    2    0    0  0.28547500977E+01 -0.21748554729E+01 -0.16748020998E+02  0.17220148977E+02  0.17770000000E+01 0. -1.
         15    1    1    2    0    0  0.24776671638E+02  0.15160538665E+02 -0.27792826019E+01  0.29233671183E+02  0.17770000000E+01 0.  1.
</event>
<event>
 6    1  0.8353910E-003  0.1826318E+03  0.7546771E-02  0.1068350E+00
        -11   -1    0    0    0    0  0.00000000000E+00  0.00000000000E+00  0.18250000000E+03  0.18250000000E+03  0.00000000000E+00 0. -1.
         11   -1    0    0    0    0 -0.00000000000E+00 -0.00000000000E+00 -0.18250000000E+03  0.18250000000E+03  0.00000000000E+00 0. -1.
        -11    1    1    2    0    0 -0.29905712539E+01  0.24994628800E+01  0.18232654486E+03  0.18236819841E+03  0.00000000000E+00 0. -1.
         11    1    1    2    0    0  0.23357864394E+01  0.89418348637E-01 -0.12939583932E+03  0.12941695070E+03  0.00000000000E+00 0. -1.
        -15    1    1    2    0    0  0.45575254241E-01 -0.55312581236E+00 -0.86734290228E+01  0.88709709323E+01  0.17770000000E+01 0. -1.
         15    1    1    2    0    0  0.60920956023E+00 -0.20357554163E+01 -0.44257276512E+02  0.44343879958E+02  0.17770000000E+01 0. -1.
</event>
<event>
 6    1  0.8353910E-003  0.1841696E+03  0.7546771E-02  0.1067134E+00
        -11   -1    0    0    0    0  0.00000000000E+00  0.00000000000E+00  0.18250000000E+03  0.18250000000E+03  0.00000000000E+00 0. -1.
         11   -1    0    0    0    0 -0.00000000000E+00 -0.00000000000E+00 -0.18250000000E+03  0.18250000000E+03  0.00000000000E+00 0.  1.
        -11    1    1    2    0    0  0.47824561724E+01  0.11222132172E+02  0.13411998241E+03  0.13467359734E+03  0.00000000000E+00 0. -1.
         11    1    1    2    0    0 -0.13873500798E+01  0.23889332515E+01 -0.18080930940E+03  0.18083041256E+03  0.00000000000E+00 0.  1.
        -15    1    1    2    0    0  0.64113187658E+00 -0.95710034764E+01  0.21555606103E+02  0.23660453104E+02  0.17770000000E+01 0.  1.
         15    1    1    2    0    0 -0.40362379692E+01 -0.40400619473E+01  0.25133720885E+02  0.25835536998E+02  0.17770000000E+01 0. -1.
</event>
<event>
 6    1  0.8353910E-003  0.1926019E+03  0.7546771E-02  0.1060686E+00
        -11   -1    0    0    0    0  0.00000000000E+00  0.00000000000E+00  0.18250000000E+03  0.18250000000E+03  0.00000000000E+00 0. -1.
         11   -1    0    0    0    0 -0.00000000000E+00 -0.00000000000E+00 -0.18250000000E+03  0.18250000000E+03  0.00000000000E+00 0.  1.
        -11    1    1    2    0    0  0.46147008898E+01 -0.83824347410E+01  0.17213231909E+03  0.17239807410E+03  0.00000000000E+00 0. -1.
         11    1    1    2    0    0  0.19402074865E+01 -0.66901934810E+00 -0.11600490924E+03  0.11602306219E+03  0.00000000000E+00 0.  1.
        -15    1    1    2    0    0 -0.10380555421E+02  0.19473439184E+02 -0.60570409688E+02  0.64489557475E+02  0.17770000000E+01 0.  1.
         15    1    1    2    0    0  0.38256470450E+01 -0.10421985095E+02  0.44429998371E+01  0.12089306232E+02  0.17770000000E+01 0. -1.
</event>
<event>
 6    1  0.8353910E-003  0.1873038E+03  0.7546771E-02  0.1064694E+00
        -11   -1    0    0    0    0  0.00000000000E+00  0.00000000000E+00  0.18250000000E+03  0.18250000000E+03  0.00000000000E+00 0. -1.
         11   -1    0    0    0    0 -0.00000000000E+00 -0.00000000000E+00 -0.18250000000E+03  0.18250000000E+03  0.00000000000E+00 0.  1.
        -11    1    1    2    0    0 -0.43940992216E+01 -0.81529945977E+01  0.17745463479E+03  0.17769616438E+03  0.00000000000E+00 0. -1.
         11    1    1    2    0    0 -0.67702929016E+01 -0.46724418386E+00 -0.13017883279E+03  0.13035560475E+03  0.00000000000E+00 0.  1.
        -15    1    1    2    0    0  0.13905327700E+02  0.76348091628E+01 -0.50060657014E+02  0.52544034476E+02  0.17770000000E+01 0.  1.
         15    1    1    2    0    0 -0.27409355771E+01  0.98542961878E+00  0.27848550163E+01  0.44041963890E+01  0.17770000000E+01 0. -1.
</event>
<event>
 6    1  0.8353910E-003  0.1898135E+03  0.7546771E-02  0.1062778E+00
        -11   -1    0    0    0    0  0.00000000000E+00  0.00000000000E+00  0.18250000000E+03  0.18250000000E+03  0.00000000000E+00 0. -1.
         11   -1    0    0    0    0 -0.00000000000E+00 -0.00000000000E+00 -0.18250000000E+03  0.18250000000E+03  0.00000000000E+00 0. -1.
        -11    1    1    2    0    0 -0.16467290350E+01  0.17070694674E+01  0.17517040286E+03  0.17518646021E+03  0.00000000000E+00 0. -1.
         11    1    1    2    0    0 -0.11875551043E+02 -0.16580272307E+01 -0.16532301625E+03  0.16575728481E+03  0.00000000000E+00 0. -1.
        -15    1    1    2    0    0  0.84836504199E+01  0.58671329983E+01 -0.11876450461E+02  0.15830457309E+02  0.17770000000E+01 0. -1.
         15    1    1    2    0    0  0.50386296579E+01 -0.59161752349E+01  0.20290638491E+01  0.82257976722E+01  0.17770000000E+01 0. -1.
</event>
<event>
 6    1  0.8353910E-003  0.1908899E+03  0.7546771E-02  0.1061966E+00
        -11   -1    0    0    0    0  0.00000000000E+00  0.00000000000E+00  0.18250000000E+03  0.18250000000E+03  0.00000000000E+00 0. -1.
         11   -1    0    0    0    0 -0.00000000000E+00 -0.00000000000E+00 -0.18250000000E+03  0.18250000000E+03  0.00000000000E+00 0.  1.
        -11    1    1    2    0    0  0.63879385517E+01  0.74499543273E+00  0.17399127436E+03  0.17411009256E+03  0.00000000000E+00 0. -1.
         11    1    1    2    0    0  0.30416723130E+01 -0.57724667597E+01 -0.16460654736E+03  0.16473581449E+03  0.00000000000E+00 0.  1.
        -15    1    1    2    0    0 -0.92253806903E+01  0.33155599215E+01 -0.16135587007E+02  0.18963530355E+02  0.17770000000E+01 0. -1.
         15    1    1    2    0    0 -0.20423017440E+00  0.17119114055E+01  0.67508600069E+01  0.71905625967E+01  0.17770000000E+01 0.  1.
</event>
<event>
 6    1  0.8353910E-003  0.1828498E+03  0.7546771E-02  0.1068177E+00
        -11   -1    0    0    0    0  0.00000000000E+00  0.00000000000E+00  0.18250000000E+03  0.18250000000E+03  0.00000000000E+00 0. -1.
         11   -1    0    0    0    0 -0.00000000000E+00 -0.00000000000E+00 -0.18250000000E+03  0.18250000000E+03  0.00000000000E+00 0.  1.
        -11    1    1    2    0    0  0.65365208170E+01 -0.80709382010E+01  0.18185385147E+03  0.18215018376E+03  0.00000000000E+00 0. -1.
         11    1    1    2    0    0  0.13185451042E+01  0.16248192839E+00 -0.83705369497E+02  0.83715911535E+02  0.00000000000E+00 0.  1.
        -15    1    1    2    0    0 -0.39889547793E+01  0.46906886179E+01 -0.78900136663E+02  0.79159987458E+02  0.17770000000E+01 0.  1.
         15    1    1    2    0    0 -0.38661111419E+01  0.32177676547E+01 -0.19248345312E+02  0.19973917249E+02  0.17770000000E+01 0. -1.
</event>
<event>
 6    1  0.8353910E-003  0.1749768E+03  0.7546771E-02  0.1074606E+00
        -11   -1    0    0    0    0  0.00000000000E+00  0.00000000000E+00  0.18250000000E+03  0.18250000000E+03  0.00000000000E+00 0. -1.
         11   -1    0    0    0    0 -0.00000000000E+00 -0.00000000000E+00 -0.18250000000E+03  0.18250000000E+03  0.00000000000E+00 0. -1.
        -11    1    1    2    0    0 -0.50743525505E+01 -0.35343237455E+01  0.17607124738E+03  0.17617980773E+03  0.00000000000E+00 0. -1.
         11    1    1    2    0    0  0.33524296403E+01 -0.12588045706E+01 -0.17378135796E+03  0.17381824918E+03  0.00000000000E+00 0. -1.
        -15    1    1    2    0    0  0.37637621630E+00  0.36400381389E+01  0.54867834386E+01  0.68303776038E+01  0.17770000000E+01 0.  1.
         15    1    1    2    0    0  0.13455466938E+01  0.11530901772E+01 -0.77766728553E+01  0.81715654902E+01  0.17770000000E+01 0. -1.
</event>
<event>
 6    1  0.8353910E-003  0.1848654E+03  0.7546771E-02  0.1066587E+00
        -11   -1    0    0    0    0  0.00000000000E+00  0.00000000000E+00  0.18250000000E+03  0.18250000000E+03  0.00000000000E+00 0. -1.
         11   -1    0    0    0    0 -0.00000000000E+00 -0.00000000000E+00 -0.18250000000E+03  0.18250000000E+03  0.00000000000E+00 0.  1.
        -11    1    1    2    0    0  0.16803972969E+01 -0.21002603285E+00  0.11065463048E+03  0.11066758826E+03  0.00000000000E+00 0. -1.
         11    1    1    2    0    0 -0.41052393149E+01  0.71888231655E+01 -0.17994425444E+03  0.18013457989E+03  0.00000000000E+00 0.  1.
        -15    1    1    2    0    0  0.45439760490E+01 -0.69212907584E+01  0.49702791869E+01  0.98190319427E+01  0.17770000000E+01 0. -1.
         15    1    1    2    0    0 -0.21191340310E+01 -0.57506374215E-01  0.64319344771E+02  0.64378799902E+02  0.17770000000E+01 0. -1.
</event>
<event>
 6    1  0.8353910E-003  0.1828058E+03  0.7546771E-02  0.1068212E+00
        -11   -1    0    0    0    0  0.00000000000E+00  0.00000000000E+00  0.18250000000E+03  0.18250000000E+03  0.00000000000E+00 0.  1.
         11   -1    0    0    0    0 -0.00000000000E+00 -0.00000000000E+00 -0.18250000000E+03  0.18250000000E+03  0.00000000000E+00 0. -1.
        -11    1    1    2    0    0 -0.10915589061E+01 -0.27495491324E+01  0.18217016713E+03  0.18219418573E+03  0.00000000000E+00 0.  1.
         11    1    1    2    0    0 -0.47988892051E+00  0.26564684182E+01 -0.87524492286E+02  0.87566111412E+02  0.00000000000E+00 0. -1.
        -15    1    1    2    0    0  0.22379500041E+01  0.24315874638E+01 -0.86048315900E+02  0.86130084385E+02  0.17770000000E+01 0. -1.
         15    1    1    2    0    0 -0.66650217749E+00 -0.23385067495E+01 -0.85973589431E+01  0.91096184754E+01  0.17770000000E+01 0. -1.
</event>
<event>
 6    1  0.8353910E-003  0.1882939E+03  0.7546771E-02  0.1063934E+00
        -11   -1    0    0    0    0  0.00000000000E+00  0.00000000000E+00  0.18250000000E+03  0.18250000000E+03  0.00000000000E+00 0.  1.
         11   -1    0    0    0    0 -0.00000000000E+00 -0.00000000000E+00 -0.18250000000E+03  0.18250000000E+03  0.00000000000E+00 0. -1.
        -11    1    1    2    0    0  0.55526152748E+00 -0.28299292606E+01  0.17668261000E+03  0.17670614447E+03  0.00000000000E+00 0.  1.
         11    1    1    2    0    0 -0.66530615744E+01 -0.19268393073E+02 -0.10958504172E+03  0.11146486249E+03  0.00000000000E+00 0. -1.
        -15    1    1    2    0    0  0.86733039415E+01  0.27935197609E+02 -0.44511250945E+02  0.53291750360E+02  0.17770000000E+01 0. -1.
         15    1    1    2    0    0 -0.25755038946E+01 -0.58368752759E+01 -0.22586317336E+02  0.23537242682E+02  0.17770000000E+01 0.  1.
</event>
<event>
 6    1  0.8353910E-003  0.1859504E+03  0.7546771E-02  0.1065741E+00
        -11   -1    0    0    0    0  0.00000000000E+00  0.00000000000E+00  0.18250000000E+03  0.18250000000E+03  0.00000000000E+00 0.  1.
         11   -1    0    0    0    0 -0.00000000000E+00 -0.00000000000E+00 -0.18250000000E+03  0.18250000000E+03  0.00000000000E+00 0. -1.
        -11    1    1    2    0    0  0.15374685488E+01  0.22613948599E+01  0.17902871791E+03  0.17904960082E+03  0.00000000000E+00 0.  1.
         11    1    1    2    0    0 -0.45920534596E+01 -0.23663048850E+00 -0.16843894960E+03  0.16850169937E+03  0.00000000000E+00 0. -1.
        -15    1    1    2    0    0  0.24771193043E+01 -0.80478510315E+00 -0.13453593517E+02  0.13818129636E+02  0.17770000000E+01 0. -1.
         15    1    1    2    0    0  0.57746560653E+00 -0.12199792682E+01  0.28638252049E+01  0.36305701682E+01  0.17770000000E+01 0. -1.
</event>
<event>
 6    1  0.8353910E-003  0.1844308E+03  0.7546771E-02  0.1066928E+00
        -11   -1    0    0    0    0  0.00000000000E+00  0.00000000000E+00  0.18250000000E+03  0.18250000000E+03  0.00000000000E+00 0.  1.
         11   -1    0    0    0    0 -0.00000000000E+00 -0.00000000000E+00 -0.18250000000E+03  0.18250000000E+03  0.00000000000E+00 0.  1.
        -11    1    1    2    0    0  0.30712855244E+01  0.77808774023E+00  0.16383908315E+03  0.16386971466E+03  0.00000000000E+00 0.  1.
         11    1    1    2    0    0  0.28534768769E+01  0.96282290358E-01 -0.18054657886E+03  0.18056915224E+03  0.00000000000E+00 0.  1.
        -15    1    1    2    0    0  0.27257081492E+00  0.24909083834E+01  0.10687617072E+02  0.11120333048E+02  0.17770000000E+01 0.  1.
         15    1    1    2    0    0 -0.61973332162E+01 -0.33652784140E+01  0.60198786473E+01  0.94408000575E+01  0.17770000000E+01 0. -1.
</event>
<event>
 6    1  0.8353910E-003  0.1882023E+03  0.7546771E-02  0.1064004E+00
        -11   -1    0    0    0    0  0.00000000000E+00  0.00000000000E+00  0.18250000000E+03  0.18250000000E+03  0.00000000000E+00 0. -1.
         11   -1    0    0    0    0 -0.00000000000E+00 -0.00000000000E+00 -0.18250000000E+03  0.18250000000E+03  0.00000000000E+00 0. -1.
        -11    1    1    2    0    0  0.21899140454E+02 -0.14881295143E+02  0.17480392656E+03  0.17679773200E+03  0.00000000000E+00 0. -1.
         11    1    1    2    0    0 -0.31401397048E+01  0.64361115419E+00 -0.13564930023E+03  0.13568716729E+03  0.00000000000E+00 0. -1.
        -15    1    1    2    0    0 -0.22899816619E+02  0.15324561287E+02 -0.23725269771E+02  0.36404531786E+02  0.17770000000E+01 0.  1.
         15    1    1    2    0    0  0.41408158698E+01 -0.10868772984E+01 -0.15429356559E+02  0.16110568927E+02  0.17770000000E+01 0. -1.
</event>
<event>
 6    1  0.8353910E-003  0.1827125E+03  0.7546771E-02  0.1068286E+00
        -11   -1    0    0    0    0  0.00000000000E+00  0.00000000000E+00  0.18250000000E+03  0.18250000000E+03  0.00000000000E+00 0. -1.
         11   -1    0    0    0    0 -0.00000000000E+00 -0.00000000000E+00 -0.18250000000E+03  0.18250000000E+03  0.00000000000E+00 0.  1.
        -11    1    1    2    0    0  0.99535253914E+00  0.28712047739E+01  0.18226221608E+03  0.18228754745E+03  0.00000000000E+00 0. -1.
         11    1    1    2    0    0 -0.24959479580E+01  0.11985422069E+01 -0.13245360683E+03  0.13248254309E+03  0.00000000000E+00 0.  1.
        -15    1    1    2    0    0 -0.68874025933E+00 -0.28199057625E+01 -0.25228697307E+02  0.25457241180E+02  0.17770000000E+01 0.  1.
         15    1    1    2    0    0  0.21893356782E+01 -0.12498412182E+01 -0.24579911942E+02  0.24772668283E+02  0.17770000000E+01 0.  1.
</event>
<event>
 6    1  0.1415547E-002  0.1827003E+03  0.7546771E-02  0.1068295E+00
        -11   -1    0    0    0    0  0.00000000000E+00  0.00000000000E+00  0.18250000000E+03  0.18250000000E+03  0.00000000000E+00 0. -1.
         11   -1    0    0    0    0 -0.00000000000E+00 -0.00000000000E+00 -0.18250000000E+03  0.18250000000E+03  0.00000000000E+00 0. -1.
        -11    1    1    2    0    0 -0.15955247896E+01  0.47960428243E+01  0.18222960445E+03  0.18229968860E+03  0.00000000000E+00 0. -1.
         11    1    1    2    0    0 -0.61745801592E+00  0.59222546285E-01 -0.45733727898E+02  0.45737934247E+02  0.00000000000E+00 0. -1.
        -15    1    1    2    0    0 -0.96242568783E+00  0.32185601563E+00 -0.91587267716E+02  0.91610126030E+02  0.17770000000E+01 0. -1.
         15    1    1    2    0    0  0.31754084933E+01 -0.51771213862E+01 -0.44908608838E+02  0.45352251121E+02  0.17770000000E+01 0. -1.
</event>
<event>
 6    1  0.8353910E-003  0.1827881E+03  0.7546771E-02  0.1068226E+00
        -11   -1    0    0    0    0  0.00000000000E+00  0.00000000000E+00  0.18250000000E+03  0.18250000000E+03  0.00000000000E+00 0.  1.
         11   -1    0    0    0    0 -0.00000000000E+00 -0.00000000000E+00 -0.18250000000E+03  0.18250000000E+03  0.00000000000E+00 0. -1.
        -11    1    1    2    0    0  0.43295784831E+00 -0.28017569481E+01  0.11665225137E+03  0.11668669609E+03  0.00000000000E+00 0.  1.
         11    1    1    2    0    0  0.60294984123E+01 -0.59648843551E+00 -0.18211109597E+03  0.18221186000E+03  0.00000000000E+00 0. -1.
        -15    1    1    2    0    0 -0.36004333937E+01  0.38176179444E+01  0.47732087046E+02  0.48052546136E+02  0.17770000000E+01 0.  1.
         15    1    1    2    0    0 -0.28620228668E+01 -0.41937256079E+00  0.17726757561E+02  0.18048897774E+02  0.17770000000E+01 0. -1.
</event>
<event>
 6    1  0.8353910E-003  0.1852211E+03  0.7546771E-02  0.1066309E+00
        -11   -1    0    0    0    0  0.00000000000E+00  0.00000000000E+00  0.18250000000E+03  0.18250000000E+03  0.00000000000E+00 0. -1.
         11   -1    0    0    0    0 -0.00000000000E+00 -0.00000000000E+00 -0.18250000000E+03  0.18250000000E+03  0.00000000000E+00 0.  1.
        -11    1    1    2    0    0 -0.70466956510E+01 -0.87175009431E+01  0.17942914398E+03  0.17977894329E+03  0.00000000000E+00 0. -1.
         11    1    1    2    0    0 -0.44224143113E-01 -0.40527521700E+01 -0.14355495248E+03  0.14361215526E+03  0.00000000000E+00 0.  1.
        -15    1    1    2    0    0 -0.60356380204E+00  0.18497516626E+01  0.61900435438E+00  0.27067999311E+01  0.17770000000E+01 0. -1.
         15    1    1    2    0    0  0.76944835961E+01  0.10920501451E+02 -0.36493195851E+02  0.38902101513E+02  0.17770000000E+01 0.  1.
</event>
<event>
 6    1  0.9644842E-003  0.1833725E+03  0.7546771E-02  0.1067762E+00
        -11   -1    0    0    0    0  0.00000000000E+00  0.00000000000E+00  0.18250000000E+03  0.18250000000E+03  0.00000000000E+00 0. -1.
         11   -1    0    0    0    0 -0.00000000000E+00 -0.00000000000E+00 -0.18250000000E+03  0.18250000000E+03  0.00000000000E+00 0.  1.
        -11    1    1    2    0    0  0.40039260321E+01  0.23172746602E+01  0.18156859127E+03  0.18162751587E+03  0.00000000000E+00 0. -1.
         11    1    1    2    0    0  0.81461217255E+00 -0.67121294933E+01 -0.12419870323E+03  0.12438261197E+03  0.00000000000E+00 0.  1.
        -15    1    1    2    0    0 -0.34922152817E+01 -0.19929811605E+01 -0.77383964627E+01  0.88998904653E+01  0.17770000000E+01 0.  1.
         15    1    1    2    0    0 -0.13263229229E+01  0.63878359936E+01 -0.49631491576E+02  0.50089981695E+02  0.17770000000E+01 0. -1.
</event>
<event>
 6    1  0.8353910E-003  0.1863305E+03  0.7546771E-02  0.1065446E+00
        -11   -1    0    0    0    0  0.00000000000E+00  0.00000000000E+00  0.18250000000E+03  0.18250000000E+03  0.00000000000E+00 0.  1.
         11   -1    0    0    0    0 -0.00000000000E+00 -0.00000000000E+00 -0.18250000000E+03  0.18250000000E+03  0.00000000000E+00 0. -1.
        -11    1    1    2    0    0 -0.19770892352E+01 -0.28705863175E+01  0.16116438365E+03  0.16120207103E+03  0.00000000000E+00 0.  1.
         11    1    1    2    0    0 -0.41850697994E+01  0.14560677013E+01 -0.17861457792E+03  0.17866953402E+03  0.00000000000E+00 0. -1.
        -15    1    1    2    0    0  0.76463590124E+01  0.75023600244E+01  0.73574119731E+01  0.13116457297E+02  0.17770000000E+01 0.  1.
         15    1    1    2    0    0 -0.14841999778E+01 -0.60878414083E+01  0.10092782302E+02  0.12011937653E+02  0.17770000000E+01 0. -1.
</event>
<event>
 6    1  0.8353910E-003  0.1858235E+03  0.7546771E-02  0.1065840E+00
        -11   -1    0    0    0    0  0.00000000000E+00  0.00000000000E+00  0.18250000000E+03  0.18250000000E+03  0.00000000000E+00 0. -1.
         11   -1    0    0    0    0 -0.00000000000E+00 -0.00000000000E+00 -0.18250000000E+03  0.18250000000E+03  0.00000000000E+00 0. -1.
        -11    1    1    2    0    0 -0.10034354165E+01  0.25860186224E+01  0.17915503207E+03  0.17917650485E+03  0.00000000000E+00 0. -1.
         11    1    1    2    0    0 -0.16762942314E+01  0.41436944797E+01 -0.17460740433E+03  0.17466460951E+03  0.00000000000E+00 0. -1.
        -15    1    1    2    0    0  0.25934852855E+01 -0.59844281352E+00 -0.34056538726E+01  0.46733828248E+01  0.17770000000E+01 0. -1.
         15    1    1    2    0    0  0.86244362383E-01 -0.61312702886E+01 -0.11419738670E+01  0.64855028143E+01  0.17770000000E+01 0.  1.
</event>
<event>
 6    1  0.8353910E-003  0.1831447E+03  0.7546771E-02  0.1067943E+00
        -11   -1    0    0    0    0  0.00000000000E+00  0.00000000000E+00  0.18250000000E+03  0.18250000000E+03  0.00000000000E+00 0.  1.
         11   -1    0    0    0    0 -0.00000000000E+00 -0.00000000000E+00 -0.18250000000E+03  0.18250000000E+03  0.00000000000E+00 0. -1.
        -11    1    1    2    0    0 -0.13675854276E+01  0.25739663930E+01  0.18183196035E+03  0.18185531996E+03  0.00000000000E+00 0.  1.
         11    1    1    2    0    0 -0.10828408726E+01  0.17228830713E+01 -0.72291739037E+02  0.72320373363E+02  0.00000000000E+00 0. -1.
        -15    1    1    2    0    0  0.30074003465E+01 -0.83367552078E+01 -0.34896691758E+02  0.36048339337E+02  0.17770000000E+01 0. -1.
         15    1    1    2    0    0 -0.55697404625E+00  0.40399057435E+01 -0.74643529554E+02  0.74775967341E+02  0.17770000000E+01 0. -1.
</event>
<event>
 6    1  0.8353910E-003  0.1854405E+03  0.7546771E-02  0.1066138E+00
        -11   -1    0    0    0    0  0.00000000000E+00  0.00000000000E+00  0.18250000000E+03  0.18250000000E+03  0.00000000000E+00 0.  1.
         11   -1    0    0    0    0 -0.00000000000E+00 -0.00000000000E+00 -0.18250000000E+03  0.18250000000E+03  0.00000000000E+00 0. -1.
        -11    1    1    2    0    0  0.44728817008E+00 -0.22484138718E+01  0.15714046590E+03  0.15715718710E+03  0.00000000000E+00 0.  1.
         11    1    1    2    0    0  0.18134265952E+00  0.35520765923E+01 -0.17952428781E+03  0.17955951673E+03  0.00000000000E+00 0. -1.
        -15    1    1    2    0    0 -0.60628504669E+01  0.23693657643E+01  0.23772288379E+01  0.71540894499E+01  0.17770000000E+01 0.  1.
         15    1    1    2    0    0  0.54342196373E+01 -0.36730284847E+01  0.20006593073E+02  0.21129206722E+02  0.17770000000E+01 0. -1.
</event>
<event>
 6    1  0.8353910E-003  0.1843739E+03  0.7546771E-02  0.1066973E+00
        -11   -1    0    0    0    0  0.00000000000E+00  0.00000000000E+00  0.18250000000E+03  0.18250000000E+03  0.00000000000E+00 0. -1.
         11   -1    0    0    0    0 -0.00000000000E+00 -0.00000000000E+00 -0.18250000000E+03  0.18250000000E+03  0.00000000000E+00 0.  1.
        -11    1    1    2    0    0 -0.31075522002E+01 -0.28760113876E+01  0.18057650928E+03  0.18062614436E+03  0.00000000000E+00 0. -1.
         11    1    1    2    0    0  0.28702417130E+01  0.12650801921E+00 -0.16407974535E+03  0.16410489672E+03  0.00000000000E+00 0.  1.
        -15    1    1    2    0    0  0.14753868865E+01  0.19137626254E+01  0.56308271826E+00  0.30518920359E+01  0.17770000000E+01 0.  1.
         15    1    1    2    0    0 -0.12380763994E+01  0.83574074293E+00 -0.17059846644E+02  0.17217066890E+02  0.17770000000E+01 0. -1.
</event>
<event>
 6    1  0.8353910E-003  0.1977417E+03  0.7546771E-02  0.1056931E+00
        -11   -1    0    0    0    0  0.00000000000E+00  0.00000000000E+00  0.18250000000E+03  0.18250000000E+03  0.00000000000E+00 0. -1.
         11   -1    0    0    0    0 -0.00000000000E+00 -0.00000000000E+00 -0.18250000000E+03  0.18250000000E+03  0.00000000000E+00 0.  1.
        -11    1    1    2    0    0 -0.18273703004E+01  0.16028411822E+00  0.80415685199E+02  0.80436604847E+02  0.00000000000E+00 0. -1.
         11    1    1    2    0    0  0.92524132492E+00  0.32134733360E+01 -0.16722486033E+03  0.16725829245E+03  0.00000000000E+00 0.  1.
        -15    1    1    2    0    0  0.36926087662E+01 -0.15498128970E+01  0.10177529817E+03  0.10186955544E+03  0.17770000000E+01 0. -1.
         15    1    1    2    0    0 -0.27904797907E+01 -0.18239445573E+01 -0.14966123043E+02  0.15435547258E+02  0.17770000000E+01 0.  1.
</event>
<event>
 6    1  0.8353910E-003  0.1913851E+03  0.7546771E-02  0.1061594E+00
        -11   -1    0    0    0    0  0.00000000000E+00  0.00000000000E+00  0.18250000000E+03  0.18250000000E+03  0.00000000000E+00 0. -1.
         11   -1    0    0    0    0 -0.00000000000E+00 -0.00000000000E+00 -0.18250000000E+03  0.18250000000E+03  0.00000000000E+00 0.  1.
        -11    1    1    2    0    0  0.89157825519E+01 -0.50758188212E+01  0.15800386277E+03  0.15833659010E+03  0.00000000000E+00 0. -1.
         11    1    1    2    0    0 -0.11028063696E+02 -0.45448185203E+01 -0.17320471311E+03  0.17361493659E+03  0.00000000000E+00 0.  1.
        -15    1    1    2    0    0 -0.59571468888E+01  0.18530757610E+01  0.19781345292E+02  0.20817801022E+02  0.17770000000E+01 0. -1.
         15    1    1    2    0    0  0.80694280329E+01  0.77675615805E+01 -0.45804949507E+01  0.12230672291E+02  0.17770000000E+01 0. -1.
</event>
<event>
 6    1  0.8353910E-003  0.1831097E+03  0.7546771E-02  0.1067971E+00
        -11   -1    0    0    0    0  0.00000000000E+00  0.00000000000E+00  0.18250000000E+03  0.18250000000E+03  0.00000000000E+00 0.  1.
         11   -1    0    0    0    0 -0.00000000000E+00 -0.00000000000E+00 -0.18250000000E+03  0.18250000000E+03  0.00000000000E+00 0.  1.
        -11    1    1    2    0    0 -0.40805656885E+01  0.22656025433E+01  0.18183039860E+03  0.18189029063E+03  0.00000000000E+00 0.  1.
         11    1    1    2    0    0 -0.20282844779E+01 -0.31801356071E+01 -0.60352766145E+02  0.60470518286E+02  0.00000000000E+00 0.  1.
        -15    1    1    2    0    0  0.35056093107E+01 -0.39754531613E+01 -0.15083563029E+02  0.16086178139E+02  0.17770000000E+01 0. -1.
         15    1    1    2    0    0  0.26032408557E+01  0.48899862252E+01 -0.10639406943E+03  0.10655301294E+03  0.17770000000E+01 0.  1.
</event>
<event>
 6    1  0.8353910E-003  0.1845670E+03  0.7546771E-02  0.1066821E+00
        -11   -1    0    0    0    0  0.00000000000E+00  0.00000000000E+00  0.18250000000E+03  0.18250000000E+03  0.00000000000E+00 0.  1.
         11   -1    0    0    0    0 -0.00000000000E+00 -0.00000000000E+00 -0.18250000000E+03  0.18250000000E+03  0.00000000000E+00 0.  1.
        -11    1    1    2    0    0 -0.16347671188E+01  0.48083651891E+01  0.16502898524E+03  0.16510711314E+03  0.00000000000E+00 0.  1.
         11    1    1    2    0    0 -0.33462013289E+01 -0.44614516270E+01 -0.18034683112E+03  0.18043303774E+03  0.00000000000E+00 0.  1.
        -15    1    1    2    0    0  0.23186831084E+01 -0.10566180263E+01  0.15838408044E+02  0.16140186845E+02  0.17770000000E+01 0. -1.
         15    1    1    2    0    0  0.26622853393E+01  0.70970446418E+00 -0.52056217240E+00  0.33196622764E+01  0.17770000000E+01 0.  1.
</event>
<event>
 6    1  0.8353910E-003  0.1837355E+03  0.7546771E-02  0.1067476E+00
        -11   -1    0    0    0    0  0.00000000000E+00  0.00000000000E+00  0.18250000000E+03  0.18250000000E+03  0.00000000000E+00 0. -1.
         11   -1    0    0    0    0 -0.00000000000E+00 -0.00000000000E+00 -0.18250000000E+03  0.18250000000E+03  0.00000000000E+00 0. -1.
        -11    1    1    2    0    0 -0.31443713734E+01 -0.16660170151E+01  0.42253932408E+02  0.42403507968E+02  0.00000000000E+00 0. -1.
         11    1    1    2    0    0  0.11084866468E+01  0.84949398091E+01 -0.18106192986E+03  0.18126448959E+03  0.00000000000E+00 0. -1.
        -15    1    1    2    0    0  0.18649206401E+01 -0.15031861805E+02  0.54085609743E+02  0.56194712462E+02  0.17770000000E+01 0. -1.
         15    1    1    2    0    0  0.17096408655E+00  0.82029390114E+01  0.84722387704E+02  0.85137289976E+02  0.17770000000E+01 0.  1.
</event>
<event>
 6    1  0.8353910E-003  0.1891779E+03  0.7546771E-02  0.1063260E+00
        -11   -1    0    0    0    0  0.00000000000E+00  0.00000000000E+00  0.18250000000E+03  0.18250000000E+03  0.00000000000E+00 0.  1.
         11   -1    0    0    0    0 -0.00000000000E+00 -0.00000000000E+00 -0.18250000000E+03  0.18250000000E+03  0.00000000000E+00 0. -1.
        -11    1    1    2    0    0  0.75442148763E+00  0.38800428840E+01  0.17577768751E+03  0.17582212407E+03  0.00000000000E+00 0.  1.
         11    1    1    2    0    0 -0.30391156120E+01  0.27747951209E+01 -0.16953764665E+03  0.16958758605E+03  0.00000000000E+00 0. -1.
        -15    1    1    2    0    0  0.50774964645E+01 -0.53598567314E+01 -0.11173462934E+02  0.13509738616E+02  0.17770000000E+01 0. -1.
         15    1    1    2    0    0 -0.27928023401E+01 -0.12949812734E+01  0.49334220679E+01  0.60805512669E+01  0.17770000000E+01 0. -1.
</event>
<event>
 6    1  0.8353910E-003  0.1826116E+03  0.7546771E-02  0.1068366E+00
        -11   -1    0    0    0    0  0.00000000000E+00  0.00000000000E+00  0.18250000000E+03  0.18250000000E+03  0.00000000000E+00 0. -1.
         11   -1    0    0    0    0 -0.00000000000E+00 -0.00000000000E+00 -0.18250000000E+03  0.18250000000E+03  0.00000000000E+00 0. -1.
        -11    1    1    2    0    0  0.29091584539E+01 -0.17956176535E+01  0.18235633055E+03  0.18238837336E+03  0.00000000000E+00 0. -1.
         11    1    1    2    0    0 -0.19115672657E+01  0.86214530561E+00 -0.76615660563E+02  0.76644352874E+02  0.00000000000E+00 0. -1.
        -15    1    1    2    0    0  0.18251685796E+01  0.41154844020E+00 -0.74506874479E+02  0.74551543821E+02  0.17770000000E+01 0. -1.
         15    1    1    2    0    0 -0.28227597678E+01  0.52192390764E+00 -0.31233795506E+02  0.31415729945E+02  0.17770000000E+01 0.  1.
</event>
<event>
 6    1  0.8353910E-003  0.1883410E+03  0.7546771E-02  0.1063898E+00
        -11   -1    0    0    0    0  0.00000000000E+00  0.00000000000E+00  0.18250000000E+03  0.18250000000E+03  0.00000000000E+00 0. -1.
         11   -1    0    0    0    0 -0.00000000000E+00 -0.00000000000E+00 -0.18250000000E+03  0.18250000000E+03  0.00000000000E+00 0.  1.
        -11    1    1    2    0    0 -0.33158176491E+01  0.12630759972E+02  0.17617568829E+03  0.17665900455E+03  0.00000000000E+00 0. -1.
         11    1    1    2    0    0 -0.97499127229E+00  0.26170095872E+01 -0.15491432936E+03  0.15493950041E+03  0.00000000000E+00 0.  1.
        -15    1    1    2    0    0  0.43477325473E+01 -0.11061245913E+02 -0.37221782092E+00  0.12022903749E+02  0.17770000000E+01 0.  1.
         15    1    1    2    0    0 -0.56923625944E-01 -0.41865236457E+01 -0.20889141104E+02  0.21378591291E+02  0.17770000000E+01 0.  1.
</event>
<event>
 6    1  0.8353910E-003  0.1629151E+03  0.7546771E-02  0.1085210E+00
        -11   -1    0    0    0    0  0.00000000000E+00  0.00000000000E+00  0.18250000000E+03  0.18250000000E+03  0.00000000000E+00 0.  1.
         11   -1    0    0    0    0 -0.00000000000E+00 -0.00000000000E+00 -0.18250000000E+03  0.18250000000E+03  0.00000000000E+00 0.  1.
        -11    1    1    2    0    0 -0.16356779124E+02  0.38962770011E+01  0.16945851757E+03  0.17029067613E+03  0.00000000000E+00 0.  1.
         11    1    1    2    0    0 -0.54846439832E+01  0.24130685585E+00 -0.15645933277E+03  0.15655562066E+03  0.00000000000E+00 0.  1.
        -15    1    1    2    0    0 -0.92441816859E+00  0.21911856339E+01 -0.14122547458E+02  0.14431213363E+02  0.17770000000E+01 0.  1.
         15    1    1    2    0    0  0.22765841276E+02 -0.63287694909E+01  0.11233626552E+01  0.23722489855E+02  0.17770000000E+01 0. -1.
</event>
<event>
 6    1  0.8353910E-003  0.1768913E+03  0.7546771E-02  0.1073009E+00
        -11   -1    0    0    0    0  0.00000000000E+00  0.00000000000E+00  0.18250000000E+03  0.18250000000E+03  0.00000000000E+00 0.  1.
         11   -1    0    0    0    0 -0.00000000000E+00 -0.00000000000E+00 -0.18250000000E+03  0.18250000000E+03  0.00000000000E+00 0.  1.
        -11    1    1    2    0    0 -0.18385405926E+01 -0.58693357601E+01  0.17658385060E+03  0.17669093250E+03  0.00000000000E+00 0.  1.
         11    1    1    2    0    0 -0.11489457255E+01  0.26442040456E+01 -0.17709596734E+03  0.17711943298E+03  0.00000000000E+00 0.  1.
        -15    1    1    2    0    0  0.33825098826E+01  0.16513714798E+01  0.47502944595E+01  0.63159660640E+01  0.17770000000E+01 0.  1.
         15    1    1    2    0    0 -0.39502356453E+00  0.15737602348E+01 -0.42381777212E+01  0.48736684632E+01  0.17770000000E+01 0. -1.
</event>
<event>
 6    1  0.8353910E-003  0.1849423E+03  0.7546771E-02  0.1066527E+00
        -11   -1    0    0    0    0  0.00000000000E+00  0.00000000000E+00  0.18250000000E+03  0.18250000000E+03  0.00000000000E+00 0.  1.
         11   -1    0    0    0    0 -0.00000000000E+00 -0.00000000000E+00 -0.18250000000E+03  0.18250000000E+03  0.00000000000E+00 0.  1.
        -11    1    1    2    0    0  0.26162799289E+01  0.40827339266E+00  0.18003825663E+03  0.18005772813E+03  0.00000000000E+00 0.  1.
         11    1    1    2    0    0  0.46533612203E+01 -0.24294665564E+01 -0.16214291429E+03  0.16222786670E+03  0.00000000000E+00 0.  1.
        -15    1    1    2    0    0 -0.39227027337E+01  0.20090296091E+01 -0.35040822835E+00  0.47649041579E+01  0.17770000000E+01 0.  1.
         15    1    1    2    0    0 -0.33469384155E+01  0.12163554698E-01 -0.17544934112E+02  0.17949501016E+02  0.17770000000E+01 0.  1.
</event>
<event>
 6    1  0.8353910E-003  0.1838374E+03  0.7546771E-02  0.1067395E+00
        -11   -1    0    0    0    0  0.00000000000E+00  0.00000000000E+00  0.18250000000E+03  0.18250000000E+03  0.00000000000E+00 0. -1.
         11   -1    0    0    0    0 -0.00000000000E+00 -0.00000000000E+00 -0.18250000000E+03  0.18250000000E+03  0.00000000000E+00 0.  1.
        -11    1    1    2    0    0  0.21616040001E+01  0.10675038292E+01  0.17438515751E+03  0.17440182125E+03  0.00000000000E+00 0. -1.
         11    1    1    2    0    0 -0.37111922746E+01 -0.33075848558E+01 -0.18109434242E+03  0.18116256214E+03  0.00000000000E+00 0.  1.
        -15    1    1    2    0    0  0.25069248428E+01  0.11392429263E+01  0.12420395710E+01  0.35047022567E+01  0.17770000000E+01 0.  1.
         15    1    1    2    0    0 -0.95733656833E+00  0.11008381003E+01  0.54671453428E+01  0.59309143501E+01  0.17770000000E+01 0. -1.
</event>
<event>
 6    1  0.8353910E-003  0.1829474E+03  0.7546771E-02  0.1068099E+00
        -11   -1    0    0    0    0  0.00000000000E+00  0.00000000000E+00  0.18250000000E+03  0.18250000000E+03  0.00000000000E+00 0.  1.
         11   -1    0    0    0    0 -0.00000000000E+00 -0.00000000000E+00 -0.18250000000E+03  0.18250000000E+03  0.00000000000E+00 0.  1.
        -11    1    1    2    0    0  0.30579624007E+01  0.27799117161E+01  0.18200572150E+03  0.18205263443E+03  0.00000000000E+00 0.  1.
         11    1    1    2    0    0 -0.26608129910E+01 -0.13925719082E+01 -0.14897198637E+03  0.14900225470E+03  0.00000000000E+00 0.  1.
        -15    1    1    2    0    0 -0.11091697119E+01 -0.91785840967E+00 -0.26621307219E+01  0.35096140087E+01  0.17770000000E+01 0. -1.
         15    1    1    2    0    0  0.71202030223E+00 -0.46948139816E+00 -0.30371604410E+02  0.30435496861E+02  0.17770000000E+01 0.  1.
</event>
<event>
 6    1  0.8353910E-003  0.1845830E+03  0.7546771E-02  0.1066809E+00
        -11   -1    0    0    0    0  0.00000000000E+00  0.00000000000E+00  0.18250000000E+03  0.18250000000E+03  0.00000000000E+00 0. -1.
         11   -1    0    0    0    0 -0.00000000000E+00 -0.00000000000E+00 -0.18250000000E+03  0.18250000000E+03  0.00000000000E+00 0. -1.
        -11    1    1    2    0    0 -0.50585544993E+00 -0.61376202681E+01  0.12771522460E+03  0.12786361823E+03  0.00000000000E+00 0. -1.
         11    1    1    2    0    0 -0.75254063940E+01  0.18539034711E+01 -0.18025047182E+03  0.18041702051E+03  0.00000000000E+00 0. -1.
        -15    1    1    2    0    0  0.30875026989E+01  0.61904295823E+01  0.50127943435E+02  0.50634203196E+02  0.17770000000E+01 0. -1.
         15    1    1    2    0    0  0.49437591451E+01 -0.19067127853E+01  0.24073037889E+01  0.60851580638E+01  0.17770000000E+01 0.  1.
</event>
<event>
 6    1  0.8353910E-003  0.1861348E+03  0.7546771E-02  0.1065598E+00
        -11   -1    0    0    0    0  0.00000000000E+00  0.00000000000E+00  0.18250000000E+03  0.18250000000E+03  0.00000000000E+00 0. -1.
         11   -1    0    0    0    0 -0.00000000000E+00 -0.00000000000E+00 -0.18250000000E+03  0.18250000000E+03  0.00000000000E+00 0. -1.
        -11    1    1    2    0    0 -0.91063932583E+01 -0.11483423413E+02  0.17826373728E+03  0.17886518790E+03  0.00000000000E+00 0. -1.
         11    1    1    2    0    0  0.57051418558E+00 -0.13762219280E+01 -0.65200323043E+02  0.65217341238E+02  0.00000000000E+00 0. -1.
        -15    1    1    2    0    0  0.13064645668E+02  0.10323103900E+02 -0.14353519539E+02  0.22055219172E+02  0.17770000000E+01 0.  1.
         15    1    1    2    0    0 -0.45287665957E+01  0.25365414405E+01 -0.98709894699E+02  0.98862251693E+02  0.17770000000E+01 0. -1.
</event>
<event>
 6    1  0.8353910E-003  0.1865415E+03  0.7546771E-02  0.1065283E+00
        -11   -1    0    0    0    0  0.00000000000E+00  0.00000000000E+00  0.18250000000E+03  0.18250000000E+03  0.00000000000E+00 0.  1.
         11   -1    0    0    0    0 -0.00000000000E+00 -0.00000000000E+00 -0.18250000000E+03  0.18250000000E+03  0.00000000000E+00 0. -1.
        -11    1    1    2    0    0  0.15964105771E+00  0.33198427362E+01  0.17012712492E+03  0.17015958826E+03  0.00000000000E+00 0.  1.
         11    1    1    2    0    0  0.10588587268E+01 -0.47671180838E+01 -0.17839172221E+03  0.17845854743E+03  0.00000000000E+00 0. -1.
        -15    1    1    2    0    0  0.13888376347E+01 -0.17544011032E+01 -0.30666645344E+01  0.41915335586E+01  0.17770000000E+01 0.  1.
         15    1    1    2    0    0 -0.26073374192E+01  0.32016764509E+01  0.11331261821E+02  0.12190330757E+02  0.17770000000E+01 0. -1.
</event>
<event>
 6    1  0.8353910E-003  0.1749376E+03  0.7546771E-02  0.1074639E+00
        -11   -1    0    0    0    0  0.00000000000E+00  0.00000000000E+00  0.18250000000E+03  0.18250000000E+03  0.00000000000E+00 0. -1.
         11   -1    0    0    0    0 -0.00000000000E+00 -0.00000000000E+00 -0.18250000000E+03  0.18250000000E+03  0.00000000000E+00 0. -1.
        -11    1    1    2    0    0  0.79841562846E+00  0.30488968012E+01  0.17416994395E+03  0.17419845756E+03  0.00000000000E+00 0. -1.
         11    1    1    2    0    0 -0.16377844633E+00  0.61820863906E+01 -0.17569349097E+03  0.17580229744E+03  0.00000000000E+00 0. -1.
        -15    1    1    2    0    0 -0.16117827885E+01 -0.11067073743E+02  0.32290508894E+01  0.11775502691E+02  0.17770000000E+01 0. -1.
         15    1    1    2    0    0  0.97714560632E+00  0.18360905512E+01 -0.17055038737E+01  0.32237423147E+01  0.17770000000E+01 0.  1.
</event>
<event>
 6    1  0.8353910E-003  0.1830401E+03  0.7546771E-02  0.1068026E+00
        -11   -1    0    0    0    0  0.00000000000E+00  0.00000000000E+00  0.18250000000E+03  0.18250000000E+03  0.00000000000E+00 0.  1.
         11   -1    0    0    0    0 -0.00000000000E+00 -0.00000000000E+00 -0.18250000000E+03  0.18250000000E+03  0.00000000000E+00 0.  1.
        -11    1    1    2    0    0 -0.82333760967E+00  0.32947532963E+01  0.18192816322E+03  0.18195985782E+03  0.00000000000E+00 0.  1.
         11    1    1    2    0    0 -0.24795449606E+01  0.18379191573E+01 -0.10774915991E+03  0.10779335578E+03  0.00000000000E+00 0.  1.
        -15    1    1    2    0    0  0.38451052903E+00 -0.70736040310E+01 -0.29318330474E+02  0.30214333571E+02  0.17770000000E+01 0.  1.
         15    1    1    2    0    0  0.29183720413E+01  0.19409315775E+01 -0.44860672840E+02  0.45032452824E+02  0.17770000000E+01 0. -1.
</event>
<event>
 6    1  0.8353910E-003  0.1847647E+03  0.7546771E-02  0.1066666E+00
        -11   -1    0    0    0    0  0.00000000000E+00  0.00000000000E+00  0.18250000000E+03  0.18250000000E+03  0.00000000000E+00 0.  1.
         11   -1    0    0    0    0 -0.00000000000E+00 -0.00000000000E+00 -0.18250000000E+03  0.18250000000E+03  0.00000000000E+00 0.  1.
        -11    1    1    2    0    0  0.46474088073E+00  0.99240343556E+01  0.17996128678E+03  0.18023531058E+03  0.00000000000E+00 0.  1.
         11    1    1    2    0    0 -0.13398008798E+00 -0.19841765409E+01 -0.14686733236E+03  0.14688079596E+03  0.00000000000E+00 0.  1.
        -15    1    1    2    0    0 -0.33834670531E+01 -0.36173662150E+01 -0.31695304480E+02  0.32129164986E+02  0.17770000000E+01 0.  1.
         15    1    1    2    0    0  0.30527062603E+01 -0.43224915996E+01 -0.13986499431E+01  0.57547284735E+01  0.17770000000E+01 0. -1.
</event>
<event>
 6    1  0.8353910E-003  0.1850638E+03  0.7546771E-02  0.1066432E+00
        -11   -1    0    0    0    0  0.00000000000E+00  0.00000000000E+00  0.18250000000E+03  0.18250000000E+03  0.00000000000E+00 0. -1.
         11   -1    0    0    0    0 -0.00000000000E+00 -0.00000000000E+00 -0.18250000000E+03  0.18250000000E+03  0.00000000000E+00 0. -1.
        -11    1    1    2    0    0 -0.19757515916E+01 -0.35626735860E+01  0.17989005301E+03  0.17993617593E+03  0.00000000000E+00 0. -1.
         11    1    1    2    0    0  0.25307878429E+01 -0.46503776302E+01 -0.16752326757E+03  0.16760690939E+03  0.00000000000E+00 0. -1.
        -15    1    1    2    0    0 -0.47282701240E+00 -0.32125250652E+00 -0.69432598138E+01  0.71898090655E+01  0.17770000000E+01 0.  1.
         15    1    1    2    0    0 -0.82209238852E-01  0.85343037227E+01 -0.54235256308E+01  0.10267105613E+02  0.17770000000E+01 0. -1.
</event>
<event>
 6    1  0.8353910E-003  0.1843530E+03  0.7546771E-02  0.1066989E+00
        -11   -1    0    0    0    0  0.00000000000E+00  0.00000000000E+00  0.18250000000E+03  0.18250000000E+03  0.00000000000E+00 0. -1.
         11   -1    0    0    0    0 -0.00000000000E+00 -0.00000000000E+00 -0.18250000000E+03  0.18250000000E+03  0.00000000000E+00 0.  1.
        -11    1    1    2    0    0  0.13572563524E+02  0.38180365028E+01  0.18009596395E+03  0.18064702631E+03  0.00000000000E+00 0. -1.
         11    1    1    2    0    0  0.12436232249E+01 -0.35080260896E+01 -0.10275542051E+03  0.10282280530E+03  0.00000000000E+00 0.  1.
        -15    1    1    2    0    0 -0.21849065794E+01  0.46151514732E+01 -0.55498392696E+02  0.55761122305E+02  0.17770000000E+01 0. -1.
         15    1    1    2    0    0 -0.12631280170E+02 -0.49251618864E+01 -0.21842150743E+02  0.25769046090E+02  0.17770000000E+01 0.  1.
</event>
<event>
 6    1  0.9174015E-003  0.1854961E+03  0.7546771E-02  0.1066095E+00
        -11   -1    0    0    0    0  0.00000000000E+00  0.00000000000E+00  0.18250000000E+03  0.18250000000E+03  0.00000000000E+00 0.  1.
         11   -1    0    0    0    0 -0.00000000000E+00 -0.00000000000E+00 -0.18250000000E+03  0.18250000000E+03  0.00000000000E+00 0. -1.
        -11    1    1    2    0    0  0.15060044846E+01 -0.24905270268E+01  0.17948032814E+03  0.17950392464E+03  0.00000000000E+00 0.  1.
         11    1    1    2    0    0  0.21778937898E+01  0.13681974424E+01 -0.15092657305E+03  0.15094848670E+03  0.00000000000E+00 0. -1.
        -15    1    1    2    0    0 -0.35858707361E+01  0.37151824336E+00 -0.31096057209E+02  0.31354728474E+02  0.17770000000E+01 0. -1.
         15    1    1    2    0    0 -0.98027538309E-01  0.75081134103E+00  0.25423021182E+01  0.31928601799E+01  0.17770000000E+01 0.  1.
</event>
<event>
 6    1  0.8353910E-003  0.1845023E+03  0.7546771E-02  0.1066872E+00
        -11   -1    0    0    0    0  0.00000000000E+00  0.00000000000E+00  0.18250000000E+03  0.18250000000E+03  0.00000000000E+00 0. -1.
         11   -1    0    0    0    0 -0.00000000000E+00 -0.00000000000E+00 -0.18250000000E+03  0.18250000000E+03  0.00000000000E+00 0.  1.
        -11    1    1    2    0    0 -0.22015171497E+01  0.39627420807E+01  0.18044076308E+03  0.18049769800E+03  0.00000000000E+00 0. -1.
         11    1    1    2    0    0  0.62385622343E+01  0.66643001951E+01 -0.14016736577E+03  0.14046431213E+03  0.00000000000E+00 0.  1.
        -15    1    1    2    0    0  0.25587879234E+01 -0.36479069503E+01 -0.33655248635E+01  0.58599579659E+01  0.17770000000E+01 0. -1.
         15    1    1    2    0    0 -0.65958330081E+01 -0.69791353255E+01 -0.36907872440E+02  0.38178031903E+02  0.17770000000E+01 0.  1.
</event>
<event>
 6    1  0.8353910E-003  0.1853468E+03  0.7546771E-02  0.1066211E+00
        -11   -1    0    0    0    0  0.00000000000E+00  0.00000000000E+00  0.18250000000E+03  0.18250000000E+03  0.00000000000E+00 0. -1.
         11   -1    0    0    0    0 -0.00000000000E+00 -0.00000000000E+00 -0.18250000000E+03  0.18250000000E+03  0.00000000000E+00 0. -1.
        -11    1    1    2    0    0  0.32249674407E+01  0.40000243334E+01  0.17681519265E+03  0.17688983284E+03  0.00000000000E+00 0. -1.
         11    1    1    2    0    0 -0.21452193872E+01 -0.22698312825E+01 -0.17962605296E+03  0.17965320203E+03  0.00000000000E+00 0. -1.
        -15    1    1    2    0    0 -0.30709172007E+01 -0.18443855118E+01  0.38874438183E+01  0.55769381214E+01  0.17770000000E+01 0. -1.
         15    1    1    2    0    0  0.19911691472E+01  0.11419246092E+00 -0.10765835144E+01  0.28800270058E+01  0.17770000000E+01 0.  1.
</event>
<event>
 6    1  0.8353910E-003  0.1830098E+03  0.7546771E-02  0.1068050E+00
        -11   -1    0    0    0    0  0.00000000000E+00  0.00000000000E+00  0.18250000000E+03  0.18250000000E+03  0.00000000000E+00 0.  1.
         11   -1    0    0    0    0 -0.00000000000E+00 -0.00000000000E+00 -0.18250000000E+03  0.18250000000E+03  0.00000000000E+00 0.  1.
        -11    1    1    2    0    0 -0.16453436022E+00  0.19279710470E+01  0.62400018066E+02  0.62430012002E+02  0.00000000000E+00 0.  1.
         11    1    1    2    0    0 -0.34278802508E+01  0.15746293820E+01 -0.18195109841E+03  0.18199019763E+03  0.00000000000E+00 0.  1.
        -15    1    1    2    0    0  0.45995903242E+00  0.42097427798E+01  0.15111802121E+02  0.15794232775E+02  0.17770000000E+01 0. -1.
         15    1    1    2    0    0  0.31324555786E+01 -0.77123432087E+01  0.10443927822E+03  0.10478555759E+03  0.17770000000E+01 0.  1.
</event>
<event>
 6    1  0.8353910E-003  0.1830368E+03  0.7546771E-02  0.1068028E+00
        -11   -1    0    0    0    0  0.00000000000E+00  0.00000000000E+00  0.18250000000E+03  0.18250000000E+03  0.00000000000E+00 0.  1.
         11   -1    0    0    0    0 -0.00000000000E+00 -0.00000000000E+00 -0.18250000000E+03  0.18250000000E+03  0.00000000000E+00 0. -1.
        -11    1    1    2    0    0  0.11132324672E+01  0.18004390858E+01  0.15334065752E+03  0.15335526765E+03  0.00000000000E+00 0.  1.
         11    1    1    2    0    0 -0.40071949052E+01 -0.29001065681E+01 -0.18189598667E+03  0.18196323309E+03  0.00000000000E+00 0. -1.
        -15    1    1    2    0    0  0.30156155381E+00  0.12186287053E+01  0.24262039290E+02  0.24359398080E+02  0.17770000000E+01 0. -1.
         15    1    1    2    0    0  0.25924008842E+01 -0.11896122301E+00  0.42932898633E+01  0.53221011797E+01  0.17770000000E+01 0.  1.
</event>
<event>
 6    1  0.8353910E-003  0.1827294E+03  0.7546771E-02  0.1068272E+00
        -11   -1    0    0    0    0  0.00000000000E+00  0.00000000000E+00  0.18250000000E+03  0.18250000000E+03  0.00000000000E+00 0.  1.
         11   -1    0    0    0    0 -0.00000000000E+00 -0.00000000000E+00 -0.18250000000E+03  0.18250000000E+03  0.00000000000E+00 0. -1.
        -11    1    1    2    0    0 -0.17344136961E-01 -0.27656032059E+01  0.14233130868E+03  0.14235817607E+03  0.00000000000E+00 0.  1.
         11    1    1    2    0    0 -0.31830723652E+01  0.19393512671E+01 -0.18223253235E+03  0.18227064734E+03  0.00000000000E+00 0. -1.
        -15    1    1    2    0    0  0.21736022535E+01  0.19924077214E+01  0.29780155431E+02  0.29978485982E+02  0.17770000000E+01 0.  1.
         15    1    1    2    0    0  0.10268142487E+01 -0.11661557826E+01  0.10121068240E+02  0.10392690611E+02  0.17770000000E+01 0. -1.
</event>
<event>
 6    1  0.8353910E-003  0.1835115E+03  0.7546771E-02  0.1067652E+00
        -11   -1    0    0    0    0  0.00000000000E+00  0.00000000000E+00  0.18250000000E+03  0.18250000000E+03  0.00000000000E+00 0.  1.
         11   -1    0    0    0    0 -0.00000000000E+00 -0.00000000000E+00 -0.18250000000E+03  0.18250000000E+03  0.00000000000E+00 0.  1.
        -11    1    1    2    0    0 -0.28077616063E+01  0.79642039820E+00  0.18146502580E+03  0.18148849384E+03  0.00000000000E+00 0.  1.
         11    1    1    2    0    0  0.18105830862E+01  0.15023483859E+01 -0.17077136406E+03  0.17078756993E+03  0.00000000000E+00 0.  1.
        -15    1    1    2    0    0  0.20598673094E+01 -0.46367773912E+00 -0.15378459161E+01  0.31592324131E+01  0.17770000000E+01 0.  1.
         15    1    1    2    0    0 -0.10626887893E+01 -0.18350910450E+01 -0.91558158211E+01  0.95647038091E+01  0.17770000000E+01 0. -1.
</event>
<event>
 6    1  0.8353910E-003  0.1831685E+03  0.7546771E-02  0.1067924E+00
        -11   -1    0    0    0    0  0.00000000000E+00  0.00000000000E+00  0.18250000000E+03  0.18250000000E+03  0.00000000000E+00 0. -1.
         11   -1    0    0    0    0 -0.00000000000E+00 -0.00000000000E+00 -0.18250000000E+03  0.18250000000E+03  0.00000000000E+00 0. -1.
        -11    1    1    2    0    0 -0.45665527972E+01 -0.81457370789E+00  0.18177227980E+03  0.18183145668E+03  0.00000000000E+00 0. -1.
         11    1    1    2    0    0  0.26566557449E+01  0.24426106165E+01 -0.15876411351E+03  0.15880512556E+03  0.00000000000E+00 0. -1.
        -15    1    1    2    0    0  0.11879749224E+01  0.23452945930E+01 -0.59428306194E+01  0.67369619203E+01  0.17770000000E+01 0. -1.
         15    1    1    2    0    0  0.72192212997E+00 -0.39733315016E+01 -0.17065335673E+02  0.17626455839E+02  0.17770000000E+01 0.  1.
</event>
<event>
 6    1  0.8353910E-003  0.1849757E+03  0.7546771E-02  0.1066501E+00
        -11   -1    0    0    0    0  0.00000000000E+00  0.00000000000E+00  0.18250000000E+03  0.18250000000E+03  0.00000000000E+00 0. -1.
         11   -1    0    0    0    0 -0.00000000000E+00 -0.00000000000E+00 -0.18250000000E+03  0.18250000000E+03  0.00000000000E+00 0. -1.
        -11    1    1    2    0    0  0.41830711021E+00 -0.25252628003E+01  0.18000609972E+03  0.18002429799E+03  0.00000000000E+00 0. -1.
         11    1    1    2    0    0  0.13544068993E+00  0.26973836438E+01 -0.17266167807E+03  0.17268279965E+03  0.00000000000E+00 0. -1.
        -15    1    1    2    0    0 -0.15879859704E+01  0.13206304883E+01  0.14864970385E+01  0.31037343272E+01  0.17770000000E+01 0.  1.
         15    1    1    2    0    0  0.10342381702E+01 -0.14927513317E+01 -0.88309186858E+01  0.91891680236E+01  0.17770000000E+01 0.  1.
</event>
<event>
 6    1  0.8353910E-003  0.1865754E+03  0.7546771E-02  0.1065256E+00
        -11   -1    0    0    0    0  0.00000000000E+00  0.00000000000E+00  0.18250000000E+03  0.18250000000E+03  0.00000000000E+00 0. -1.
         11   -1    0    0    0    0 -0.00000000000E+00 -0.00000000000E+00 -0.18250000000E+03  0.18250000000E+03  0.00000000000E+00 0.  1.
        -11    1    1    2    0    0 -0.81226308674E+00  0.24606788053E+01  0.15772107164E+03  0.15774235687E+03  0.00000000000E+00 0. -1.
         11    1    1    2    0    0  0.97353487162E+01 -0.10546579945E+02 -0.17784634361E+03  0.17842457594E+03  0.00000000000E+00 0.  1.
        -15    1    1    2    0    0 -0.57961267270E+01  0.57691753458E+00 -0.95861970233E+00  0.61647870694E+01  0.17770000000E+01 0.  1.
         15    1    1    2    0    0 -0.31269589025E+01  0.75089836054E+01  0.21083891669E+02  0.22668280122E+02  0.17770000000E+01 0. -1.
</event>
<event>
 6    1  0.8353910E-003  0.1882710E+03  0.7546771E-02  0.1063952E+00
        -11   -1    0    0    0    0  0.00000000000E+00  0.00000000000E+00  0.18250000000E+03  0.18250000000E+03  0.00000000000E+00 0.  1.
         11   -1    0    0    0    0 -0.00000000000E+00 -0.00000000000E+00 -0.18250000000E+03  0.18250000000E+03  0.00000000000E+00 0. -1.
        -11    1    1    2    0    0  0.13138894642E+01  0.42822180529E-01  0.82223922769E-01  0.13171560412E+01  0.00000000000E+00 0.  1.
         11    1    1    2    0    0  0.11681409989E+01 -0.21140767197E+02 -0.17416364461E+03  0.17544592242E+03  0.00000000000E+00 0. -1.
        -15    1    1    2    0    0 -0.21058978988E+02  0.43787798771E+01  0.15563215753E+03  0.15712154689E+03  0.17770000000E+01 0.  1.
         15    1    1    2    0    0  0.18576948525E+02  0.16719165139E+02  0.18449263154E+02  0.31115374646E+02  0.17770000000E+01 0. -1.
</event>
<event>
 6    1  0.8353910E-003  0.1740945E+03  0.7546771E-02  0.1075350E+00
        -11   -1    0    0    0    0  0.00000000000E+00  0.00000000000E+00  0.18250000000E+03  0.18250000000E+03  0.00000000000E+00 0.  1.
         11   -1    0    0    0    0 -0.00000000000E+00 -0.00000000000E+00 -0.18250000000E+03  0.18250000000E+03  0.00000000000E+00 0. -1.
        -11    1    1    2    0    0  0.53645611946E+00  0.25034923802E+01  0.17295827724E+03  0.17297722661E+03  0.00000000000E+00 0.  1.
         11    1    1    2    0    0 -0.33530244248E+01  0.16103241537E+01 -0.17521522333E+03  0.17525470152E+03  0.00000000000E+00 0. -1.
        -15    1    1    2    0    0 -0.26604806930E+01 -0.28986271399E+01 -0.55248760266E+01  0.70115747820E+01  0.17770000000E+01 0.  1.
         15    1    1    2    0    0  0.54770489984E+01 -0.12151893940E+01  0.77818221161E+01  0.97564970886E+01  0.17770000000E+01 0. -1.
</event>
<event>
 6    1  0.8353910E-003  0.1856275E+03  0.7546771E-02  0.1065992E+00
        -11   -1    0    0    0    0  0.00000000000E+00  0.00000000000E+00  0.18250000000E+03  0.18250000000E+03  0.00000000000E+00 0.  1.
         11   -1    0    0    0    0 -0.00000000000E+00 -0.00000000000E+00 -0.18250000000E+03  0.18250000000E+03  0.00000000000E+00 0. -1.
        -11    1    1    2    0    0 -0.59789030508E+01  0.42658563678E+01  0.17346364139E+03  0.17361906490E+03  0.00000000000E+00 0.  1.
         11    1    1    2    0    0 -0.24651389042E+01 -0.88828770668E+00 -0.17935334134E+03  0.17937248121E+03  0.00000000000E+00 0. -1.
        -15    1    1    2    0    0  0.73463120473E+01 -0.24243442280E+01  0.55550553111E+01  0.96882461850E+01  0.17770000000E+01 0. -1.
         15    1    1    2    0    0  0.10977299077E+01 -0.95322443311E+00  0.33464463794E+00  0.23202077071E+01  0.17770000000E+01 0.  1.
</event>
<event>
 6    1  0.8353910E-003  0.1848928E+03  0.7546771E-02  0.1066566E+00
        -11   -1    0    0    0    0  0.00000000000E+00  0.00000000000E+00  0.18250000000E+03  0.18250000000E+03  0.00000000000E+00 0. -1.
         11   -1    0    0    0    0 -0.00000000000E+00 -0.00000000000E+00 -0.18250000000E+03  0.18250000000E+03  0.00000000000E+00 0. -1.
        -11    1    1    2    0    0 -0.19915142354E+01  0.14420063764E+01  0.18009041757E+03  0.18010720144E+03  0.00000000000E+00 0. -1.
         11    1    1    2    0    0  0.17696667242E+01  0.22547704272E+01 -0.15007914509E+03  0.15010651386E+03  0.00000000000E+00 0. -1.
        -15    1    1    2    0    0  0.13949539554E+01 -0.15904097736E+00  0.16846239186E+01  0.28225657330E+01  0.17770000000E+01 0.  1.
         15    1    1    2    0    0 -0.11731064442E+01 -0.35377358262E+01 -0.31695896389E+02  0.31963718970E+02  0.17770000000E+01 0.  1.
</event>
<event>
 6    1  0.8353910E-003  0.1902322E+03  0.7546771E-02  0.1062461E+00
        -11   -1    0    0    0    0  0.00000000000E+00  0.00000000000E+00  0.18250000000E+03  0.18250000000E+03  0.00000000000E+00 0.  1.
         11   -1    0    0    0    0 -0.00000000000E+00 -0.00000000000E+00 -0.18250000000E+03  0.18250000000E+03  0.00000000000E+00 0.  1.
        -11    1    1    2    0    0 -0.13112961134E+02  0.59798503074E+01  0.11505920041E+03  0.11595830268E+03  0.00000000000E+00 0.  1.
         11    1    1    2    0    0  0.17469369809E+01 -0.60561808060E+01 -0.17465410488E+03  0.17476780443E+03  0.00000000000E+00 0.  1.
        -15    1    1    2    0    0 -0.18716189255E+01  0.13771147953E+02  0.51724524020E+02  0.53588539702E+02  0.17770000000E+01 0.  1.
         15    1    1    2    0    0  0.13237643079E+02 -0.13694817454E+02  0.78703804433E+01  0.20685353192E+02  0.17770000000E+01 0. -1.
</event>
<event>
 6    1  0.8353910E-003  0.1837475E+03  0.7546771E-02  0.1067466E+00
        -11   -1    0    0    0    0  0.00000000000E+00  0.00000000000E+00  0.18250000000E+03  0.18250000000E+03  0.00000000000E+00 0. -1.
         11   -1    0    0    0    0 -0.00000000000E+00 -0.00000000000E+00 -0.18250000000E+03  0.18250000000E+03  0.00000000000E+00 0.  1.
        -11    1    1    2    0    0 -0.13063342086E+01 -0.25559797609E+01  0.17494086424E+03  0.17496441216E+03  0.00000000000E+00 0. -1.
         11    1    1    2    0    0 -0.34856112780E-01  0.24802804519E+01 -0.18123555258E+03  0.18125252695E+03  0.00000000000E+00 0.  1.
        -15    1    1    2    0    0  0.13033633876E+01 -0.19594817323E+01  0.49574245787E+01  0.57681983524E+01  0.17770000000E+01 0. -1.
         15    1    1    2    0    0  0.37826933867E-01  0.20351810413E+01  0.13372637597E+01  0.30148625360E+01  0.17770000000E+01 0. -1.
</event>
<event>
 6    1  0.8353910E-003  0.1550461E+03  0.7546771E-02  0.1092686E+00
        -11   -1    0    0    0    0  0.00000000000E+00  0.00000000000E+00  0.18250000000E+03  0.18250000000E+03  0.00000000000E+00 0.  1.
         11   -1    0    0    0    0 -0.00000000000E+00 -0.00000000000E+00 -0.18250000000E+03  0.18250000000E+03  0.00000000000E+00 0. -1.
        -11    1    1    2    0    0 -0.34035446270E+01 -0.17202090726E+01  0.16090870806E+03  0.16095389267E+03  0.00000000000E+00 0.  1.
         11    1    1    2    0    0 -0.21673773285E+02  0.76409953032E+01 -0.14868150468E+03  0.15044709067E+03  0.00000000000E+00 0. -1.
        -15    1    1    2    0    0 -0.15352031693E+01  0.52556173197E+01  0.13636539646E+02  0.14801733165E+02  0.17770000000E+01 0.  1.
         15    1    1    2    0    0  0.26612521082E+02 -0.11176403550E+02 -0.25863743023E+02  0.38797283498E+02  0.17770000000E+01 0. -1.
</event>
<event>
 6    1  0.8353910E-003  0.1912261E+03  0.7546771E-02  0.1061713E+00
        -11   -1    0    0    0    0  0.00000000000E+00  0.00000000000E+00  0.18250000000E+03  0.18250000000E+03  0.00000000000E+00 0.  1.
         11   -1    0    0    0    0 -0.00000000000E+00 -0.00000000000E+00 -0.18250000000E+03  0.18250000000E+03  0.00000000000E+00 0. -1.
        -11    1    1    2    0    0 -0.13021051018E+02 -0.28188906983E+01  0.12990467474E+03  0.13058605758E+03  0.00000000000E+00 0.  1.
         11    1    1    2    0    0 -0.18171797099E+01  0.12470855700E+02 -0.17331629962E+03  0.17377388785E+03  0.00000000000E+00 0. -1.
        -15    1    1    2    0    0  0.26857869648E+02 -0.79552630655E+01  0.37973774985E+02  0.47220723078E+02  0.17770000000E+01 0.  1.
         15    1    1    2    0    0 -0.12019638920E+02 -0.16967019364E+01  0.54378498955E+01  0.13419331493E+02  0.17770000000E+01 0. -1.
</event>
<event>
 6    1  0.8353910E-003  0.1844405E+03  0.7546771E-02  0.1066921E+00
        -11   -1    0    0    0    0  0.00000000000E+00  0.00000000000E+00  0.18250000000E+03  0.18250000000E+03  0.00000000000E+00 0. -1.
         11   -1    0    0    0    0 -0.00000000000E+00 -0.00000000000E+00 -0.18250000000E+03  0.18250000000E+03  0.00000000000E+00 0. -1.
        -11    1    1    2    0    0 -0.22149050398E+01 -0.19463314757E+01  0.12079058054E+03  0.12082656313E+03  0.00000000000E+00 0. -1.
         11    1    1    2    0    0  0.75912207407E+01 -0.71628547036E+01 -0.18025761934E+03  0.18055952606E+03  0.00000000000E+00 0. -1.
        -15    1    1    2    0    0  0.38222323852E+01  0.44530376699E+01  0.46732492866E+02  0.47133031128E+02  0.17770000000E+01 0.  1.
         15    1    1    2    0    0 -0.91985480861E+01  0.46561485093E+01  0.12734545938E+02  0.16480879682E+02  0.17770000000E+01 0. -1.
</event>
<event>
 6    1  0.8582836E-003  0.1830561E+03  0.7546771E-02  0.1068013E+00
        -11   -1    0    0    0    0  0.00000000000E+00  0.00000000000E+00  0.18250000000E+03  0.18250000000E+03  0.00000000000E+00 0. -1.
         11   -1    0    0    0    0 -0.00000000000E+00 -0.00000000000E+00 -0.18250000000E+03  0.18250000000E+03  0.00000000000E+00 0.  1.
        -11    1    1    2    0    0  0.16083922216E+01 -0.10934596851E+00  0.11789779462E+03  0.11790881586E+03  0.00000000000E+00 0. -1.
         11    1    1    2    0    0 -0.16811972793E+01 -0.37288308407E+01 -0.18189789574E+03  0.18194387892E+03  0.00000000000E+00 0.  1.
        -15    1    1    2    0    0 -0.15332419401E+01  0.12771645026E+01  0.58885497559E+02  0.58946090046E+02  0.17770000000E+01 0. -1.
         15    1    1    2    0    0  0.16060469979E+01  0.25610123066E+01  0.51146035579E+01  0.62012151670E+01  0.17770000000E+01 0.  1.
</event>
<event>
 6    1  0.8353910E-003  0.1777797E+03  0.7546771E-02  0.1072276E+00
        -11   -1    0    0    0    0  0.00000000000E+00  0.00000000000E+00  0.18250000000E+03  0.18250000000E+03  0.00000000000E+00 0. -1.
         11   -1    0    0    0    0 -0.00000000000E+00 -0.00000000000E+00 -0.18250000000E+03  0.18250000000E+03  0.00000000000E+00 0. -1.
        -11    1    1    2    0    0  0.27117883478E+01  0.13771628346E+01  0.17617049283E+03  0.17619674491E+03  0.00000000000E+00 0. -1.
         11    1    1    2    0    0  0.31878063975E+01 -0.31740414737E+01 -0.17937413008E+03  0.17943053026E+03  0.00000000000E+00 0. -1.
        -15    1    1    2    0    0 -0.16577891054E-01  0.19286559234E+01  0.56140420765E+00  0.26819567822E+01  0.17770000000E+01 0.  1.
         15    1    1    2    0    0 -0.58830168543E+01 -0.13177728427E+00  0.26422330448E+01  0.66907680443E+01  0.17770000000E+01 0. -1.
</event>
<event>
 6    1  0.8353910E-003  0.1871567E+03  0.7546771E-02  0.1064807E+00
        -11   -1    0    0    0    0  0.00000000000E+00  0.00000000000E+00  0.18250000000E+03  0.18250000000E+03  0.00000000000E+00 0.  1.
         11   -1    0    0    0    0 -0.00000000000E+00 -0.00000000000E+00 -0.18250000000E+03  0.18250000000E+03  0.00000000000E+00 0. -1.
        -11    1    1    2    0    0  0.55858682194E+01 -0.41171240048E+01  0.17770786213E+03  0.17784329309E+03  0.00000000000E+00 0.  1.
         11    1    1    2    0    0 -0.32403891860E+01 -0.29327964182E+01 -0.11018098620E+03  0.11026763413E+03  0.00000000000E+00 0. -1.
        -15    1    1    2    0    0 -0.34413231918E+01  0.10056906072E+01 -0.69939924723E+02  0.70054299784E+02  0.17770000000E+01 0.  1.
         15    1    1    2    0    0  0.10958441584E+01  0.60442298158E+01  0.24130487884E+01  0.68347729985E+01  0.17770000000E+01 0. -1.
</event>
<event>
 6    1  0.8353910E-003  0.1827571E+03  0.7546771E-02  0.1068250E+00
        -11   -1    0    0    0    0  0.00000000000E+00  0.00000000000E+00  0.18250000000E+03  0.18250000000E+03  0.00000000000E+00 0. -1.
         11   -1    0    0    0    0 -0.00000000000E+00 -0.00000000000E+00 -0.18250000000E+03  0.18250000000E+03  0.00000000000E+00 0. -1.
        -11    1    1    2    0    0  0.25399509845E+01  0.16820585140E+01  0.18221747223E+03  0.18224293637E+03  0.00000000000E+00 0. -1.
         11    1    1    2    0    0 -0.46588754630E+00  0.38015227296E+00 -0.30432625455E+02  0.30438565325E+02  0.00000000000E+00 0. -1.
        -15    1    1    2    0    0 -0.64140736108E+01 -0.29006180362E+01 -0.65264579659E+02  0.65667168450E+02  0.17770000000E+01 0. -1.
         15    1    1    2    0    0  0.43400101727E+01  0.83840724931E+00 -0.86520267115E+02  0.86651329855E+02  0.17770000000E+01 0.  1.
</event>
<event>
 6    1  0.8353910E-003  0.1855889E+03  0.7546771E-02  0.1066022E+00
        -11   -1    0    0    0    0  0.00000000000E+00  0.00000000000E+00  0.18250000000E+03  0.18250000000E+03  0.00000000000E+00 0. -1.
         11   -1    0    0    0    0 -0.00000000000E+00 -0.00000000000E+00 -0.18250000000E+03  0.18250000000E+03  0.00000000000E+00 0.  1.
        -11    1    1    2    0    0  0.86979120197E+01  0.22989096562E+01  0.17918540938E+03  0.17941111893E+03  0.00000000000E+00 0. -1.
         11    1    1    2    0    0 -0.44563042528E+01  0.35026100746E+01 -0.14659267687E+03  0.14670221483E+03  0.00000000000E+00 0.  1.
        -15    1    1    2    0    0  0.23059021198E+01 -0.83599869084E+01 -0.29849225306E+02  0.31134234310E+02  0.17770000000E+01 0. -1.
         15    1    1    2    0    0 -0.65475098867E+01  0.25584671776E+01 -0.27435072043E+01  0.77524319278E+01  0.17770000000E+01 0.  1.
</event>
<event>
 6    1  0.8353910E-003  0.1843928E+03  0.7546771E-02  0.1066958E+00
        -11   -1    0    0    0    0  0.00000000000E+00  0.00000000000E+00  0.18250000000E+03  0.18250000000E+03  0.00000000000E+00 0. -1.
         11   -1    0    0    0    0 -0.00000000000E+00 -0.00000000000E+00 -0.18250000000E+03  0.18250000000E+03  0.00000000000E+00 0. -1.
        -11    1    1    2    0    0 -0.96468431018E+00 -0.24727645348E+01  0.16259839166E+03  0.16262005458E+03  0.00000000000E+00 0. -1.
         11    1    1    2    0    0  0.17366453377E+01 -0.57322006714E+01 -0.18050787387E+03  0.18060721633E+03  0.00000000000E+00 0. -1.
        -15    1    1    2    0    0 -0.38846273946E+01  0.76179599546E+01  0.12141212623E+02  0.14956283523E+02  0.17770000000E+01 0. -1.
         15    1    1    2    0    0  0.31126663671E+01  0.58700525156E+00  0.57682695886E+01  0.68164455638E+01  0.17770000000E+01 0.  1.
</event>
<event>
 6    1  0.8353910E-003  0.1829099E+03  0.7546771E-02  0.1068129E+00
        -11   -1    0    0    0    0  0.00000000000E+00  0.00000000000E+00  0.18250000000E+03  0.18250000000E+03  0.00000000000E+00 0.  1.
         11   -1    0    0    0    0 -0.00000000000E+00 -0.00000000000E+00 -0.18250000000E+03  0.18250000000E+03  0.00000000000E+00 0.  1.
        -11    1    1    2    0    0  0.15944861674E+01  0.72109476680E-01  0.63239384942E+02  0.63259524135E+02  0.00000000000E+00 0.  1.
         11    1    1    2    0    0 -0.37609836323E+01  0.50717572397E+01 -0.18198061253E+03  0.18209011795E+03  0.00000000000E+00 0.  1.
        -15    1    1    2    0    0  0.86927035836E+00  0.40857308769E+01  0.23257529899E+02  0.23696397485E+02  0.17770000000E+01 0.  1.
         15    1    1    2    0    0  0.12972271066E+01 -0.92295975933E+01  0.95483697685E+02  0.95953960432E+02  0.17770000000E+01 0.  1.
</event>
<event>
 6    1  0.8353910E-003  0.1844586E+03  0.7546771E-02  0.1066906E+00
        -11   -1    0    0    0    0  0.00000000000E+00  0.00000000000E+00  0.18250000000E+03  0.18250000000E+03  0.00000000000E+00 0.  1.
         11   -1    0    0    0    0 -0.00000000000E+00 -0.00000000000E+00 -0.18250000000E+03  0.18250000000E+03  0.00000000000E+00 0. -1.
        -11    1    1    2    0    0 -0.80936400919E+00 -0.24916634604E+01  0.18052240686E+03  0.18054141584E+03  0.00000000000E+00 0.  1.
         11    1    1    2    0    0  0.25004417436E+01  0.75045760662E+00 -0.17371780640E+03  0.17373742157E+03  0.00000000000E+00 0. -1.
        -15    1    1    2    0    0  0.13891553344E+01  0.28227870055E+01 -0.58627905214E+01  0.68867932101E+01  0.17770000000E+01 0. -1.
         15    1    1    2    0    0 -0.30802330688E+01 -0.10815811518E+01 -0.94180993933E+00  0.38343693755E+01  0.17770000000E+01 0. -1.
</event>
<event>
 6    1  0.8353910E-003  0.1840437E+03  0.7546771E-02  0.1067233E+00
        -11   -1    0    0    0    0  0.00000000000E+00  0.00000000000E+00  0.18250000000E+03  0.18250000000E+03  0.00000000000E+00 0. -1.
         11   -1    0    0    0    0 -0.00000000000E+00 -0.00000000000E+00 -0.18250000000E+03  0.18250000000E+03  0.00000000000E+00 0. -1.
        -11    1    1    2    0    0 -0.21414502416E+01  0.12209205077E+01  0.18093953415E+03  0.18095632478E+03  0.00000000000E+00 0. -1.
         11    1    1    2    0    0  0.52941071282E+01 -0.18271487207E+01 -0.15644601946E+03  0.15654623294E+03  0.00000000000E+00 0. -1.
        -15    1    1    2    0    0 -0.13145633382E+01 -0.84086403455E-01  0.57816348656E+00  0.22862959805E+01  0.17770000000E+01 0. -1.
         15    1    1    2    0    0 -0.18380935484E+01  0.69031461651E+00 -0.25071678177E+02  0.25211146300E+02  0.17770000000E+01 0. -1.
</event>
<event>
 6    1  0.8353910E-003  0.1693743E+03  0.7546771E-02  0.1079411E+00
        -11   -1    0    0    0    0  0.00000000000E+00  0.00000000000E+00  0.18250000000E+03  0.18250000000E+03  0.00000000000E+00 0.  1.
         11   -1    0    0    0    0 -0.00000000000E+00 -0.00000000000E+00 -0.18250000000E+03  0.18250000000E+03  0.00000000000E+00 0.  1.
        -11    1    1    2    0    0 -0.81838477960E+01 -0.43557197186E-01  0.16988364971E+03  0.17008066233E+03  0.00000000000E+00 0.  1.
         11    1    1    2    0    0  0.19846685648E+02 -0.29490396768E+01 -0.16769286325E+03  0.16888896989E+03  0.00000000000E+00 0.  1.
        -15    1    1    2    0    0 -0.34988664604E+01  0.86451412512E+01 -0.96094801417E+01  0.13508529578E+02  0.17770000000E+01 0.  1.
         15    1    1    2    0    0 -0.81639713919E+01 -0.56525443773E+01  0.74186936858E+01  0.12521838197E+02  0.17770000000E+01 0. -1.
</event>
<event>
 6    1  0.8353910E-003  0.2244782E+03  0.7546771E-02  0.1039219E+00
        -11   -1    0    0    0    0  0.00000000000E+00  0.00000000000E+00  0.18250000000E+03  0.18250000000E+03  0.00000000000E+00 0.  1.
         11   -1    0    0    0    0 -0.00000000000E+00 -0.00000000000E+00 -0.18250000000E+03  0.18250000000E+03  0.00000000000E+00 0. -1.
        -11    1    1    2    0    0 -0.45527169906E+01 -0.36244934459E+01  0.12243854023E+03  0.12257675276E+03  0.00000000000E+00 0.  1.
         11    1    1    2    0    0 -0.76426553662E+00 -0.38411977008E+01 -0.14046723282E+03  0.14052182178E+03  0.00000000000E+00 0. -1.
        -15    1    1    2    0    0  0.68971620262E+01 -0.16258929225E+01  0.59211268794E+02  0.59660258573E+02  0.17770000000E+01 0.  1.
         15    1    1    2    0    0 -0.15801794991E+01  0.90915840691E+01 -0.41182576203E+02  0.42241166885E+02  0.17770000000E+01 0. -1.
</event>
<event>
 6    1  0.8353910E-003  0.1886826E+03  0.7546771E-02  0.1063637E+00
        -11   -1    0    0    0    0  0.00000000000E+00  0.00000000000E+00  0.18250000000E+03  0.18250000000E+03  0.00000000000E+00 0. -1.
         11   -1    0    0    0    0 -0.00000000000E+00 -0.00000000000E+00 -0.18250000000E+03  0.18250000000E+03  0.00000000000E+00 0.  1.
        -11    1    1    2    0    0  0.29742905239E+01 -0.21655237081E+01  0.17627902417E+03  0.17631741338E+03  0.00000000000E+00 0. -1.
         11    1    1    2    0    0 -0.48214846510E+01  0.46157863253E+00 -0.17197852391E+03  0.17204671591E+03  0.00000000000E+00 0.  1.
        -15    1    1    2    0    0  0.70833685018E+01  0.37425035184E+01 -0.63716407304E+01  0.10389224057E+02  0.17770000000E+01 0. -1.
         15    1    1    2    0    0 -0.52361743747E+01 -0.20385584428E+01  0.20711404686E+01  0.62466466563E+01  0.17770000000E+01 0.  1.
</event>
<event>
 6    1  0.8353910E-003  0.1836808E+03  0.7546771E-02  0.1067519E+00
        -11   -1    0    0    0    0  0.00000000000E+00  0.00000000000E+00  0.18250000000E+03  0.18250000000E+03  0.00000000000E+00 0. -1.
         11   -1    0    0    0    0 -0.00000000000E+00 -0.00000000000E+00 -0.18250000000E+03  0.18250000000E+03  0.00000000000E+00 0. -1.
        -11    1    1    2    0    0  0.36627091564E+01 -0.24586746975E+01  0.16579813286E+03  0.16585680987E+03  0.00000000000E+00 0. -1.
         11    1    1    2    0    0 -0.88742685577E+00  0.43272346490E+01 -0.18126541086E+03  0.18131922585E+03  0.00000000000E+00 0. -1.
        -15    1    1    2    0    0 -0.50330175378E+01 -0.10993692083E+01  0.12433703953E+02  0.13575514766E+02  0.17770000000E+01 0. -1.
         15    1    1    2    0    0  0.22577352372E+01 -0.76919074321E+00  0.30335740450E+01  0.42484495157E+01  0.17770000000E+01 0.  1.
</event>
<event>
 6    1  0.8353910E-003  0.1828245E+03  0.7546771E-02  0.1068197E+00
        -11   -1    0    0    0    0  0.00000000000E+00  0.00000000000E+00  0.18250000000E+03  0.18250000000E+03  0.00000000000E+00 0. -1.
         11   -1    0    0    0    0 -0.00000000000E+00 -0.00000000000E+00 -0.18250000000E+03  0.18250000000E+03  0.00000000000E+00 0.  1.
        -11    1    1    2    0    0 -0.94840352645E+00  0.10856739543E+00  0.61788159309E+02  0.61795532904E+02  0.00000000000E+00 0. -1.
         11    1    1    2    0    0 -0.67928663500E+01  0.20574494646E+01 -0.18203722586E+03  0.18217554098E+03  0.00000000000E+00 0.  1.
        -15    1    1    2    0    0 -0.15559005123E+01  0.17808416592E+01  0.15554088955E+02  0.15832865679E+02  0.17770000000E+01 0. -1.
         15    1    1    2    0    0  0.92971703888E+01 -0.39468585193E+01  0.10469497760E+03  0.10519606044E+03  0.17770000000E+01 0. -1.
</event>
<event>
 6    1  0.8353910E-003  0.2031126E+03  0.7546771E-02  0.1053137E+00
        -11   -1    0    0    0    0  0.00000000000E+00  0.00000000000E+00  0.18250000000E+03  0.18250000000E+03  0.00000000000E+00 0.  1.
         11   -1    0    0    0    0 -0.00000000000E+00 -0.00000000000E+00 -0.18250000000E+03  0.18250000000E+03  0.00000000000E+00 0.  1.
        -11    1    1    2    0    0  0.22641001180E+01 -0.16336068116E+01  0.14026339643E+03  0.14029118004E+03  0.00000000000E+00 0.  1.
         11    1    1    2    0    0 -0.16262295185E+01  0.18659145550E+01 -0.16186850024E+03  0.16188742270E+03  0.00000000000E+00 0.  1.
        -15    1    1    2    0    0  0.13518027440E+02 -0.14003946565E+02  0.34156728412E+02  0.39353365931E+02  0.17770000000E+01 0. -1.
         15    1    1    2    0    0 -0.14155898040E+02  0.13771638822E+02 -0.12551624602E+02  0.23468031325E+02  0.17770000000E+01 0.  1.
</event>
<event>
 6    1  0.8353910E-003  0.1838482E+03  0.7546771E-02  0.1067387E+00
        -11   -1    0    0    0    0  0.00000000000E+00  0.00000000000E+00  0.18250000000E+03  0.18250000000E+03  0.00000000000E+00 0. -1.
         11   -1    0    0    0    0 -0.00000000000E+00 -0.00000000000E+00 -0.18250000000E+03  0.18250000000E+03  0.00000000000E+00 0.  1.
        -11    1    1    2    0    0 -0.68037803272E+00  0.44726488489E+01  0.14018843386E+03  0.14026141483E+03  0.00000000000E+00 0. -1.
         11    1    1    2    0    0 -0.43870173572E+01 -0.37360669791E+01 -0.18106016838E+03  0.18115183877E+03  0.00000000000E+00 0.  1.
        -15    1    1    2    0    0  0.65702177751E+01 -0.14359412200E+01  0.79018365217E+01  0.10527413653E+02  0.17770000000E+01 0.  1.
         15    1    1    2    0    0 -0.15028223852E+01  0.69935935019E+00  0.32969897991E+02  0.33059332740E+02  0.17770000000E+01 0. -1.
</event>
<event>
 6    1  0.8353910E-003  0.1908453E+03  0.7546771E-02  0.1061999E+00
        -11   -1    0    0    0    0  0.00000000000E+00  0.00000000000E+00  0.18250000000E+03  0.18250000000E+03  0.00000000000E+00 0.  1.
         11   -1    0    0    0    0 -0.00000000000E+00 -0.00000000000E+00 -0.18250000000E+03  0.18250000000E+03  0.00000000000E+00 0.  1.
        -11    1    1    2    0    0 -0.10630119857E+02 -0.14342522382E+01  0.17382403086E+03  0.17415467330E+03  0.00000000000E+00 0.  1.
         11    1    1    2    0    0 -0.16041051878E+01  0.12811204275E+01 -0.92264109911E+02  0.92286945993E+02  0.00000000000E+00 0.  1.
        -15    1    1    2    0    0  0.24116629598E+01 -0.40127120620E+01 -0.86515852605E+02  0.86660651148E+02  0.17770000000E+01 0. -1.
         15    1    1    2    0    0  0.98225620847E+01  0.41658438726E+01  0.49559316554E+01  0.11897729559E+02  0.17770000000E+01 0.  1.
</event>
<event>
 6    1  0.8353910E-003  0.1863832E+03  0.7546771E-02  0.1065405E+00
        -11   -1    0    0    0    0  0.00000000000E+00  0.00000000000E+00  0.18250000000E+03  0.18250000000E+03  0.00000000000E+00 0. -1.
         11   -1    0    0    0    0 -0.00000000000E+00 -0.00000000000E+00 -0.18250000000E+03  0.18250000000E+03  0.00000000000E+00 0. -1.
        -11    1    1    2    0    0  0.27377004539E+01 -0.15870815577E+01  0.17858878677E+03  0.17861682057E+03  0.00000000000E+00 0. -1.
         11    1    1    2    0    0 -0.24951301415E+01  0.22652000802E+01 -0.15903639238E+03  0.15907209342E+03  0.00000000000E+00 0. -1.
        -15    1    1    2    0    0 -0.35870046284E+01 -0.27726596250E+01  0.20470935113E+01  0.52822878040E+01  0.17770000000E+01 0. -1.
         15    1    1    2    0    0  0.33444343159E+01  0.20945411025E+01 -0.21599487906E+02  0.22028798200E+02  0.17770000000E+01 0.  1.
</event>
<event>
 6    1  0.8353910E-003  0.1834133E+03  0.7546771E-02  0.1067730E+00
        -11   -1    0    0    0    0  0.00000000000E+00  0.00000000000E+00  0.18250000000E+03  0.18250000000E+03  0.00000000000E+00 0. -1.
         11   -1    0    0    0    0 -0.00000000000E+00 -0.00000000000E+00 -0.18250000000E+03  0.18250000000E+03  0.00000000000E+00 0.  1.
        -11    1    1    2    0    0 -0.56841928327E+01 -0.16388131606E+01  0.16887128298E+03  0.16897486787E+03  0.00000000000E+00 0. -1.
         11    1    1    2    0    0 -0.84994596277E+01 -0.49214958086E+01  0.79117277722E+01  0.12611794928E+02  0.00000000000E+00 0.  1.
        -15    1    1    2    0    0  0.15467046354E+02  0.94612304483E+00 -0.17669874153E+03  0.17738581584E+03  0.17770000000E+01 0.  1.
         15    1    1    2    0    0 -0.12833938938E+01  0.56141859244E+01 -0.84269223375E-01  0.60275213631E+01  0.17770000000E+01 0. -1.
</event>
<event>
 6    1  0.8353910E-003  0.1844601E+03  0.7546771E-02  0.1066905E+00
        -11   -1    0    0    0    0  0.00000000000E+00  0.00000000000E+00  0.18250000000E+03  0.18250000000E+03  0.00000000000E+00 0. -1.
         11   -1    0    0    0    0 -0.00000000000E+00 -0.00000000000E+00 -0.18250000000E+03  0.18250000000E+03  0.00000000000E+00 0.  1.
        -11    1    1    2    0    0 -0.74585827505E+00 -0.14468955830E+01  0.68121095433E+02  0.68140541929E+02  0.00000000000E+00 0. -1.
         11    1    1    2    0    0 -0.55248488493E+01 -0.86042747937E+00 -0.18045327694E+03  0.18053988327E+03  0.00000000000E+00 0.  1.
        -15    1    1    2    0    0  0.63279849297E+01  0.14623869770E+01  0.37261513081E+01  0.76957066935E+01  0.17770000000E+01 0.  1.
         15    1    1    2    0    0 -0.57277805368E-01  0.84493608536E+00  0.10860603020E+03  0.10862386811E+03  0.17770000000E+01 0. -1.
</event>
<event>
 6    1  0.8353910E-003  0.1825769E+03  0.7546771E-02  0.1068394E+00
        -11   -1    0    0    0    0  0.00000000000E+00  0.00000000000E+00  0.18250000000E+03  0.18250000000E+03  0.00000000000E+00 0.  1.
         11   -1    0    0    0    0 -0.00000000000E+00 -0.00000000000E+00 -0.18250000000E+03  0.18250000000E+03  0.00000000000E+00 0. -1.
        -11    1    1    2    0    0 -0.13763980185E+01 -0.35387673130E+01  0.18238355819E+03  0.18242307871E+03  0.00000000000E+00 0.  1.
         11    1    1    2    0    0 -0.10207048105E+01  0.99957302506E+00 -0.48358143471E+02  0.48379241670E+02  0.00000000000E+00 0. -1.
        -15    1    1    2    0    0  0.32257646412E+01  0.27715366602E+01 -0.76778562453E+02  0.76916788508E+02  0.17770000000E+01 0.  1.
         15    1    1    2    0    0 -0.82866181217E+00 -0.23234237231E+00 -0.57246852269E+02  0.57280891116E+02  0.17770000000E+01 0. -1.
</event>
<event>
 6    1  0.8353910E-003  0.1841554E+03  0.7546771E-02  0.1067145E+00
        -11   -1    0    0    0    0  0.00000000000E+00  0.00000000000E+00  0.18250000000E+03  0.18250000000E+03  0.00000000000E+00 0.  1.
         11   -1    0    0    0    0 -0.00000000000E+00 -0.00000000000E+00 -0.18250000000E+03  0.18250000000E+03  0.00000000000E+00 0.  1.
        -11    1    1    2    0    0 -0.11368362819E+01  0.21574308315E+01  0.18082817052E+03  0.18084461330E+03  0.00000000000E+00 0.  1.
         11    1    1    2    0    0 -0.95765598093E+00  0.23456066892E+01 -0.14473944593E+03  0.14476161848E+03  0.00000000000E+00 0.  1.
        -15    1    1    2    0    0  0.55176924350E+01 -0.58801897875E+01 -0.33603866324E+02  0.34603455357E+02  0.17770000000E+01 0. -1.
         15    1    1    2    0    0 -0.34232001722E+01  0.13771522668E+01 -0.24848582682E+01  0.47903128705E+01  0.17770000000E+01 0.  1.
</event>
<event>
 6    1  0.8353910E-003  0.1838613E+03  0.7546771E-02  0.1067376E+00
        -11   -1    0    0    0    0  0.00000000000E+00  0.00000000000E+00  0.18250000000E+03  0.18250000000E+03  0.00000000000E+00 0. -1.
         11   -1    0    0    0    0 -0.00000000000E+00 -0.00000000000E+00 -0.18250000000E+03  0.18250000000E+03  0.00000000000E+00 0. -1.
        -11    1    1    2    0    0  0.32372242682E+01  0.13208514789E+01  0.13961292846E+03  0.13965670074E+03  0.00000000000E+00 0. -1.
         11    1    1    2    0    0  0.26364123780E+01  0.17815064833E+01 -0.18111073677E+03  0.18113868557E+03  0.00000000000E+00 0. -1.
        -15    1    1    2    0    0  0.18523751501E+01 -0.45405188583E+01  0.67254257188E+01  0.85109744035E+01  0.17770000000E+01 0.  1.
         15    1    1    2    0    0 -0.77260117963E+01  0.14381608961E+01  0.34772382597E+02  0.35693639287E+02  0.17770000000E+01 0. -1.
</event>
<event>
 6    1  0.8353910E-003  0.1842165E+03  0.7546771E-02  0.1067097E+00
        -11   -1    0    0    0    0  0.00000000000E+00  0.00000000000E+00  0.18250000000E+03  0.18250000000E+03  0.00000000000E+00 0.  1.
         11   -1    0    0    0    0 -0.00000000000E+00 -0.00000000000E+00 -0.18250000000E+03  0.18250000000E+03  0.00000000000E+00 0.  1.
        -11    1    1    2    0    0  0.17280905740E+01  0.19306321237E+01  0.18076497138E+03  0.18078354050E+03  0.00000000000E+00 0.  1.
         11    1    1    2    0    0  0.23040894718E+01 -0.39968599144E+00 -0.14775741687E+03  0.14777592097E+03  0.00000000000E+00 0.  1.
        -15    1    1    2    0    0 -0.19982983023E+01 -0.33046208787E+01 -0.11286852026E+01  0.43983377023E+01  0.17770000000E+01 0. -1.
         15    1    1    2    0    0 -0.20338817435E+01  0.17736747465E+01 -0.31878869305E+02  0.32042200833E+02  0.17770000000E+01 0. -1.
</event>
<event>
 6    1  0.8353910E-003  0.1857176E+03  0.7546771E-02  0.1065922E+00
        -11   -1    0    0    0    0  0.00000000000E+00  0.00000000000E+00  0.18250000000E+03  0.18250000000E+03  0.00000000000E+00 0. -1.
         11   -1    0    0    0    0 -0.00000000000E+00 -0.00000000000E+00 -0.18250000000E+03  0.18250000000E+03  0.00000000000E+00 0. -1.
        -11    1    1    2    0    0 -0.32630078055E+00 -0.56382728260E+01  0.16696667482E+03  0.16706216535E+03  0.00000000000E+00 0. -1.
         11    1    1    2    0    0  0.62445229844E+01  0.36870700563E+00 -0.17917322968E+03  0.17928239246E+03  0.00000000000E+00 0. -1.
        -15    1    1    2    0    0 -0.84635070493E+00 -0.24561507690E+01  0.74987548254E+01  0.81325296832E+01  0.17770000000E+01 0.  1.
         15    1    1    2    0    0 -0.50718714989E+01  0.77257165894E+01  0.47078000364E+01  0.10522912501E+02  0.17770000000E+01 0. -1.
</event>
<event>
 6    1  0.8353910E-003  0.1861448E+03  0.7546771E-02  0.1065590E+00
        -11   -1    0    0    0    0  0.00000000000E+00  0.00000000000E+00  0.18250000000E+03  0.18250000000E+03  0.00000000000E+00 0. -1.
         11   -1    0    0    0    0 -0.00000000000E+00 -0.00000000000E+00 -0.18250000000E+03  0.18250000000E+03  0.00000000000E+00 0. -1.
        -11    1    1    2    0    0 -0.53256932652E+01  0.94067954606E+00  0.17348087572E+03  0.17356515239E+03  0.00000000000E+00 0. -1.
         11    1    1    2    0    0 -0.55204569495E+00  0.23765700822E+01 -0.17883858511E+03  0.17885522739E+03  0.00000000000E+00 0. -1.
        -15    1    1    2    0    0  0.49230548605E+01 -0.50143089529E+01  0.64724231049E+01  0.97174972747E+01  0.17770000000E+01 0.  1.
         15    1    1    2    0    0  0.95468409958E+00  0.16970593246E+01 -0.11147137090E+01  0.28621229419E+01  0.17770000000E+01 0. -1.
</event>
<event>
 6    1  0.8353910E-003  0.1997461E+03  0.7546771E-02  0.1055500E+00
        -11   -1    0    0    0    0  0.00000000000E+00  0.00000000000E+00  0.18250000000E+03  0.18250000000E+03  0.00000000000E+00 0. -1.
         11   -1    0    0    0    0 -0.00000000000E+00 -0.00000000000E+00 -0.18250000000E+03  0.18250000000E+03  0.00000000000E+00 0. -1.
        -11    1    1    2    0    0 -0.23670982445E+02 -0.19928552293E+02  0.62687651759E+02  0.69908542321E+02  0.00000000000E+00 0. -1.
         11    1    1    2    0    0  0.16861215262E+02  0.92638222020E+01 -0.16413018968E+03  0.16525385970E+03  0.00000000000E+00 0. -1.
        -15    1    1    2    0    0 -0.13646008435E+01 -0.32819228860E+02  0.24330416769E+02  0.40915655043E+02  0.17770000000E+01 0.  1.
         15    1    1    2    0    0  0.81743680269E+01  0.43483958951E+02  0.77112121149E+02  0.88921942937E+02  0.17770000000E+01 0. -1.
</event>
<event>
 6    1  0.8353910E-003  0.1853563E+03  0.7546771E-02  0.1066204E+00
        -11   -1    0    0    0    0  0.00000000000E+00  0.00000000000E+00  0.18250000000E+03  0.18250000000E+03  0.00000000000E+00 0.  1.
         11   -1    0    0    0    0 -0.00000000000E+00 -0.00000000000E+00 -0.18250000000E+03  0.18250000000E+03  0.00000000000E+00 0. -1.
        -11    1    1    2    0    0  0.79177594539E+00  0.48157118977E+01  0.15399930945E+03  0.15407662153E+03  0.00000000000E+00 0.  1.
         11    1    1    2    0    0 -0.34504017628E+01 -0.74327963693E+01 -0.17945671682E+03  0.17964371669E+03  0.00000000000E+00 0. -1.
        -15    1    1    2    0    0  0.57250279991E+01  0.53778226195E+01  0.33530352760E+01  0.87233878900E+01  0.17770000000E+01 0.  1.
         15    1    1    2    0    0 -0.30664021817E+01 -0.27607381479E+01  0.22104372088E+02  0.22556273892E+02  0.17770000000E+01 0. -1.
</event>
<event>
 6    1  0.8353910E-003  0.1835764E+03  0.7546771E-02  0.1067601E+00
        -11   -1    0    0    0    0  0.00000000000E+00  0.00000000000E+00  0.18250000000E+03  0.18250000000E+03  0.00000000000E+00 0.  1.
         11   -1    0    0    0    0 -0.00000000000E+00 -0.00000000000E+00 -0.18250000000E+03  0.18250000000E+03  0.00000000000E+00 0. -1.
        -11    1    1    2    0    0  0.20555187322E+01  0.36351892674E+00  0.11630520838E+03  0.11632393907E+03  0.00000000000E+00 0.  1.
         11    1    1    2    0    0 -0.18858416068E+00  0.35716093616E+01 -0.18138835572E+03  0.18142361353E+03  0.00000000000E+00 0. -1.
        -15    1    1    2    0    0  0.10616591802E+01  0.42572843331E+01  0.67334982806E+01  0.82309974002E+01  0.17770000000E+01 0. -1.
         15    1    1    2    0    0 -0.29285937517E+01 -0.81924126214E+01  0.58349649056E+02  0.59021449999E+02  0.17770000000E+01 0.  1.
</event>
<event>
 6    1  0.8353910E-003  0.1826839E+03  0.7546771E-02  0.1068309E+00
        -11   -1    0    0    0    0  0.00000000000E+00  0.00000000000E+00  0.18250000000E+03  0.18250000000E+03  0.00000000000E+00 0.  1.
         11   -1    0    0    0    0 -0.00000000000E+00 -0.00000000000E+00 -0.18250000000E+03  0.18250000000E+03  0.00000000000E+00 0.  1.
        -11    1    1    2    0    0  0.18228852130E+01  0.12073996269E+01  0.11104693275E+03  0.11106845635E+03  0.00000000000E+00 0.  1.
         11    1    1    2    0    0 -0.29418752484E+01  0.17839176154E+01 -0.18228362042E+03  0.18231608614E+03  0.00000000000E+00 0.  1.
        -15    1    1    2    0    0 -0.83015419689E+00 -0.21559772870E+01  0.58911470914E+02  0.58983527601E+02  0.17770000000E+01 0. -1.
         15    1    1    2    0    0  0.19491442323E+01 -0.83533995534E+00  0.12325216758E+02  0.12631929909E+02  0.17770000000E+01 0.  1.
</event>
<event>
 6    1  0.8353910E-003  0.1902542E+03  0.7546771E-02  0.1062445E+00
        -11   -1    0    0    0    0  0.00000000000E+00  0.00000000000E+00  0.18250000000E+03  0.18250000000E+03  0.00000000000E+00 0. -1.
         11   -1    0    0    0    0 -0.00000000000E+00 -0.00000000000E+00 -0.18250000000E+03  0.18250000000E+03  0.00000000000E+00 0.  1.
        -11    1    1    2    0    0  0.28395610325E+01  0.46098837429E-02  0.17472271049E+03  0.17474578304E+03  0.00000000000E+00 0. -1.
         11    1    1    2    0    0 -0.16201287831E+01 -0.20165966063E+01 -0.17239523844E+03  0.17241464472E+03  0.00000000000E+00 0.  1.
        -15    1    1    2    0    0  0.14025008706E+01  0.30577042951E+01 -0.93340113663E+01  0.10079586372E+02  0.17770000000E+01 0. -1.
         15    1    1    2    0    0 -0.26219331200E+01 -0.10457175726E+01  0.70065393149E+01  0.77599858697E+01  0.17770000000E+01 0. -1.
</event>
<event>
 6    1  0.8353910E-003  0.1828350E+03  0.7546771E-02  0.1068188E+00
        -11   -1    0    0    0    0  0.00000000000E+00  0.00000000000E+00  0.18250000000E+03  0.18250000000E+03  0.00000000000E+00 0.  1.
         11   -1    0    0    0    0 -0.00000000000E+00 -0.00000000000E+00 -0.18250000000E+03  0.18250000000E+03  0.00000000000E+00 0. -1.
        -11    1    1    2    0    0 -0.23378423766E+01  0.14546227677E+01  0.18214422536E+03  0.18216503579E+03  0.00000000000E+00 0.  1.
         11    1    1    2    0    0  0.24129117096E+01 -0.20202213150E+01 -0.79779722940E+02  0.79841766197E+02  0.00000000000E+00 0. -1.
        -15    1    1    2    0    0  0.92932207831E+00  0.10095811035E+01 -0.38518803358E+01  0.44584307386E+01  0.17770000000E+01 0.  1.
         15    1    1    2    0    0 -0.10043914113E+01 -0.44398255616E+00 -0.98512622082E+02  0.98534767271E+02  0.17770000000E+01 0. -1.
</event>
<event>
 6    1  0.8353910E-003  0.1890794E+03  0.7546771E-02  0.1063335E+00
        -11   -1    0    0    0    0  0.00000000000E+00  0.00000000000E+00  0.18250000000E+03  0.18250000000E+03  0.00000000000E+00 0. -1.
         11   -1    0    0    0    0 -0.00000000000E+00 -0.00000000000E+00 -0.18250000000E+03  0.18250000000E+03  0.00000000000E+00 0.  1.
        -11    1    1    2    0    0 -0.27291901228E+00 -0.28721850580E+01  0.17589697405E+03  0.17592063385E+03  0.00000000000E+00 0. -1.
         11    1    1    2    0    0 -0.16057713293E+00 -0.38272237886E+01 -0.16603959440E+03  0.16608377505E+03  0.00000000000E+00 0.  1.
        -15    1    1    2    0    0  0.25397637977E+01  0.42264783486E+01 -0.15435134447E+02  0.16300755313E+02  0.17770000000E+01 0.  1.
         15    1    1    2    0    0 -0.21062676525E+01  0.24729304981E+01  0.55777547944E+01  0.66948357873E+01  0.17770000000E+01 0. -1.
</event>
<event>
 6    1  0.8353910E-003  0.1973353E+03  0.7546771E-02  0.1057223E+00
        -11   -1    0    0    0    0  0.00000000000E+00  0.00000000000E+00  0.18250000000E+03  0.18250000000E+03  0.00000000000E+00 0. -1.
         11   -1    0    0    0    0 -0.00000000000E+00 -0.00000000000E+00 -0.18250000000E+03  0.18250000000E+03  0.00000000000E+00 0.  1.
        -11    1    1    2    0    0  0.65644585156E+01 -0.37552344080E+01  0.16749408544E+03  0.16766473260E+03  0.00000000000E+00 0. -1.
         11    1    1    2    0    0 -0.35996805550E+01  0.17529843318E+01 -0.15695186388E+03  0.15700292427E+03  0.00000000000E+00 0.  1.
        -15    1    1    2    0    0 -0.30295271004E+01  0.75157885293E+00  0.14631003644E+02  0.15065420732E+02  0.17770000000E+01 0.  1.
         15    1    1    2    0    0  0.64749139840E-01  0.12506712232E+01 -0.25173225207E+02  0.25266922394E+02  0.17770000000E+01 0. -1.
</event>
<event>
 6    1  0.8353910E-003  0.1856590E+03  0.7546771E-02  0.1065968E+00
        -11   -1    0    0    0    0  0.00000000000E+00  0.00000000000E+00  0.18250000000E+03  0.18250000000E+03  0.00000000000E+00 0.  1.
         11   -1    0    0    0    0 -0.00000000000E+00 -0.00000000000E+00 -0.18250000000E+03  0.18250000000E+03  0.00000000000E+00 0. -1.
        -11    1    1    2    0    0  0.13260547098E+02 -0.13507838062E+02  0.17833925788E+03  0.17934100117E+03  0.00000000000E+00 0.  1.
         11    1    1    2    0    0 -0.21830518128E+01 -0.53634484686E+01 -0.12311713321E+03  0.12325323843E+03  0.00000000000E+00 0. -1.
        -15    1    1    2    0    0 -0.14677948370E+02  0.67329753667E+01 -0.32470855551E+02  0.36308254087E+02  0.17770000000E+01 0. -1.
         15    1    1    2    0    0  0.36004530843E+01  0.12138311164E+02 -0.22751269119E+02  0.26097506315E+02  0.17770000000E+01 0.  1.
</event>
<event>
 6    1  0.8353910E-003  0.1830421E+03  0.7546771E-02  0.1068024E+00
        -11   -1    0    0    0    0  0.00000000000E+00  0.00000000000E+00  0.18250000000E+03  0.18250000000E+03  0.00000000000E+00 0. -1.
         11   -1    0    0    0    0 -0.00000000000E+00 -0.00000000000E+00 -0.18250000000E+03  0.18250000000E+03  0.00000000000E+00 0. -1.
        -11    1    1    2    0    0  0.94871631715E+00 -0.39022721156E+01  0.18191356781E+03  0.18195789057E+03  0.00000000000E+00 0. -1.
         11    1    1    2    0    0 -0.41507204532E+01 -0.46018286725E+01 -0.11842454734E+03  0.11858658743E+03  0.00000000000E+00 0. -1.
        -15    1    1    2    0    0  0.11310505030E+01  0.79808969324E+01 -0.50763611284E+02  0.51430301872E+02  0.17770000000E+01 0. -1.
         15    1    1    2    0    0  0.20709536331E+01  0.52320385568E+00 -0.12725409186E+02  0.13025220120E+02  0.17770000000E+01 0.  1.
</event>
<event>
 6    1  0.8353910E-003  0.1780608E+03  0.7546771E-02  0.1072044E+00
        -11   -1    0    0    0    0  0.00000000000E+00  0.00000000000E+00  0.18250000000E+03  0.18250000000E+03  0.00000000000E+00 0. -1.
         11   -1    0    0    0    0 -0.00000000000E+00 -0.00000000000E+00 -0.18250000000E+03  0.18250000000E+03  0.00000000000E+00 0. -1.
        -11    1    1    2    0    0  0.13424507749E+01 -0.27343886547E+01  0.17818993431E+03  0.17821596939E+03  0.00000000000E+00 0. -1.
         11    1    1    2    0    0  0.61016235281E+01  0.40549308444E+01 -0.17783527023E+03  0.17798611073E+03  0.00000000000E+00 0. -1.
        -15    1    1    2    0    0 -0.15022271964E+01 -0.48861943454E-01  0.57948852900E+00  0.23984599214E+01  0.17770000000E+01 0. -1.
         15    1    1    2    0    0 -0.59418471065E+01 -0.12716802462E+01 -0.93415260868E+00  0.63994599602E+01  0.17770000000E+01 0.  1.
</event>
<event>
 6    1  0.8353910E-003  0.1833213E+03  0.7546771E-02  0.1067803E+00
        -11   -1    0    0    0    0  0.00000000000E+00  0.00000000000E+00  0.18250000000E+03  0.18250000000E+03  0.00000000000E+00 0. -1.
         11   -1    0    0    0    0 -0.00000000000E+00 -0.00000000000E+00 -0.18250000000E+03  0.18250000000E+03  0.00000000000E+00 0. -1.
        -11    1    1    2    0    0 -0.29844778266E+01 -0.50974033232E+01  0.18158262116E+03  0.18167866946E+03  0.00000000000E+00 0. -1.
         11    1    1    2    0    0 -0.40694646269E+00 -0.48953872855E+01 -0.11580869720E+03  0.11591283263E+03  0.00000000000E+00 0. -1.
        -15    1    1    2    0    0  0.11235600312E+01  0.99229487833E+01 -0.60957745921E+02  0.61795888346E+02  0.17770000000E+01 0. -1.
         15    1    1    2    0    0  0.22678642580E+01  0.69841825340E-01 -0.48161780450E+01  0.56126095655E+01  0.17770000000E+01 0.  1.
</event>
<event>
 6    1  0.8353910E-003  0.1838611E+03  0.7546771E-02  0.1067377E+00
        -11   -1    0    0    0    0  0.00000000000E+00  0.00000000000E+00  0.18250000000E+03  0.18250000000E+03  0.00000000000E+00 0.  1.
         11   -1    0    0    0    0 -0.00000000000E+00 -0.00000000000E+00 -0.18250000000E+03  0.18250000000E+03  0.00000000000E+00 0. -1.
        -11    1    1    2    0    0  0.24488891875E+01 -0.47008311507E+00  0.10101654455E+03  0.10104731718E+03  0.00000000000E+00 0.  1.
         11    1    1    2    0    0 -0.20130692246E+02  0.26525237247E+01 -0.17999731889E+03  0.18113893965E+03  0.00000000000E+00 0. -1.
        -15    1    1    2    0    0  0.17586394704E+02 -0.40073865847E+01  0.41982459664E+02  0.45727727632E+02  0.17770000000E+01 0.  1.
         15    1    1    2    0    0  0.95408353674E-01  0.18249459750E+01  0.36998314671E+02  0.37086015532E+02  0.17770000000E+01 0. -1.
</event>
<event>
 6    1  0.8353910E-003  0.1870675E+03  0.7546771E-02  0.1064876E+00
        -11   -1    0    0    0    0  0.00000000000E+00  0.00000000000E+00  0.18250000000E+03  0.18250000000E+03  0.00000000000E+00 0.  1.
         11   -1    0    0    0    0 -0.00000000000E+00 -0.00000000000E+00 -0.18250000000E+03  0.18250000000E+03  0.00000000000E+00 0.  1.
        -11    1    1    2    0    0 -0.18603904632E+01 -0.16504660359E+01  0.16630508231E+03  0.16632367689E+03  0.00000000000E+00 0.  1.
         11    1    1    2    0    0  0.36828694540E+01 -0.90842015309E+00 -0.17789201996E+03  0.17793245775E+03  0.00000000000E+00 0.  1.
        -15    1    1    2    0    0 -0.29024247359E+01  0.36236781487E+00 -0.37700778880E+01  0.50918165778E+01  0.17770000000E+01 0.  1.
         15    1    1    2    0    0  0.10799457451E+01  0.21965183741E+01  0.15357015540E+02  0.15652048782E+02  0.17770000000E+01 0.  1.
</event>
<event>
 6    1  0.8353910E-003  0.1741555E+03  0.7546771E-02  0.1075298E+00
        -11   -1    0    0    0    0  0.00000000000E+00  0.00000000000E+00  0.18250000000E+03  0.18250000000E+03  0.00000000000E+00 0.  1.
         11   -1    0    0    0    0 -0.00000000000E+00 -0.00000000000E+00 -0.18250000000E+03  0.18250000000E+03  0.00000000000E+00 0. -1.
        -11    1    1    2    0    0  0.44492322278E+01  0.58531332147E+01  0.17190785053E+03  0.17206499908E+03  0.00000000000E+00 0.  1.
         11    1    1    2    0    0  0.80455580083E+01  0.13340255529E+01 -0.17638434544E+03  0.17657278370E+03  0.00000000000E+00 0. -1.
        -15    1    1    2    0    0 -0.82173912741E+01 -0.30603717257E+01  0.47941609536E+01  0.10150522287E+02  0.17770000000E+01 0. -1.
         15    1    1    2    0    0 -0.42773989620E+01 -0.41267870419E+01 -0.31766604444E+00  0.62116949286E+01  0.17770000000E+01 0.  1.
</event>
<event>
 6    1  0.8353910E-003  0.1862132E+03  0.7546771E-02  0.1065537E+00
        -11   -1    0    0    0    0  0.00000000000E+00  0.00000000000E+00  0.18250000000E+03  0.18250000000E+03  0.00000000000E+00 0.  1.
         11   -1    0    0    0    0 -0.00000000000E+00 -0.00000000000E+00 -0.18250000000E+03  0.18250000000E+03  0.00000000000E+00 0.  1.
        -11    1    1    2    0    0 -0.64719917624E+00 -0.17671998342E+01  0.12228137393E+03  0.12229585550E+03  0.00000000000E+00 0.  1.
         11    1    1    2    0    0  0.10211689654E+01 -0.71431830764E+01 -0.17864111323E+03  0.17878678695E+03  0.00000000000E+00 0.  1.
        -15    1    1    2    0    0 -0.47594750005E+01  0.38190049883E+01  0.56606567405E+02  0.56962255957E+02  0.17770000000E+01 0.  1.
         15    1    1    2    0    0  0.43855052113E+01  0.50913779222E+01 -0.24682810810E+00  0.69551015967E+01  0.17770000000E+01 0. -1.
</event>
<event>
 6    1  0.8353910E-003  0.1930556E+03  0.7546771E-02  0.1060350E+00
        -11   -1    0    0    0    0  0.00000000000E+00  0.00000000000E+00  0.18250000000E+03  0.18250000000E+03  0.00000000000E+00 0. -1.
         11   -1    0    0    0    0 -0.00000000000E+00 -0.00000000000E+00 -0.18250000000E+03  0.18250000000E+03  0.00000000000E+00 0. -1.
        -11    1    1    2    0    0 -0.12277621108E+02 -0.25526994124E+01  0.60613012931E+02  0.61896636346E+02  0.00000000000E+00 0. -1.
         11    1    1    2    0    0  0.51089852270E+01 -0.36235868665E+01 -0.17183024369E+03  0.17194436530E+03  0.00000000000E+00 0. -1.
        -15    1    1    2    0    0 -0.10522886826E+02  0.68499163766E+01  0.11260020865E+03  0.11331203475E+03  0.17770000000E+01 0. -1.
         15    1    1    2    0    0  0.17691522707E+02 -0.67363009765E+00 -0.13829778889E+01  0.17846963609E+02  0.17770000000E+01 0.  1.
</event>
<event>
 6    1  0.8353910E-003  0.1827036E+03  0.7546771E-02  0.1068293E+00
        -11   -1    0    0    0    0  0.00000000000E+00  0.00000000000E+00  0.18250000000E+03  0.18250000000E+03  0.00000000000E+00 0. -1.
         11   -1    0    0    0    0 -0.00000000000E+00 -0.00000000000E+00 -0.18250000000E+03  0.18250000000E+03  0.00000000000E+00 0. -1.
        -11    1    1    2    0    0  0.56459792435E+00 -0.20075661622E+01  0.11731048006E+03  0.11732901528E+03  0.00000000000E+00 0. -1.
         11    1    1    2    0    0 -0.35336035895E+01 -0.15710608723E+01 -0.18225535255E+03  0.18229637440E+03  0.00000000000E+00 0. -1.
        -15    1    1    2    0    0  0.92995642491E+00 -0.23065289602E+00  0.84887186491E+01  0.87254852596E+01  0.17770000000E+01 0.  1.
         15    1    1    2    0    0  0.20390492402E+01  0.38092799304E+01  0.56456153837E+02  0.56649125063E+02  0.17770000000E+01 0. -1.
</event>
<event>
 6    1  0.8353910E-003  0.1831574E+03  0.7546771E-02  0.1067933E+00
        -11   -1    0    0    0    0  0.00000000000E+00  0.00000000000E+00  0.18250000000E+03  0.18250000000E+03  0.00000000000E+00 0.  1.
         11   -1    0    0    0    0 -0.00000000000E+00 -0.00000000000E+00 -0.18250000000E+03  0.18250000000E+03  0.00000000000E+00 0.  1.
        -11    1    1    2    0    0 -0.23209011950E+01  0.12968069366E+01  0.18182313822E+03  0.18184257445E+03  0.00000000000E+00 0.  1.
         11    1    1    2    0    0  0.28911308500E+01  0.21341551643E+00 -0.36114021287E+02  0.36230190688E+02  0.00000000000E+00 0.  1.
        -15    1    1    2    0    0 -0.61863795962E+01 -0.31351857215E+01 -0.12787580347E+03  0.12807606929E+03  0.17770000000E+01 0.  1.
         15    1    1    2    0    0  0.56161499411E+01  0.16249632685E+01 -0.17833313457E+02  0.18851165578E+02  0.17770000000E+01 0. -1.
</event>
<event>
 6    1  0.8353910E-003  0.1825704E+03  0.7546771E-02  0.1068399E+00
        -11   -1    0    0    0    0  0.00000000000E+00  0.00000000000E+00  0.18250000000E+03  0.18250000000E+03  0.00000000000E+00 0.  1.
         11   -1    0    0    0    0 -0.00000000000E+00 -0.00000000000E+00 -0.18250000000E+03  0.18250000000E+03  0.00000000000E+00 0. -1.
        -11    1    1    2    0    0 -0.76034246521E+00  0.45713907769E+01  0.18237069868E+03  0.18242956852E+03  0.00000000000E+00 0.  1.
         11    1    1    2    0    0  0.68125032324E+00  0.17786804884E+00 -0.26880704597E+02  0.26889924111E+02  0.00000000000E+00 0. -1.
        -15    1    1    2    0    0 -0.94165756084E+00 -0.32007380735E+01 -0.13132367281E+03  0.13137806595E+03  0.17770000000E+01 0. -1.
         15    1    1    2    0    0  0.10207497028E+01 -0.15485207522E+01 -0.24166321265E+02  0.24302441420E+02  0.17770000000E+01 0.  1.
</event>
<event>
 6    1  0.8353910E-003  0.1838638E+03  0.7546771E-02  0.1067374E+00
        -11   -1    0    0    0    0  0.00000000000E+00  0.00000000000E+00  0.18250000000E+03  0.18250000000E+03  0.00000000000E+00 0.  1.
         11   -1    0    0    0    0 -0.00000000000E+00 -0.00000000000E+00 -0.18250000000E+03  0.18250000000E+03  0.00000000000E+00 0. -1.
        -11    1    1    2    0    0 -0.20114494640E+00  0.46516171583E+01  0.18107635549E+03  0.18113620433E+03  0.00000000000E+00 0.  1.
         11    1    1    2    0    0  0.57879262311E+01 -0.42925868373E+01 -0.15291737524E+03  0.15308706687E+03  0.00000000000E+00 0. -1.
        -15    1    1    2    0    0 -0.57664512538E+01  0.10650199730E+01 -0.27796552648E+02  0.28463877033E+02  0.17770000000E+01 0.  1.
         15    1    1    2    0    0  0.17966996909E+00 -0.14240502940E+01 -0.36242760371E+00  0.23128517690E+01  0.17770000000E+01 0. -1.
</event>
<event>
 6    1  0.8353910E-003  0.1851422E+03  0.7546771E-02  0.1066371E+00
        -11   -1    0    0    0    0  0.00000000000E+00  0.00000000000E+00  0.18250000000E+03  0.18250000000E+03  0.00000000000E+00 0.  1.
         11   -1    0    0    0    0 -0.00000000000E+00 -0.00000000000E+00 -0.18250000000E+03  0.18250000000E+03  0.00000000000E+00 0.  1.
        -11    1    1    2    0    0  0.64115401549E+00 -0.46090667010E+01  0.59561303471E+02  0.59742810827E+02  0.00000000000E+00 0.  1.
         11    1    1    2    0    0 -0.24741344159E+01  0.25930912634E+00 -0.17984062025E+03  0.17985782517E+03  0.00000000000E+00 0.  1.
        -15    1    1    2    0    0  0.12177093035E+02 -0.10006648931E+02  0.37238991375E+02  0.40476101903E+02  0.17770000000E+01 0. -1.
         15    1    1    2    0    0 -0.10344112635E+02  0.14356406506E+02  0.83040325403E+02  0.84923262102E+02  0.17770000000E+01 0.  1.
</event>
<event>
 6    1  0.8353910E-003  0.1828125E+03  0.7546771E-02  0.1068206E+00
        -11   -1    0    0    0    0  0.00000000000E+00  0.00000000000E+00  0.18250000000E+03  0.18250000000E+03  0.00000000000E+00 0.  1.
         11   -1    0    0    0    0 -0.00000000000E+00 -0.00000000000E+00 -0.18250000000E+03  0.18250000000E+03  0.00000000000E+00 0. -1.
        -11    1    1    2    0    0  0.37721375422E+01  0.56742538702E+01  0.18206001444E+03  0.18218747223E+03  0.00000000000E+00 0.  1.
         11    1    1    2    0    0 -0.55718933125E+00  0.23489187569E+00 -0.34516430914E+02  0.34521727031E+02  0.00000000000E+00 0. -1.
        -15    1    1    2    0    0 -0.43793379359E+01 -0.38845172716E+01 -0.14084197086E+03  0.14097477278E+03  0.17770000000E+01 0. -1.
         15    1    1    2    0    0  0.11643897250E+01 -0.20246284743E+01 -0.67016126590E+01  0.73160279607E+01  0.17770000000E+01 0.  1.
</event>
<event>
 6    1  0.8353910E-003  0.1898071E+03  0.7546771E-02  0.1062783E+00
        -11   -1    0    0    0    0  0.00000000000E+00  0.00000000000E+00  0.18250000000E+03  0.18250000000E+03  0.00000000000E+00 0. -1.
         11   -1    0    0    0    0 -0.00000000000E+00 -0.00000000000E+00 -0.18250000000E+03  0.18250000000E+03  0.00000000000E+00 0. -1.
        -11    1    1    2    0    0  0.17359676159E+01 -0.43798256495E+01  0.17512958134E+03  0.17519294140E+03  0.00000000000E+00 0. -1.
         11    1    1    2    0    0  0.11187900303E+01 -0.23328842551E+01 -0.16030382418E+03  0.16032470205E+03  0.00000000000E+00 0. -1.
        -15    1    1    2    0    0  0.51356724285E+01  0.27355392784E+01  0.48651411119E+01  0.77900984252E+01  0.17770000000E+01 0.  1.
         15    1    1    2    0    0 -0.79904300747E+01  0.39771706262E+01 -0.19690898269E+02  0.21692258126E+02  0.17770000000E+01 0. -1.
</event>
<event>
 6    1  0.8353910E-003  0.1849666E+03  0.7546771E-02  0.1066508E+00
        -11   -1    0    0    0    0  0.00000000000E+00  0.00000000000E+00  0.18250000000E+03  0.18250000000E+03  0.00000000000E+00 0.  1.
         11   -1    0    0    0    0 -0.00000000000E+00 -0.00000000000E+00 -0.18250000000E+03  0.18250000000E+03  0.00000000000E+00 0.  1.
        -11    1    1    2    0    0 -0.87642859891E+01  0.32961733996E+01  0.17978975803E+03  0.18003342623E+03  0.00000000000E+00 0.  1.
         11    1    1    2    0    0  0.20908767830E+01 -0.16942243274E+01 -0.16366734494E+03  0.16368946808E+03  0.00000000000E+00 0.  1.
        -15    1    1    2    0    0  0.19664501254E+01  0.24554823463E-01 -0.15755391503E+02  0.15976783764E+02  0.17770000000E+01 0.  1.
         15    1    1    2    0    0  0.47069590807E+01 -0.16265038957E+01 -0.36702158639E+00  0.53003219294E+01  0.17770000000E+01 0. -1.
</event>
<event>
 6    1  0.8353910E-003  0.1765056E+03  0.7546771E-02  0.1073329E+00
        -11   -1    0    0    0    0  0.00000000000E+00  0.00000000000E+00  0.18250000000E+03  0.18250000000E+03  0.00000000000E+00 0.  1.
         11   -1    0    0    0    0 -0.00000000000E+00 -0.00000000000E+00 -0.18250000000E+03  0.18250000000E+03  0.00000000000E+00 0. -1.
        -11    1    1    2    0    0 -0.47178184072E+01  0.13758525050E+02  0.68178102413E+01  0.16063541283E+02  0.00000000000E+00 0.  1.
         11    1    1    2    0    0  0.44695066705E+01  0.13758655664E+01 -0.17524641069E+03  0.17530879600E+03  0.00000000000E+00 0. -1.
        -15    1    1    2    0    0 -0.11155726343E+02 -0.74611288481E+01  0.14979148426E+03  0.15040201182E+03  0.17770000000E+01 0.  1.
         15    1    1    2    0    0  0.11404038080E+02 -0.76732617682E+01  0.18637116188E+02  0.23225650895E+02  0.17770000000E+01 0. -1.
</event>
<event>
 6    1  0.8353910E-003  0.1831608E+03  0.7546771E-02  0.1067930E+00
        -11   -1    0    0    0    0  0.00000000000E+00  0.00000000000E+00  0.18250000000E+03  0.18250000000E+03  0.00000000000E+00 0.  1.
         11   -1    0    0    0    0 -0.00000000000E+00 -0.00000000000E+00 -0.18250000000E+03  0.18250000000E+03  0.00000000000E+00 0.  1.
        -11    1    1    2    0    0 -0.46209043310E-01  0.45344121468E+01  0.18178260315E+03  0.18183915375E+03  0.00000000000E+00 0.  1.
         11    1    1    2    0    0 -0.26724585852E+00 -0.28497952224E+01 -0.17192894841E+03  0.17195277275E+03  0.00000000000E+00 0.  1.
        -15    1    1    2    0    0 -0.76421604111E+00 -0.51460787787E+00 -0.14476267992E+01  0.24702630984E+01  0.17770000000E+01 0. -1.
         15    1    1    2    0    0  0.10776709429E+01 -0.11700090465E+01 -0.84060279435E+01  0.87378104018E+01  0.17770000000E+01 0.  1.
</event>
<event>
 6    1  0.8353910E-003  0.1863146E+03  0.7546771E-02  0.1065458E+00
        -11   -1    0    0    0    0  0.00000000000E+00  0.00000000000E+00  0.18250000000E+03  0.18250000000E+03  0.00000000000E+00 0. -1.
         11   -1    0    0    0    0 -0.00000000000E+00 -0.00000000000E+00 -0.18250000000E+03  0.18250000000E+03  0.00000000000E+00 0.  1.
        -11    1    1    2    0    0 -0.28154135979E+01 -0.21760886835E+01  0.16053919662E+03  0.16057862736E+03  0.00000000000E+00 0. -1.
         11    1    1    2    0    0  0.11555225552E+02  0.76473315186E+01 -0.17814734624E+03  0.17868542719E+03  0.00000000000E+00 0.  1.
        -15    1    1    2    0    0 -0.17184207241E+00  0.43785571277E+01  0.84744166907E+01  0.97043680612E+01  0.17770000000E+01 0. -1.
         15    1    1    2    0    0 -0.85679698812E+01 -0.98497999628E+01  0.91337329349E+01  0.16031577387E+02  0.17770000000E+01 0. -1.
</event>
<event>
 6    1  0.8353910E-003  0.1956243E+03  0.7546771E-02  0.1058463E+00
        -11   -1    0    0    0    0  0.00000000000E+00  0.00000000000E+00  0.18250000000E+03  0.18250000000E+03  0.00000000000E+00 0.  1.
         11   -1    0    0    0    0 -0.00000000000E+00 -0.00000000000E+00 -0.18250000000E+03  0.18250000000E+03  0.00000000000E+00 0.  1.
        -11    1    1    2    0    0 -0.33713562085E+01 -0.10318402703E+01  0.12503977044E+03  0.12508946770E+03  0.00000000000E+00 0.  1.
         11    1    1    2    0    0 -0.71777991474E+00  0.38162434752E+01 -0.16933121275E+03  0.16937573184E+03  0.00000000000E+00 0.  1.
        -15    1    1    2    0    0  0.38652728907E+01 -0.39840347858E+01 -0.12452979463E+02  0.13749447051E+02  0.17770000000E+01 0.  1.
         15    1    1    2    0    0  0.22386323250E+00  0.11996315809E+01  0.56744421777E+02  0.56785353415E+02  0.17770000000E+01 0. -1.
</event>
<event>
 6    1  0.8353910E-003  0.1837093E+03  0.7546771E-02  0.1067496E+00
        -11   -1    0    0    0    0  0.00000000000E+00  0.00000000000E+00  0.18250000000E+03  0.18250000000E+03  0.00000000000E+00 0.  1.
         11   -1    0    0    0    0 -0.00000000000E+00 -0.00000000000E+00 -0.18250000000E+03  0.18250000000E+03  0.00000000000E+00 0. -1.
        -11    1    1    2    0    0 -0.10262217957E+02 -0.58052710386E+01  0.68722781472E+02  0.69726859836E+02  0.00000000000E+00 0.  1.
         11    1    1    2    0    0  0.10674987336E+00  0.27059931273E+01 -0.18127047365E+03  0.18129070139E+03  0.00000000000E+00 0. -1.
        -15    1    1    2    0    0  0.73199682635E+01  0.74355953995E+01  0.95298741522E+02  0.95884711393E+02  0.17770000000E+01 0.  1.
         15    1    1    2    0    0  0.28354998206E+01 -0.43363174882E+01  0.17248950655E+02  0.18097727379E+02  0.17770000000E+01 0. -1.
</event>
<event>
 6    1  0.8353910E-003  0.1492050E+03  0.7546771E-02  0.1098558E+00
        -11   -1    0    0    0    0  0.00000000000E+00  0.00000000000E+00  0.18250000000E+03  0.18250000000E+03  0.00000000000E+00 0.  1.
         11   -1    0    0    0    0 -0.00000000000E+00 -0.00000000000E+00 -0.18250000000E+03  0.18250000000E+03  0.00000000000E+00 0. -1.
        -11    1    1    2    0    0  0.39971289548E+01 -0.48956127546E+01  0.22616241200E+02  0.23482726208E+02  0.00000000000E+00 0.  1.
         11    1    1    2    0    0  0.19660602640E+01 -0.46596984130E+01 -0.14330360002E+03  0.14339281698E+03  0.00000000000E+00 0. -1.
        -15    1    1    2    0    0 -0.26525177485E+02 -0.48805870613E+01  0.15400465745E+03  0.15635855402E+03  0.17770000000E+01 0.  1.
         15    1    1    2    0    0  0.20561988266E+02  0.14435898229E+02 -0.33317298632E+02  0.41765902795E+02  0.17770000000E+01 0. -1.
</event>
<event>
 6    1  0.8353910E-003  0.1905576E+03  0.7546771E-02  0.1062216E+00
        -11   -1    0    0    0    0  0.00000000000E+00  0.00000000000E+00  0.18250000000E+03  0.18250000000E+03  0.00000000000E+00 0.  1.
         11   -1    0    0    0    0 -0.00000000000E+00 -0.00000000000E+00 -0.18250000000E+03  0.18250000000E+03  0.00000000000E+00 0.  1.
        -11    1    1    2    0    0 -0.19705728699E+02 -0.54595352959E+00  0.17332498061E+03  0.17444243381E+03  0.00000000000E+00 0.  1.
         11    1    1    2    0    0  0.14062089995E+02  0.78423676951E+01 -0.13670951795E+03  0.13765441295E+03  0.00000000000E+00 0.  1.
        -15    1    1    2    0    0 -0.15406206126E+02 -0.61376123480E+01 -0.12635651691E+02  0.20924600240E+02  0.17770000000E+01 0.  1.
         15    1    1    2    0    0  0.21049844830E+02 -0.11588018175E+01 -0.23979810966E+02  0.31978553001E+02  0.17770000000E+01 0. -1.
</event>
<event>
 6    1  0.8353910E-003  0.1874094E+03  0.7546771E-02  0.1064613E+00
        -11   -1    0    0    0    0  0.00000000000E+00  0.00000000000E+00  0.18250000000E+03  0.18250000000E+03  0.00000000000E+00 0. -1.
         11   -1    0    0    0    0 -0.00000000000E+00 -0.00000000000E+00 -0.18250000000E+03  0.18250000000E+03  0.00000000000E+00 0. -1.
        -11    1    1    2    0    0 -0.25257312665E+01 -0.23781171253E+01  0.16526830768E+03  0.16530471343E+03  0.00000000000E+00 0. -1.
         11    1    1    2    0    0  0.14255765690E+00 -0.65474612647E+01 -0.17746980281E+03  0.17759059795E+03  0.00000000000E+00 0. -1.
        -15    1    1    2    0    0 -0.84077791641E+00  0.89313184112E+01 -0.22144769107E+00  0.91477934032E+01  0.17770000000E+01 0.  1.
         15    1    1    2    0    0  0.32239515260E+01 -0.57400212565E-02  0.12422942819E+02  0.12956895218E+02  0.17770000000E+01 0.  1.
</event>
<event>
 6    1  0.8353910E-003  0.1854108E+03  0.7546771E-02  0.1066161E+00
        -11   -1    0    0    0    0  0.00000000000E+00  0.00000000000E+00  0.18250000000E+03  0.18250000000E+03  0.00000000000E+00 0. -1.
         11   -1    0    0    0    0 -0.00000000000E+00 -0.00000000000E+00 -0.18250000000E+03  0.18250000000E+03  0.00000000000E+00 0. -1.
        -11    1    1    2    0    0  0.77386009404E+00 -0.23434404845E+01  0.16441602016E+03  0.16443454095E+03  0.00000000000E+00 0. -1.
         11    1    1    2    0    0  0.11184010819E+00 -0.25145522216E+01 -0.17957153477E+03  0.17958917446E+03  0.00000000000E+00 0. -1.
        -15    1    1    2    0    0 -0.33529471362E+01 -0.11579094756E+01  0.13450393980E+02  0.14023331846E+02  0.17770000000E+01 0.  1.
         15    1    1    2    0    0  0.24672469340E+01  0.60159021817E+01  0.17051206341E+01  0.69529527447E+01  0.17770000000E+01 0. -1.
</event>
<event>
 6    1  0.8353910E-003  0.1826779E+03  0.7546771E-02  0.1068313E+00
        -11   -1    0    0    0    0  0.00000000000E+00  0.00000000000E+00  0.18250000000E+03  0.18250000000E+03  0.00000000000E+00 0. -1.
         11   -1    0    0    0    0 -0.00000000000E+00 -0.00000000000E+00 -0.18250000000E+03  0.18250000000E+03  0.00000000000E+00 0.  1.
        -11    1    1    2    0    0 -0.31045544931E+00 -0.44760565272E+01  0.18226684121E+03  0.18232205810E+03  0.00000000000E+00 0. -1.
         11    1    1    2    0    0 -0.37199008654E+01  0.26220718028E-01 -0.65371323413E+02  0.65477082058E+02  0.00000000000E+00 0.  1.
        -15    1    1    2    0    0  0.41510030915E+01  0.12328844747E+01 -0.56526596957E+02  0.56720055742E+02  0.17770000000E+01 0. -1.
         15    1    1    2    0    0 -0.12064677682E+00  0.32169513345E+01 -0.60368920844E+02  0.60480804098E+02  0.17770000000E+01 0.  1.
</event>
<event>
 6    1  0.8353910E-003  0.1825868E+03  0.7546771E-02  0.1068386E+00
        -11   -1    0    0    0    0  0.00000000000E+00  0.00000000000E+00  0.18250000000E+03  0.18250000000E+03  0.00000000000E+00 0.  1.
         11   -1    0    0    0    0 -0.00000000000E+00 -0.00000000000E+00 -0.18250000000E+03  0.18250000000E+03  0.00000000000E+00 0. -1.
        -11    1    1    2    0    0 -0.10391630580E+01 -0.25520968832E+01  0.18239238665E+03  0.18241320064E+03  0.00000000000E+00 0.  1.
         11    1    1    2    0    0 -0.15440332122E+01 -0.15722141495E+00 -0.99820895451E+02  0.99832960118E+02  0.00000000000E+00 0. -1.
        -15    1    1    2    0    0  0.14512510849E+01  0.22835910437E+01 -0.57166978377E+02  0.57258554501E+02  0.17770000000E+01 0. -1.
         15    1    1    2    0    0  0.11319451853E+01  0.42572725446E+00 -0.25404512821E+02  0.25495284746E+02  0.17770000000E+01 0.  1.
</event>
<event>
 6    1  0.1103341E-002  0.1827430E+03  0.7546771E-02  0.1068262E+00
        -11   -1    0    0    0    0  0.00000000000E+00  0.00000000000E+00  0.18250000000E+03  0.18250000000E+03  0.00000000000E+00 0.  1.
         11   -1    0    0    0    0 -0.00000000000E+00 -0.00000000000E+00 -0.18250000000E+03  0.18250000000E+03  0.00000000000E+00 0.  1.
        -11    1    1    2    0    0  0.24717166132E+01  0.47515649920E+01  0.18217823682E+03  0.18225695247E+03  0.00000000000E+00 0.  1.
         11    1    1    2    0    0  0.49510938925E+00  0.40316765214E+00 -0.24597360063E+01  0.25412553362E+01  0.00000000000E+00 0.  1.
        -15    1    1    2    0    0 -0.11922156807E+01 -0.55803101259E+01 -0.17135072127E+03  0.17145491725E+03  0.17770000000E+01 0.  1.
         15    1    1    2    0    0 -0.17746103217E+01  0.42557748169E+00 -0.83677795379E+01  0.87468749495E+01  0.17770000000E+01 0. -1.
</event>
<event>
 6    1  0.8353910E-003  0.1878333E+03  0.7546771E-02  0.1064287E+00
        -11   -1    0    0    0    0  0.00000000000E+00  0.00000000000E+00  0.18250000000E+03  0.18250000000E+03  0.00000000000E+00 0.  1.
         11   -1    0    0    0    0 -0.00000000000E+00 -0.00000000000E+00 -0.18250000000E+03  0.18250000000E+03  0.00000000000E+00 0. -1.
        -11    1    1    2    0    0  0.26948208952E+01  0.35603874320E+01  0.17199724805E+03  0.17205519973E+03  0.00000000000E+00 0.  1.
         11    1    1    2    0    0  0.84999443284E+00 -0.10416308847E+02 -0.17685820271E+03  0.17716671766E+03  0.00000000000E+00 0. -1.
        -15    1    1    2    0    0 -0.53742891745E+01  0.90043293835E+01  0.10094358268E+01  0.10683521024E+02  0.17770000000E+01 0.  1.
         15    1    1    2    0    0  0.18294738464E+01 -0.21484079684E+01  0.38515188343E+01  0.50945615792E+01  0.17770000000E+01 0. -1.
</event>
<event>
 6    1  0.8353910E-003  0.1829276E+03  0.7546771E-02  0.1068115E+00
        -11   -1    0    0    0    0  0.00000000000E+00  0.00000000000E+00  0.18250000000E+03  0.18250000000E+03  0.00000000000E+00 0.  1.
         11   -1    0    0    0    0 -0.00000000000E+00 -0.00000000000E+00 -0.18250000000E+03  0.18250000000E+03  0.00000000000E+00 0. -1.
        -11    1    1    2    0    0 -0.90476453476E-01 -0.29631064859E+01  0.72002444928E+02  0.72063446085E+02  0.00000000000E+00 0.  1.
         11    1    1    2    0    0 -0.54138782464E+01  0.27777539884E+01 -0.18197069125E+03  0.18207239898E+03  0.00000000000E+00 0. -1.
        -15    1    1    2    0    0  0.47599318289E+01 -0.11495212023E+01  0.15217351133E+02  0.16084273516E+02  0.17770000000E+01 0. -1.
         15    1    1    2    0    0  0.74442287093E+00  0.13348736998E+01  0.94750895193E+02  0.94779881420E+02  0.17770000000E+01 0.  1.
</event>
<event>
 6    1  0.8353910E-003  0.1833935E+03  0.7546771E-02  0.1067746E+00
        -11   -1    0    0    0    0  0.00000000000E+00  0.00000000000E+00  0.18250000000E+03  0.18250000000E+03  0.00000000000E+00 0. -1.
         11   -1    0    0    0    0 -0.00000000000E+00 -0.00000000000E+00 -0.18250000000E+03  0.18250000000E+03  0.00000000000E+00 0.  1.
        -11    1    1    2    0    0 -0.62795532041E+01  0.33325530412E+01  0.18146734302E+03  0.18160653976E+03  0.00000000000E+00 0. -1.
         11    1    1    2    0    0 -0.28881751157E+00  0.21480906883E+01 -0.79080836406E+02  0.79110532774E+02  0.00000000000E+00 0.  1.
        -15    1    1    2    0    0 -0.75368471096E+00 -0.37611889602E+01 -0.86630700197E+02  0.86733791158E+02  0.17770000000E+01 0.  1.
         15    1    1    2    0    0  0.73220554266E+01 -0.17194547693E+01 -0.15755806420E+02  0.17549136312E+02  0.17770000000E+01 0.  1.
</event>
<event>
 6    1  0.8353910E-003  0.1911335E+03  0.7546771E-02  0.1061783E+00
        -11   -1    0    0    0    0  0.00000000000E+00  0.00000000000E+00  0.18250000000E+03  0.18250000000E+03  0.00000000000E+00 0.  1.
         11   -1    0    0    0    0 -0.00000000000E+00 -0.00000000000E+00 -0.18250000000E+03  0.18250000000E+03  0.00000000000E+00 0.  1.
        -11    1    1    2    0    0 -0.25414405302E+01 -0.34150830348E+01  0.17381437351E+03  0.17386649520E+03  0.00000000000E+00 0.  1.
         11    1    1    2    0    0  0.34479729506E+01  0.22612097347E+01 -0.17272377914E+03  0.17277298824E+03  0.00000000000E+00 0.  1.
        -15    1    1    2    0    0 -0.95573142720E+00 -0.75584598152E+01 -0.42758158538E+01  0.89153837582E+01  0.17770000000E+01 0.  1.
         15    1    1    2    0    0  0.49199006788E-01  0.87123331154E+01  0.31852214774E+01  0.94451328056E+01  0.17770000000E+01 0. -1.
</event>
<event>
 6    1  0.8353910E-003  0.1847775E+03  0.7546771E-02  0.1066656E+00
        -11   -1    0    0    0    0  0.00000000000E+00  0.00000000000E+00  0.18250000000E+03  0.18250000000E+03  0.00000000000E+00 0.  1.
         11   -1    0    0    0    0 -0.00000000000E+00 -0.00000000000E+00 -0.18250000000E+03  0.18250000000E+03  0.00000000000E+00 0. -1.
        -11    1    1    2    0    0  0.23440473613E+01  0.39588989622E+01  0.16770462649E+03  0.16776772391E+03  0.00000000000E+00 0.  1.
         11    1    1    2    0    0  0.40037792777E+01 -0.37296795595E+00 -0.18017760150E+03  0.18022246651E+03  0.00000000000E+00 0. -1.
        -15    1    1    2    0    0 -0.68820950775E+01 -0.46981143831E+01  0.66817235631E+01  0.10827680739E+02  0.17770000000E+01 0.  1.
         15    1    1    2    0    0  0.53426843850E+00  0.11121833768E+01  0.57912514513E+01  0.61821288405E+01  0.17770000000E+01 0. -1.
</event>
<event>
 6    1  0.8353910E-003  0.1828526E+03  0.7546771E-02  0.1068175E+00
        -11   -1    0    0    0    0  0.00000000000E+00  0.00000000000E+00  0.18250000000E+03  0.18250000000E+03  0.00000000000E+00 0. -1.
         11   -1    0    0    0    0 -0.00000000000E+00 -0.00000000000E+00 -0.18250000000E+03  0.18250000000E+03  0.00000000000E+00 0.  1.
        -11    1    1    2    0    0  0.18375442353E+01  0.31683632137E+01  0.18211060998E+03  0.18214743853E+03  0.00000000000E+00 0. -1.
         11    1    1    2    0    0  0.29636159020E+01 -0.69946664728E-01 -0.14864959870E+03  0.14867915492E+03  0.00000000000E+00 0.  1.
        -15    1    1    2    0    0 -0.29954891903E+01 -0.20574327916E+01 -0.23358870343E+02  0.23706550527E+02  0.17770000000E+01 0. -1.
         15    1    1    2    0    0 -0.18056709469E+01 -0.10409837574E+01 -0.10102140933E+02  0.10466856032E+02  0.17770000000E+01 0.  1.
</event>
<event>
 6    1  0.8353910E-003  0.1592622E+03  0.7546771E-02  0.1088621E+00
        -11   -1    0    0    0    0  0.00000000000E+00  0.00000000000E+00  0.18250000000E+03  0.18250000000E+03  0.00000000000E+00 0. -1.
         11   -1    0    0    0    0 -0.00000000000E+00 -0.00000000000E+00 -0.18250000000E+03  0.18250000000E+03  0.00000000000E+00 0.  1.
        -11    1    1    2    0    0  0.75584085782E+01 -0.30161862070E+01  0.15624610272E+03  0.15645789061E+03  0.00000000000E+00 0. -1.
         11    1    1    2    0    0  0.12600043104E+01 -0.24991905860E+01 -0.16226904039E+03  0.16229317618E+03  0.00000000000E+00 0.  1.
        -15    1    1    2    0    0 -0.11715879172E+02  0.18977204560E+01  0.24411648902E+02  0.27202012772E+02  0.17770000000E+01 0. -1.
         15    1    1    2    0    0  0.28974662836E+01  0.36176563370E+01 -0.18388711231E+02  0.19046920432E+02  0.17770000000E+01 0.  1.
</event>
<event>
 6    1  0.8353910E-003  0.1831934E+03  0.7546771E-02  0.1067904E+00
        -11   -1    0    0    0    0  0.00000000000E+00  0.00000000000E+00  0.18250000000E+03  0.18250000000E+03  0.00000000000E+00 0. -1.
         11   -1    0    0    0    0 -0.00000000000E+00 -0.00000000000E+00 -0.18250000000E+03  0.18250000000E+03  0.00000000000E+00 0.  1.
        -11    1    1    2    0    0  0.10406385264E+02 -0.19420122476E+01  0.18149813590E+03  0.18180659394E+03  0.00000000000E+00 0. -1.
         11    1    1    2    0    0 -0.72459676769E+01 -0.33250834513E+01 -0.69948273215E+02  0.70401144545E+02  0.00000000000E+00 0.  1.
        -15    1    1    2    0    0  0.37682528696E+01  0.21239310143E+01 -0.84693188241E+02  0.84822194478E+02  0.17770000000E+01 0. -1.
         15    1    1    2    0    0 -0.69286704565E+01  0.31431646846E+01 -0.26856674445E+02  0.27970067032E+02  0.17770000000E+01 0.  1.
</event>
<event>
 6    1  0.8353910E-003  0.1857361E+03  0.7546771E-02  0.1065908E+00
        -11   -1    0    0    0    0  0.00000000000E+00  0.00000000000E+00  0.18250000000E+03  0.18250000000E+03  0.00000000000E+00 0. -1.
         11   -1    0    0    0    0 -0.00000000000E+00 -0.00000000000E+00 -0.18250000000E+03  0.18250000000E+03  0.00000000000E+00 0. -1.
        -11    1    1    2    0    0  0.24549341400E+01 -0.14660828135E+01  0.17924106052E+03  0.17926386663E+03  0.00000000000E+00 0. -1.
         11    1    1    2    0    0 -0.12719916299E+01 -0.46748913596E+01 -0.16547507848E+03  0.16554598809E+03  0.00000000000E+00 0. -1.
        -15    1    1    2    0    0  0.13516470451E+00  0.60722176991E+01 -0.15901439762E+02  0.17114427037E+02  0.17770000000E+01 0.  1.
         15    1    1    2    0    0 -0.13181072146E+01  0.68756473898E-01  0.21354577236E+01  0.30757182529E+01  0.17770000000E+01 0. -1.
</event>
<event>
 6    1  0.8353910E-003  0.2014055E+03  0.7546771E-02  0.1054329E+00
        -11   -1    0    0    0    0  0.00000000000E+00  0.00000000000E+00  0.18250000000E+03  0.18250000000E+03  0.00000000000E+00 0.  1.
         11   -1    0    0    0    0 -0.00000000000E+00 -0.00000000000E+00 -0.18250000000E+03  0.18250000000E+03  0.00000000000E+00 0. -1.
        -11    1    1    2    0    0  0.22817713123E+01 -0.75650248637E-01  0.45820649245E+02  0.45877490129E+02  0.00000000000E+00 0.  1.
         11    1    1    2    0    0 -0.18554265572E+01 -0.58329459174E+01 -0.16347994491E+03  0.16359449334E+03  0.00000000000E+00 0. -1.
        -15    1    1    2    0    0 -0.13799461451E+02 -0.22372713933E+01  0.13287611186E+03  0.13362129079E+03  0.17770000000E+01 0.  1.
         15    1    1    2    0    0  0.13373116696E+02  0.81458675593E+01 -0.15216816198E+02  0.21906725740E+02  0.17770000000E+01 0. -1.
</event>
<event>
 6    1  0.8353910E-003  0.1847701E+03  0.7546771E-02  0.1066662E+00
        -11   -1    0    0    0    0  0.00000000000E+00  0.00000000000E+00  0.18250000000E+03  0.18250000000E+03  0.00000000000E+00 0.  1.
         11   -1    0    0    0    0 -0.00000000000E+00 -0.00000000000E+00 -0.18250000000E+03  0.18250000000E+03  0.00000000000E+00 0.  1.
        -11    1    1    2    0    0  0.48112092553E+01  0.44514950232E+01  0.16816174554E+03  0.16828944175E+03  0.00000000000E+00 0.  1.
         11    1    1    2    0    0  0.47719241842E+00  0.31724865749E+01 -0.18020134450E+03  0.18022990025E+03  0.00000000000E+00 0.  1.
        -15    1    1    2    0    0 -0.45267756160E+01 -0.19145657253E+01  0.55576250612E+01  0.76290356347E+01  0.17770000000E+01 0. -1.
         15    1    1    2    0    0 -0.76162605774E+00 -0.57094158728E+01  0.64819738997E+01  0.88516223652E+01  0.17770000000E+01 0.  1.
</event>
<event>
 6    1  0.8353910E-003  0.1863326E+03  0.7546771E-02  0.1065444E+00
        -11   -1    0    0    0    0  0.00000000000E+00  0.00000000000E+00  0.18250000000E+03  0.18250000000E+03  0.00000000000E+00 0. -1.
         11   -1    0    0    0    0 -0.00000000000E+00 -0.00000000000E+00 -0.18250000000E+03  0.18250000000E+03  0.00000000000E+00 0.  1.
        -11    1    1    2    0    0 -0.28970623509E+01  0.71653063626E+00  0.17864244449E+03  0.17866737072E+03  0.00000000000E+00 0. -1.
         11    1    1    2    0    0  0.85302637699E+00 -0.20086316186E+01 -0.14280480487E+03  0.14282147790E+03  0.00000000000E+00 0.  1.
        -15    1    1    2    0    0  0.47338418423E+01  0.22540825365E+01  0.17246734574E+01  0.57984803357E+01  0.17770000000E+01 0. -1.
         15    1    1    2    0    0 -0.26898058684E+01 -0.96198155414E+00 -0.37562313080E+02  0.37712671041E+02  0.17770000000E+01 0.  1.
</event>
<event>
 6    1  0.8353910E-003  0.1831227E+03  0.7546771E-02  0.1067960E+00
        -11   -1    0    0    0    0  0.00000000000E+00  0.00000000000E+00  0.18250000000E+03  0.18250000000E+03  0.00000000000E+00 0.  1.
         11   -1    0    0    0    0 -0.00000000000E+00 -0.00000000000E+00 -0.18250000000E+03  0.18250000000E+03  0.00000000000E+00 0. -1.
        -11    1    1    2    0    0 -0.23040474545E+01  0.69308496753E+00  0.11877659702E+03  0.11880096381E+03  0.00000000000E+00 0.  1.
         11    1    1    2    0    0 -0.63438564404E+01 -0.33769099138E+01 -0.18173521082E+03  0.18187725225E+03  0.00000000000E+00 0. -1.
        -15    1    1    2    0    0  0.24825512096E+01 -0.31734557342E+00  0.43599790675E+02  0.43707702349E+02  0.17770000000E+01 0.  1.
         15    1    1    2    0    0  0.61653526853E+01  0.30011705196E+01  0.19358823119E+02  0.20614081590E+02  0.17770000000E+01 0.  1.
</event>
<event>
 6    1  0.8353910E-003  0.1763604E+03  0.7546771E-02  0.1073450E+00
        -11   -1    0    0    0    0  0.00000000000E+00  0.00000000000E+00  0.18250000000E+03  0.18250000000E+03  0.00000000000E+00 0. -1.
         11   -1    0    0    0    0 -0.00000000000E+00 -0.00000000000E+00 -0.18250000000E+03  0.18250000000E+03  0.00000000000E+00 0. -1.
        -11    1    1    2    0    0  0.40299319111E+01  0.24636605876E+01  0.17843121430E+03  0.17849372037E+03  0.00000000000E+00 0. -1.
         11    1    1    2    0    0  0.17443923537E+01  0.20644597347E+01 -0.17430664469E+03  0.17432759759E+03  0.00000000000E+00 0. -1.
        -15    1    1    2    0    0 -0.47072470432E+01 -0.61283132116E+01 -0.83339234209E+00  0.79728708343E+01  0.17770000000E+01 0.  1.
         15    1    1    2    0    0 -0.10670772216E+01  0.16001928893E+01 -0.32911772717E+01  0.42058112075E+01  0.17770000000E+01 0. -1.
</event>
<event>
 6    1  0.8353910E-003  0.1830577E+03  0.7546771E-02  0.1068012E+00
        -11   -1    0    0    0    0  0.00000000000E+00  0.00000000000E+00  0.18250000000E+03  0.18250000000E+03  0.00000000000E+00 0.  1.
         11   -1    0    0    0    0 -0.00000000000E+00 -0.00000000000E+00 -0.18250000000E+03  0.18250000000E+03  0.00000000000E+00 0. -1.
        -11    1    1    2    0    0  0.36954075380E+01  0.54091929757E+01  0.18182433141E+03  0.18194230651E+03  0.00000000000E+00 0.  1.
         11    1    1    2    0    0 -0.28579048977E+01 -0.33129130059E+01 -0.11139309099E+03  0.11147898337E+03  0.00000000000E+00 0. -1.
        -15    1    1    2    0    0 -0.31038873454E+01 -0.51891333849E+00 -0.56034760271E+01  0.66678377524E+01  0.17770000000E+01 0.  1.
         15    1    1    2    0    0  0.22663847051E+01 -0.15773666314E+01 -0.64827764398E+02  0.64910872363E+02  0.17770000000E+01 0. -1.
</event>
<event>
 6    1  0.8353910E-003  0.1877974E+03  0.7546771E-02  0.1064315E+00
        -11   -1    0    0    0    0  0.00000000000E+00  0.00000000000E+00  0.18250000000E+03  0.18250000000E+03  0.00000000000E+00 0. -1.
         11   -1    0    0    0    0 -0.00000000000E+00 -0.00000000000E+00 -0.18250000000E+03  0.18250000000E+03  0.00000000000E+00 0.  1.
        -11    1    1    2    0    0  0.45838759324E+01 -0.23409793958E+00  0.17714318484E+03  0.17720263727E+03  0.00000000000E+00 0. -1.
         11    1    1    2    0    0 -0.14165631852E+01  0.16883095714E-01 -0.22646064707E+02  0.22690332369E+02  0.00000000000E+00 0.  1.
        -15    1    1    2    0    0  0.85070607954E+01 -0.45403853158E+01 -0.15177077485E+03  0.15208718226E+03  0.17770000000E+01 0.  1.
         15    1    1    2    0    0 -0.11674373543E+02  0.47576001596E+01 -0.27263452873E+01  0.13019848099E+02  0.17770000000E+01 0. -1.
</event>
<event>
 6    1  0.8353910E-003  0.1916763E+03  0.7546771E-02  0.1061376E+00
        -11   -1    0    0    0    0  0.00000000000E+00  0.00000000000E+00  0.18250000000E+03  0.18250000000E+03  0.00000000000E+00 0.  1.
         11   -1    0    0    0    0 -0.00000000000E+00 -0.00000000000E+00 -0.18250000000E+03  0.18250000000E+03  0.00000000000E+00 0. -1.
        -11    1    1    2    0    0 -0.33434234917E+00  0.44583869008E+01  0.15896469949E+03  0.15902755950E+03  0.00000000000E+00 0.  1.
         11    1    1    2    0    0 -0.39121077033E+01 -0.27306729121E+00 -0.17327929407E+03  0.17332366516E+03  0.00000000000E+00 0. -1.
        -15    1    1    2    0    0 -0.11503660146E+02  0.28435948237E+01  0.52258030479E+01  0.13072374489E+02  0.17770000000E+01 0.  1.
         15    1    1    2    0    0  0.15750110199E+02 -0.70289144333E+01  0.90887915346E+01  0.19576400842E+02  0.17770000000E+01 0. -1.
</event>
<event>
 6    1  0.8353910E-003  0.1745652E+03  0.7546771E-02  0.1074952E+00
        -11   -1    0    0    0    0  0.00000000000E+00  0.00000000000E+00  0.18250000000E+03  0.18250000000E+03  0.00000000000E+00 0.  1.
         11   -1    0    0    0    0 -0.00000000000E+00 -0.00000000000E+00 -0.18250000000E+03  0.18250000000E+03  0.00000000000E+00 0. -1.
        -11    1    1    2    0    0  0.48159520626E+01 -0.26884673865E+01  0.17336039375E+03  0.17344811147E+03  0.00000000000E+00 0.  1.
         11    1    1    2    0    0  0.40012873651E+01 -0.31124309757E+01 -0.17577697981E+03  0.17585006159E+03  0.00000000000E+00 0. -1.
        -15    1    1    2    0    0 -0.39359684007E+01  0.38928180945E+01 -0.41284682993E+01  0.71307685047E+01  0.17770000000E+01 0.  1.
         15    1    1    2    0    0 -0.48812710270E+01  0.19080802677E+01  0.65450543623E+01  0.85710584383E+01  0.17770000000E+01 0.  1.
</event>
<event>
 6    1  0.8353910E-003  0.1999316E+03  0.7546771E-02  0.1055368E+00
        -11   -1    0    0    0    0  0.00000000000E+00  0.00000000000E+00  0.18250000000E+03  0.18250000000E+03  0.00000000000E+00 0.  1.
         11   -1    0    0    0    0 -0.00000000000E+00 -0.00000000000E+00 -0.18250000000E+03  0.18250000000E+03  0.00000000000E+00 0.  1.
        -11    1    1    2    0    0 -0.57547860754E+01 -0.31516925300E+01  0.16493796338E+03  0.16506841761E+03  0.00000000000E+00 0.  1.
         11    1    1    2    0    0  0.42731947147E+01  0.12670687291E+02 -0.15240032604E+03  0.15298583557E+03  0.00000000000E+00 0.  1.
        -15    1    1    2    0    0  0.73409788360E+01 -0.25858305972E+02 -0.31235609614E+01  0.27119297928E+02  0.17770000000E+01 0.  1.
         15    1    1    2    0    0 -0.58593874754E+01  0.16339311211E+02 -0.94140763834E+01  0.19826448890E+02  0.17770000000E+01 0. -1.
</event>
<event>
 6    1  0.8353910E-003  0.1853391E+03  0.7546771E-02  0.1066217E+00
        -11   -1    0    0    0    0  0.00000000000E+00  0.00000000000E+00  0.18250000000E+03  0.18250000000E+03  0.00000000000E+00 0. -1.
         11   -1    0    0    0    0 -0.00000000000E+00 -0.00000000000E+00 -0.18250000000E+03  0.18250000000E+03  0.00000000000E+00 0. -1.
        -11    1    1    2    0    0  0.33783370364E+00 -0.29574322114E+01  0.17963628363E+03  0.17966094437E+03  0.00000000000E+00 0. -1.
         11    1    1    2    0    0 -0.43692747275E+01 -0.41961091305E+01 -0.16692863608E+03  0.16703852081E+03  0.00000000000E+00 0. -1.
        -15    1    1    2    0    0  0.23995777953E+01  0.68024228446E+01 -0.13766064041E+02  0.15642671714E+02  0.17770000000E+01 0.  1.
         15    1    1    2    0    0  0.16318632286E+01  0.35111849735E+00  0.10584164893E+01  0.26578631005E+01  0.17770000000E+01 0. -1.
</event>
<event>
 6    1  0.8353910E-003  0.1945905E+03  0.7546771E-02  0.1059218E+00
        -11   -1    0    0    0    0  0.00000000000E+00  0.00000000000E+00  0.18250000000E+03  0.18250000000E+03  0.00000000000E+00 0.  1.
         11   -1    0    0    0    0 -0.00000000000E+00 -0.00000000000E+00 -0.18250000000E+03  0.18250000000E+03  0.00000000000E+00 0.  1.
        -11    1    1    2    0    0  0.45017243144E+00 -0.85865901827E+01  0.17019240649E+03  0.17040946985E+03  0.00000000000E+00 0.  1.
         11    1    1    2    0    0 -0.83072099188E+01 -0.17383987713E+01 -0.16015340645E+03  0.16037813244E+03  0.00000000000E+00 0.  1.
        -15    1    1    2    0    0 -0.10146661040E+02  0.64783271200E+01  0.17280132533E+01  0.12290940214E+02  0.17770000000E+01 0.  1.
         15    1    1    2    0    0  0.18003698528E+02  0.38466618340E+01 -0.11767013299E+02  0.21921457500E+02  0.17770000000E+01 0. -1.
</event>
<event>
 6    1  0.8353910E-003  0.1826318E+03  0.7546771E-02  0.1068350E+00
        -11   -1    0    0    0    0  0.00000000000E+00  0.00000000000E+00  0.18250000000E+03  0.18250000000E+03  0.00000000000E+00 0.  1.
         11   -1    0    0    0    0 -0.00000000000E+00 -0.00000000000E+00 -0.18250000000E+03  0.18250000000E+03  0.00000000000E+00 0. -1.
        -11    1    1    2    0    0  0.50794228449E+01  0.17384540896E+00  0.18229741360E+03  0.18236824768E+03  0.00000000000E+00 0.  1.
         11    1    1    2    0    0 -0.44798810966E-01  0.15436268781E+01 -0.81031982759E+02  0.81046696544E+02  0.00000000000E+00 0. -1.
        -15    1    1    2    0    0 -0.36428200912E+01 -0.18755710324E+01 -0.35377387936E+02  0.35658171730E+02  0.17770000000E+01 0.  1.
         15    1    1    2    0    0 -0.13918039427E+01  0.15809874538E+00 -0.65888042901E+02  0.65926884044E+02  0.17770000000E+01 0. -1.
</event>
<event>
 6    1  0.8353910E-003  0.1825404E+03  0.7546771E-02  0.1068423E+00
        -11   -1    0    0    0    0  0.00000000000E+00  0.00000000000E+00  0.18250000000E+03  0.18250000000E+03  0.00000000000E+00 0.  1.
         11   -1    0    0    0    0 -0.00000000000E+00 -0.00000000000E+00 -0.18250000000E+03  0.18250000000E+03  0.00000000000E+00 0. -1.
        -11    1    1    2    0    0 -0.88629818130E+00 -0.60288517223E+00  0.69198512296E+02  0.69206813963E+02  0.00000000000E+00 0.  1.
         11    1    1    2    0    0  0.21448800547E+01  0.19335761101E+01 -0.18243676482E+03  0.18245961851E+03  0.00000000000E+00 0. -1.
        -15    1    1    2    0    0 -0.13774715576E+01 -0.57844176835E+00  0.38245046234E+02  0.38315444839E+02  0.17770000000E+01 0. -1.
         15    1    1    2    0    0  0.11888968419E+00 -0.75224916953E+00  0.74993206291E+02  0.75018122693E+02  0.17770000000E+01 0.  1.
</event>
<event>
 6    1  0.8353910E-003  0.1912504E+03  0.7546771E-02  0.1061695E+00
        -11   -1    0    0    0    0  0.00000000000E+00  0.00000000000E+00  0.18250000000E+03  0.18250000000E+03  0.00000000000E+00 0. -1.
         11   -1    0    0    0    0 -0.00000000000E+00 -0.00000000000E+00 -0.18250000000E+03  0.18250000000E+03  0.00000000000E+00 0. -1.
        -11    1    1    2    0    0 -0.78782636750E+01 -0.90678552824E+01  0.15464809196E+03  0.15511391100E+03  0.00000000000E+00 0. -1.
         11    1    1    2    0    0 -0.18747497206E+01 -0.29163115464E+01 -0.17371496494E+03  0.17374955713E+03  0.00000000000E+00 0. -1.
        -15    1    1    2    0    0  0.92464924658E+01  0.70260787259E+01  0.25339376108E+02  0.27930361897E+02  0.17770000000E+01 0.  1.
         15    1    1    2    0    0  0.50652092979E+00  0.49580881029E+01 -0.62725031284E+01  0.82061699705E+01  0.17770000000E+01 0. -1.
</event>
<event>
 6    1  0.8353910E-003  0.1829638E+03  0.7546771E-02  0.1068086E+00
        -11   -1    0    0    0    0  0.00000000000E+00  0.00000000000E+00  0.18250000000E+03  0.18250000000E+03  0.00000000000E+00 0.  1.
         11   -1    0    0    0    0 -0.00000000000E+00 -0.00000000000E+00 -0.18250000000E+03  0.18250000000E+03  0.00000000000E+00 0.  1.
        -11    1    1    2    0    0 -0.16791346790E+01 -0.18132668947E+01  0.16860906685E+03  0.16862717709E+03  0.00000000000E+00 0.  1.
         11    1    1    2    0    0  0.16195162768E+01  0.21772937374E+01 -0.18201598641E+03  0.18203621274E+03  0.00000000000E+00 0.  1.
        -15    1    1    2    0    0 -0.11371988070E+01 -0.13794353273E+01  0.88208075268E+01  0.91738997909E+01  0.17770000000E+01 0. -1.
         15    1    1    2    0    0  0.11968172092E+01  0.10154084846E+01  0.45861120383E+01  0.51627103783E+01  0.17770000000E+01 0. -1.
</event>
<event>
 6    1  0.8353910E-003  0.1869678E+03  0.7546771E-02  0.1064953E+00
        -11   -1    0    0    0    0  0.00000000000E+00  0.00000000000E+00  0.18250000000E+03  0.18250000000E+03  0.00000000000E+00 0.  1.
         11   -1    0    0    0    0 -0.00000000000E+00 -0.00000000000E+00 -0.18250000000E+03  0.18250000000E+03  0.00000000000E+00 0.  1.
        -11    1    1    2    0    0 -0.28453741858E+01  0.20559091549E+01  0.17799758097E+03  0.17803219301E+03  0.00000000000E+00 0.  1.
         11    1    1    2    0    0  0.30070406745E+01  0.63802486208E+01 -0.64324815668E+02  0.64710368387E+02  0.00000000000E+00 0.  1.
        -15    1    1    2    0    0 -0.99354020402E+01 -0.23513750755E+02 -0.80764960078E+02  0.84721574546E+02  0.17770000000E+01 0.  1.
         15    1    1    2    0    0  0.97737355515E+01  0.15077592979E+02 -0.32907805225E+02  0.37535864056E+02  0.17770000000E+01 0. -1.
</event>
<event>
 6    1  0.8353910E-003  0.1928545E+03  0.7546771E-02  0.1060499E+00
        -11   -1    0    0    0    0  0.00000000000E+00  0.00000000000E+00  0.18250000000E+03  0.18250000000E+03  0.00000000000E+00 0. -1.
         11   -1    0    0    0    0 -0.00000000000E+00 -0.00000000000E+00 -0.18250000000E+03  0.18250000000E+03  0.00000000000E+00 0. -1.
        -11    1    1    2    0    0  0.92777257724E+01  0.12282817976E+01  0.17189089910E+03  0.17214547936E+03  0.00000000000E+00 0. -1.
         11    1    1    2    0    0 -0.72377014577E+01  0.14194122349E+02 -0.15623716078E+03  0.15704747002E+03  0.00000000000E+00 0. -1.
        -15    1    1    2    0    0 -0.81632498745E+01 -0.64567571775E+01  0.55430857190E+01  0.11925262683E+02  0.17770000000E+01 0. -1.
         15    1    1    2    0    0  0.61232255598E+01 -0.89656469692E+01 -0.21196824033E+02  0.23881787934E+02  0.17770000000E+01 0.  1.
</event>
<event>
 6    1  0.8353910E-003  0.1829330E+03  0.7546771E-02  0.1068111E+00
        -11   -1    0    0    0    0  0.00000000000E+00  0.00000000000E+00  0.18250000000E+03  0.18250000000E+03  0.00000000000E+00 0.  1.
         11   -1    0    0    0    0 -0.00000000000E+00 -0.00000000000E+00 -0.18250000000E+03  0.18250000000E+03  0.00000000000E+00 0.  1.
        -11    1    1    2    0    0 -0.19587185675E+01  0.78638988529E+00  0.16434845484E+02  0.16569825997E+02  0.00000000000E+00 0.  1.
         11    1    1    2    0    0 -0.43555959006E+01  0.47919241422E+00 -0.18201427961E+03  0.18206701739E+03  0.00000000000E+00 0.  1.
        -15    1    1    2    0    0  0.38860492973E+01 -0.95824664812E+00  0.12342258838E+02  0.13096132941E+02  0.17770000000E+01 0.  1.
         15    1    1    2    0    0  0.24282651708E+01 -0.30733565140E+00  0.15323717528E+03  0.15326702367E+03  0.17770000000E+01 0. -1.
</event>
<event>
 6    1  0.8353910E-003  0.1837848E+03  0.7546771E-02  0.1067437E+00
        -11   -1    0    0    0    0  0.00000000000E+00  0.00000000000E+00  0.18250000000E+03  0.18250000000E+03  0.00000000000E+00 0.  1.
         11   -1    0    0    0    0 -0.00000000000E+00 -0.00000000000E+00 -0.18250000000E+03  0.18250000000E+03  0.00000000000E+00 0. -1.
        -11    1    1    2    0    0 -0.37823962280E+01  0.14893764817E+00  0.16975801194E+03  0.16980021002E+03  0.00000000000E+00 0.  1.
         11    1    1    2    0    0  0.49909133089E+00 -0.30515596751E+01 -0.18118876859E+03  0.18121515106E+03  0.00000000000E+00 0. -1.
        -15    1    1    2    0    0  0.26242775253E+01  0.45214316792E+01  0.71886289331E+01  0.90644521013E+01  0.17770000000E+01 0. -1.
         15    1    1    2    0    0  0.65902737180E+00 -0.16188096523E+01  0.42421277227E+01  0.49201868240E+01  0.17770000000E+01 0.  1.
</event>
<event>
 6    1  0.8353910E-003  0.1828093E+03  0.7546771E-02  0.1068209E+00
        -11   -1    0    0    0    0  0.00000000000E+00  0.00000000000E+00  0.18250000000E+03  0.18250000000E+03  0.00000000000E+00 0. -1.
         11   -1    0    0    0    0 -0.00000000000E+00 -0.00000000000E+00 -0.18250000000E+03  0.18250000000E+03  0.00000000000E+00 0.  1.
        -11    1    1    2    0    0  0.95756788975E+00 -0.13103932538E+01  0.11649318665E+03  0.11650449177E+03  0.00000000000E+00 0. -1.
         11    1    1    2    0    0  0.37552823292E+01  0.34158059844E-01 -0.18215199351E+03  0.18219070242E+03  0.00000000000E+00 0.  1.
        -15    1    1    2    0    0 -0.51327461682E+01  0.21136554896E+01  0.60314127128E+02  0.60595084643E+02  0.17770000000E+01 0. -1.
         15    1    1    2    0    0  0.41989594928E+00 -0.83742029568E+00  0.53446797307E+01  0.57097211651E+01  0.17770000000E+01 0. -1.
</event>
<event>
 6    1  0.8353910E-003  0.1868847E+03  0.7546771E-02  0.1065017E+00
        -11   -1    0    0    0    0  0.00000000000E+00  0.00000000000E+00  0.18250000000E+03  0.18250000000E+03  0.00000000000E+00 0.  1.
         11   -1    0    0    0    0 -0.00000000000E+00 -0.00000000000E+00 -0.18250000000E+03  0.18250000000E+03  0.00000000000E+00 0.  1.
        -11    1    1    2    0    0 -0.53678739498E+01 -0.16847682556E+01  0.17802641955E+03  0.17811529573E+03  0.00000000000E+00 0.  1.
         11    1    1    2    0    0  0.27348015379E+01  0.59599583438E+01 -0.17488630313E+03  0.17500919766E+03  0.00000000000E+00 0.  1.
        -15    1    1    2    0    0 -0.22243861522E+00 -0.45787449763E+00 -0.58332143475E+01  0.61190887080E+01  0.17770000000E+01 0.  1.
         15    1    1    2    0    0  0.28555110272E+01 -0.38173155905E+01  0.26930979267E+01  0.57564178954E+01  0.17770000000E+01 0. -1.
</event>
<event>
 6    1  0.8353910E-003  0.1872040E+03  0.7546771E-02  0.1064771E+00
        -11   -1    0    0    0    0  0.00000000000E+00  0.00000000000E+00  0.18250000000E+03  0.18250000000E+03  0.00000000000E+00 0. -1.
         11   -1    0    0    0    0 -0.00000000000E+00 -0.00000000000E+00 -0.18250000000E+03  0.18250000000E+03  0.00000000000E+00 0.  1.
        -11    1    1    2    0    0 -0.10087999641E+02 -0.15457579068E+01  0.17168173261E+03  0.17198480868E+03  0.00000000000E+00 0. -1.
         11    1    1    2    0    0  0.52428278014E+01  0.21590330332E+01 -0.17770561565E+03  0.17779604748E+03  0.00000000000E+00 0.  1.
        -15    1    1    2    0    0  0.64114125566E+01 -0.38835572444E+01 -0.30740494413E+00  0.77097635918E+01  0.17770000000E+01 0.  1.
         15    1    1    2    0    0 -0.15662407167E+01  0.32702821181E+01  0.63312879819E+01  0.75093802423E+01  0.17770000000E+01 0. -1.
</event>
<event>
 6    1  0.8353910E-003  0.1847289E+03  0.7546771E-02  0.1066694E+00
        -11   -1    0    0    0    0  0.00000000000E+00  0.00000000000E+00  0.18250000000E+03  0.18250000000E+03  0.00000000000E+00 0. -1.
         11   -1    0    0    0    0 -0.00000000000E+00 -0.00000000000E+00 -0.18250000000E+03  0.18250000000E+03  0.00000000000E+00 0. -1.
        -11    1    1    2    0    0  0.31564111771E+01  0.28009748487E+01  0.18022172560E+03  0.18027112572E+03  0.00000000000E+00 0. -1.
         11    1    1    2    0    0  0.11938019704E+01 -0.20913793075E+01 -0.16195871659E+03  0.16197661840E+03  0.00000000000E+00 0. -1.
        -15    1    1    2    0    0 -0.23947247309E+01 -0.25663271916E+01  0.26664094964E+00  0.39432940782E+01  0.17770000000E+01 0.  1.
         15    1    1    2    0    0 -0.19554884166E+01  0.18567316503E+01 -0.18529649958E+02  0.18808961798E+02  0.17770000000E+01 0.  1.
</event>
<event>
 6    1  0.8353910E-003  0.1866055E+03  0.7546771E-02  0.1065233E+00
        -11   -1    0    0    0    0  0.00000000000E+00  0.00000000000E+00  0.18250000000E+03  0.18250000000E+03  0.00000000000E+00 0. -1.
         11   -1    0    0    0    0 -0.00000000000E+00 -0.00000000000E+00 -0.18250000000E+03  0.18250000000E+03  0.00000000000E+00 0. -1.
        -11    1    1    2    0    0  0.32781729457E+00 -0.28534886266E+01  0.13997863829E+03  0.14000810348E+03  0.00000000000E+00 0. -1.
         11    1    1    2    0    0  0.34634593531E+01  0.29839934929E+01 -0.17833595336E+03  0.17839454036E+03  0.00000000000E+00 0. -1.
        -15    1    1    2    0    0 -0.25448898053E+01 -0.88513775570E+01  0.26078541036E+01  0.97356037719E+01  0.17770000000E+01 0.  1.
         15    1    1    2    0    0 -0.12463868424E+01  0.87208726908E+01  0.35749460967E+02  0.36861752387E+02  0.17770000000E+01 0. -1.
</event>
<event>
 6    1  0.8353910E-003  0.1842429E+03  0.7546771E-02  0.1067076E+00
        -11   -1    0    0    0    0  0.00000000000E+00  0.00000000000E+00  0.18250000000E+03  0.18250000000E+03  0.00000000000E+00 0.  1.
         11   -1    0    0    0    0 -0.00000000000E+00 -0.00000000000E+00 -0.18250000000E+03  0.18250000000E+03  0.00000000000E+00 0.  1.
        -11    1    1    2    0    0  0.39478522278E+01 -0.21041132240E+01  0.10516421502E+03  0.10525932239E+03  0.00000000000E+00 0.  1.
         11    1    1    2    0    0  0.90828905992E+00  0.22709383441E+01 -0.18074053632E+03  0.18075708456E+03  0.00000000000E+00 0.  1.
        -15    1    1    2    0    0  0.66817686270E+01 -0.12712688862E+01  0.91945419109E+01  0.11574086855E+02  0.17770000000E+01 0. -1.
         15    1    1    2    0    0 -0.11537909915E+02  0.11044437662E+01  0.66381779393E+02  0.67409506196E+02  0.17770000000E+01 0.  1.
</event>
<event>
 6    1  0.8353910E-003  0.1871849E+03  0.7546771E-02  0.1064786E+00
        -11   -1    0    0    0    0  0.00000000000E+00  0.00000000000E+00  0.18250000000E+03  0.18250000000E+03  0.00000000000E+00 0.  1.
         11   -1    0    0    0    0 -0.00000000000E+00 -0.00000000000E+00 -0.18250000000E+03  0.18250000000E+03  0.00000000000E+00 0. -1.
        -11    1    1    2    0    0 -0.33452481710E+01  0.52442484762E+01  0.16521307626E+03  0.16533013457E+03  0.00000000000E+00 0.  1.
         11    1    1    2    0    0 -0.15388879904E+01  0.21013630933E+01 -0.17779606670E+03  0.17781514345E+03  0.00000000000E+00 0. -1.
        -15    1    1    2    0    0 -0.13810898560E+01 -0.41293921059E+01 -0.23438314378E+01  0.52545754504E+01  0.17770000000E+01 0.  1.
         15    1    1    2    0    0  0.62652260174E+01 -0.32162194636E+01  0.14926821877E+02  0.16600146536E+02  0.17770000000E+01 0. -1.
</event>
<event>
 6    1  0.8353910E-003  0.1880442E+03  0.7546771E-02  0.1064125E+00
        -11   -1    0    0    0    0  0.00000000000E+00  0.00000000000E+00  0.18250000000E+03  0.18250000000E+03  0.00000000000E+00 0. -1.
         11   -1    0    0    0    0 -0.00000000000E+00 -0.00000000000E+00 -0.18250000000E+03  0.18250000000E+03  0.00000000000E+00 0.  1.
        -11    1    1    2    0    0  0.27693667431E+01  0.80343071453E+01  0.17675164555E+03  0.17695582411E+03  0.00000000000E+00 0. -1.
         11    1    1    2    0    0  0.93737496603E+01 -0.79948848389E+01 -0.14790612534E+03  0.14841835224E+03  0.00000000000E+00 0.  1.
        -15    1    1    2    0    0 -0.17217886504E+01  0.80996929726E+01 -0.23967959980E+02  0.25420275707E+02  0.17770000000E+01 0. -1.
         15    1    1    2    0    0 -0.10421327753E+02 -0.81391152789E+01 -0.48775602241E+01  0.14205547944E+02  0.17770000000E+01 0.  1.
</event>
<event>
 6    1  0.8353910E-003  0.1880895E+03  0.7546771E-02  0.1064091E+00
        -11   -1    0    0    0    0  0.00000000000E+00  0.00000000000E+00  0.18250000000E+03  0.18250000000E+03  0.00000000000E+00 0. -1.
         11   -1    0    0    0    0 -0.00000000000E+00 -0.00000000000E+00 -0.18250000000E+03  0.18250000000E+03  0.00000000000E+00 0. -1.
        -11    1    1    2    0    0  0.24229970236E+00  0.45726306296E+01  0.17685124101E+03  0.17691051158E+03  0.00000000000E+00 0. -1.
         11    1    1    2    0    0  0.57174667863E+00 -0.38564914824E+01 -0.15642412814E+03  0.15647270460E+03  0.00000000000E+00 0. -1.
        -15    1    1    2    0    0 -0.37201670334E+01 -0.95677952377E+01 -0.16064474324E+01  0.10541382776E+02  0.17770000000E+01 0. -1.
         15    1    1    2    0    0  0.29061206524E+01  0.88516560905E+01 -0.18820665434E+02  0.21075401044E+02  0.17770000000E+01 0.  1.
</event>
<event>
 6    1  0.8353910E-003  0.1843339E+03  0.7546771E-02  0.1067004E+00
        -11   -1    0    0    0    0  0.00000000000E+00  0.00000000000E+00  0.18250000000E+03  0.18250000000E+03  0.00000000000E+00 0.  1.
         11   -1    0    0    0    0 -0.00000000000E+00 -0.00000000000E+00 -0.18250000000E+03  0.18250000000E+03  0.00000000000E+00 0. -1.
        -11    1    1    2    0    0 -0.34514888105E+01  0.97451176790E+00  0.17142460456E+03  0.17146211680E+03  0.00000000000E+00 0.  1.
         11    1    1    2    0    0  0.56211243547E+01  0.69528307872E+00 -0.18057726838E+03  0.18066607405E+03  0.00000000000E+00 0. -1.
        -15    1    1    2    0    0  0.28481052872E+01  0.83707202774E-01  0.43188353308E+01  0.54707200840E+01  0.17770000000E+01 0.  1.
         15    1    1    2    0    0 -0.50177408314E+01 -0.17535020494E+01  0.48338284917E+01  0.74010890668E+01  0.17770000000E+01 0.  1.
</event>
<event>
 6    1  0.8353910E-003  0.1837383E+03  0.7546771E-02  0.1067473E+00
        -11   -1    0    0    0    0  0.00000000000E+00  0.00000000000E+00  0.18250000000E+03  0.18250000000E+03  0.00000000000E+00 0. -1.
         11   -1    0    0    0    0 -0.00000000000E+00 -0.00000000000E+00 -0.18250000000E+03  0.18250000000E+03  0.00000000000E+00 0. -1.
        -11    1    1    2    0    0 -0.20624300832E+01  0.17570210767E+01  0.18124143173E+03  0.18126168188E+03  0.00000000000E+00 0. -1.
         11    1    1    2    0    0 -0.18000970847E+01  0.28156327298E+01 -0.15567353917E+03  0.15570940542E+03  0.00000000000E+00 0. -1.
        -15    1    1    2    0    0 -0.28035372939E+01 -0.55076750993E+00 -0.57417846083E+01  0.66549970470E+01  0.17770000000E+01 0.  1.
         15    1    1    2    0    0  0.66660644618E+01 -0.40218862966E+01 -0.19826107956E+02  0.21373915656E+02  0.17770000000E+01 0.  1.
</event>
<event>
 6    1  0.8353910E-003  0.1834970E+03  0.7546771E-02  0.1067664E+00
        -11   -1    0    0    0    0  0.00000000000E+00  0.00000000000E+00  0.18250000000E+03  0.18250000000E+03  0.00000000000E+00 0.  1.
         11   -1    0    0    0    0 -0.00000000000E+00 -0.00000000000E+00 -0.18250000000E+03  0.18250000000E+03  0.00000000000E+00 0. -1.
        -11    1    1    2    0    0  0.98726165557E+00  0.20371018284E+01  0.11800574775E+03  0.11802745855E+03  0.00000000000E+00 0.  1.
         11    1    1    2    0    0 -0.13060794650E+01  0.57341320873E+01 -0.18140767518E+03  0.18150297719E+03  0.00000000000E+00 0. -1.
        -15    1    1    2    0    0 -0.19500152560E+00 -0.45803615646E+01  0.52207170012E+01  0.71715655658E+01  0.17770000000E+01 0. -1.
         15    1    1    2    0    0  0.51381933504E+00 -0.31908723511E+01  0.58181210425E+02  0.58297998698E+02  0.17770000000E+01 0.  1.
</event>
<event>
 6    1  0.8353910E-003  0.1837979E+03  0.7546771E-02  0.1067426E+00
        -11   -1    0    0    0    0  0.00000000000E+00  0.00000000000E+00  0.18250000000E+03  0.18250000000E+03  0.00000000000E+00 0. -1.
         11   -1    0    0    0    0 -0.00000000000E+00 -0.00000000000E+00 -0.18250000000E+03  0.18250000000E+03  0.00000000000E+00 0.  1.
        -11    1    1    2    0    0 -0.42865662262E+00  0.37649334088E+01  0.18116249870E+03  0.18120212307E+03  0.00000000000E+00 0. -1.
         11    1    1    2    0    0  0.32628653374E+01 -0.39251849137E+01 -0.14163917331E+02  0.15055561132E+02  0.00000000000E+00 0.  1.
        -15    1    1    2    0    0 -0.37746714479E+01 -0.89658767409E+00 -0.44054838821E+01  0.61333539954E+01  0.17770000000E+01 0. -1.
         15    1    1    2    0    0  0.94046273310E+00  0.10568391789E+01 -0.16259309749E+03  0.16260896180E+03  0.17770000000E+01 0.  1.
</event>
<event>
 6    1  0.8353910E-003  0.1834767E+03  0.7546771E-02  0.1067680E+00
        -11   -1    0    0    0    0  0.00000000000E+00  0.00000000000E+00  0.18250000000E+03  0.18250000000E+03  0.00000000000E+00 0. -1.
         11   -1    0    0    0    0 -0.00000000000E+00 -0.00000000000E+00 -0.18250000000E+03  0.18250000000E+03  0.00000000000E+00 0.  1.
        -11    1    1    2    0    0 -0.61836125252E+01 -0.86052528947E+01  0.18121376711E+03  0.18152332311E+03  0.00000000000E+00 0. -1.
         11    1    1    2    0    0  0.65791304745E+01  0.26983933504E+01 -0.11606480457E+03  0.11628243695E+03  0.00000000000E+00 0.  1.
        -15    1    1    2    0    0  0.14760676019E+01 -0.15646679276E+01 -0.50256931333E+02  0.50334320670E+02  0.17770000000E+01 0.  1.
         15    1    1    2    0    0 -0.18715855513E+01  0.74715274719E+01 -0.14892031212E+02  0.16859919272E+02  0.17770000000E+01 0.  1.
</event>
<event>
 6    1  0.8353910E-003  0.1831968E+03  0.7546771E-02  0.1067901E+00
        -11   -1    0    0    0    0  0.00000000000E+00  0.00000000000E+00  0.18250000000E+03  0.18250000000E+03  0.00000000000E+00 0. -1.
         11   -1    0    0    0    0 -0.00000000000E+00 -0.00000000000E+00 -0.18250000000E+03  0.18250000000E+03  0.00000000000E+00 0. -1.
        -11    1    1    2    0    0  0.31420479812E+00 -0.23389849666E+01  0.10439492620E+03  0.10442159830E+03  0.00000000000E+00 0. -1.
         11    1    1    2    0    0  0.28045193493E+01 -0.13527703466E+01 -0.18177652053E+03  0.18180318681E+03  0.00000000000E+00 0. -1.
        -15    1    1    2    0    0 -0.99195869090E+00  0.45856916597E+00  0.71411565484E+02  0.71442030218E+02  0.17770000000E+01 0.  1.
         15    1    1    2    0    0 -0.21267654565E+01  0.32331861472E+01  0.59700288516E+01  0.73331846737E+01  0.17770000000E+01 0. -1.
</event>
<event>
 6    1  0.8353910E-003  0.1853115E+03  0.7546771E-02  0.1066239E+00
        -11   -1    0    0    0    0  0.00000000000E+00  0.00000000000E+00  0.18250000000E+03  0.18250000000E+03  0.00000000000E+00 0.  1.
         11   -1    0    0    0    0 -0.00000000000E+00 -0.00000000000E+00 -0.18250000000E+03  0.18250000000E+03  0.00000000000E+00 0.  1.
        -11    1    1    2    0    0  0.29992606730E+01 -0.65792472150E+00  0.17966223939E+03  0.17968847679E+03  0.00000000000E+00 0.  1.
         11    1    1    2    0    0 -0.22814059327E+00 -0.19311487981E+01 -0.13281033588E+03  0.13282457115E+03  0.00000000000E+00 0.  1.
        -15    1    1    2    0    0  0.11603135387E+01  0.11482485929E+01  0.21755603501E+01  0.32489373919E+01  0.17770000000E+01 0.  1.
         15    1    1    2    0    0 -0.39314336185E+01  0.14408249267E+01 -0.49027463861E+02  0.49238014668E+02  0.17770000000E+01 0. -1.
</event>
<event>
 6    1  0.8353910E-003  0.1780673E+03  0.7546771E-02  0.1072039E+00
        -11   -1    0    0    0    0  0.00000000000E+00  0.00000000000E+00  0.18250000000E+03  0.18250000000E+03  0.00000000000E+00 0. -1.
         11   -1    0    0    0    0 -0.00000000000E+00 -0.00000000000E+00 -0.18250000000E+03  0.18250000000E+03  0.00000000000E+00 0. -1.
        -11    1    1    2    0    0  0.26572147718E+01  0.18271493920E+01  0.17797326081E+03  0.17800247422E+03  0.00000000000E+00 0. -1.
         11    1    1    2    0    0  0.35999024748E+01  0.19551818621E+01 -0.17816010783E+03  0.17820719979E+03  0.00000000000E+00 0. -1.
        -15    1    1    2    0    0 -0.11703745480E+01 -0.15691476929E+01  0.11555413029E+01  0.28853086087E+01  0.17770000000E+01 0.  1.
         15    1    1    2    0    0 -0.50867426986E+01 -0.22131835612E+01 -0.96869427875E+00  0.59050173888E+01  0.17770000000E+01 0. -1.
</event>
<event>
 6    1  0.1021906E-002  0.1608158E+03  0.7546771E-02  0.1087158E+00
        -11   -1    0    0    0    0  0.00000000000E+00  0.00000000000E+00  0.18250000000E+03  0.18250000000E+03  0.00000000000E+00 0.  1.
         11   -1    0    0    0    0 -0.00000000000E+00 -0.00000000000E+00 -0.18250000000E+03  0.18250000000E+03  0.00000000000E+00 0. -1.
        -11    1    1    2    0    0  0.23088566039E+00 -0.21502609359E+02  0.15704052087E+03  0.15850596428E+03  0.00000000000E+00 0.  1.
         11    1    1    2    0    0 -0.41689541376E+01 -0.22185988110E+00 -0.16390242791E+03  0.16395558934E+03  0.00000000000E+00 0. -1.
        -15    1    1    2    0    0  0.20958878666E+01  0.23767850338E+02  0.18629499268E+02  0.30323578740E+02  0.17770000000E+01 0.  1.
         15    1    1    2    0    0  0.18421806106E+01 -0.20433810982E+01 -0.11767592227E+02  0.12214867643E+02  0.17770000000E+01 0. -1.
</event>
<event>
 6    1  0.8353910E-003  0.1828281E+03  0.7546771E-02  0.1068194E+00
        -11   -1    0    0    0    0  0.00000000000E+00  0.00000000000E+00  0.18250000000E+03  0.18250000000E+03  0.00000000000E+00 0.  1.
         11   -1    0    0    0    0 -0.00000000000E+00 -0.00000000000E+00 -0.18250000000E+03  0.18250000000E+03  0.00000000000E+00 0. -1.
        -11    1    1    2    0    0 -0.42523418191E+01  0.31495847235E+01  0.18209504704E+03  0.18217192004E+03  0.00000000000E+00 0.  1.
         11    1    1    2    0    0  0.50957111738E+00  0.88234118056E+00 -0.31368780107E+02  0.31385323865E+02  0.00000000000E+00 0. -1.
        -15    1    1    2    0    0  0.62339141517E+01 -0.22661314302E+01 -0.35259778379E+02  0.35922231802E+02  0.17770000000E+01 0. -1.
         15    1    1    2    0    0 -0.24911434500E+01 -0.17657944738E+01 -0.11546648855E+03  0.11552052429E+03  0.17770000000E+01 0. -1.
</event>
<event>
 6    1  0.8353910E-003  0.1834715E+03  0.7546771E-02  0.1067684E+00
        -11   -1    0    0    0    0  0.00000000000E+00  0.00000000000E+00  0.18250000000E+03  0.18250000000E+03  0.00000000000E+00 0. -1.
         11   -1    0    0    0    0 -0.00000000000E+00 -0.00000000000E+00 -0.18250000000E+03  0.18250000000E+03  0.00000000000E+00 0. -1.
        -11    1    1    2    0    0 -0.30487208035E+01 -0.59908832848E+01  0.73243265705E+02  0.73551079885E+02  0.00000000000E+00 0. -1.
         11    1    1    2    0    0 -0.78878868826E+01  0.89584766621E+01 -0.18113566511E+03  0.18152851632E+03  0.00000000000E+00 0. -1.
        -15    1    1    2    0    0  0.84047691202E+01 -0.95180293295E+01  0.51848667255E+02  0.53410439535E+02  0.17770000000E+01 0. -1.
         15    1    1    2    0    0  0.25318385659E+01  0.65504359523E+01  0.56043732151E+02  0.56509964255E+02  0.17770000000E+01 0.  1.
</event>
<event>
 6    1  0.8353910E-003  0.1832382E+03  0.7546771E-02  0.1067869E+00
        -11   -1    0    0    0    0  0.00000000000E+00  0.00000000000E+00  0.18250000000E+03  0.18250000000E+03  0.00000000000E+00 0. -1.
         11   -1    0    0    0    0 -0.00000000000E+00 -0.00000000000E+00 -0.18250000000E+03  0.18250000000E+03  0.00000000000E+00 0.  1.
        -11    1    1    2    0    0  0.62665982131E+00  0.63732839534E+01  0.18164892118E+03  0.18176177271E+03  0.00000000000E+00 0. -1.
         11    1    1    2    0    0  0.10001733147E+01 -0.16840232453E+01 -0.13708347868E+03  0.13709747047E+03  0.00000000000E+00 0.  1.
        -15    1    1    2    0    0  0.28832590520E+01 -0.24199657644E+00 -0.29588745016E+02  0.29782936486E+02  0.17770000000E+01 0.  1.
         15    1    1    2    0    0 -0.45100921880E+01 -0.44472641317E+01 -0.14976697485E+02  0.16357820343E+02  0.17770000000E+01 0. -1.
</event>
<event>
 6    1  0.8353910E-003  0.1831135E+03  0.7546771E-02  0.1067968E+00
        -11   -1    0    0    0    0  0.00000000000E+00  0.00000000000E+00  0.18250000000E+03  0.18250000000E+03  0.00000000000E+00 0. -1.
         11   -1    0    0    0    0 -0.00000000000E+00 -0.00000000000E+00 -0.18250000000E+03  0.18250000000E+03  0.00000000000E+00 0. -1.
        -11    1    1    2    0    0 -0.30943641303E+01 -0.72427454458E-01  0.18186020025E+03  0.18188653817E+03  0.00000000000E+00 0. -1.
         11    1    1    2    0    0  0.29335514866E+01  0.96473445289E+00 -0.15288589164E+03  0.15291707654E+03  0.00000000000E+00 0. -1.
        -15    1    1    2    0    0 -0.28479823171E+01  0.10818250048E+01 -0.20720547136E+02  0.21018566821E+02  0.17770000000E+01 0. -1.
         15    1    1    2    0    0  0.30087949608E+01 -0.19741320033E+01 -0.82537614717E+01  0.91778184616E+01  0.17770000000E+01 0.  1.
</event>
<event>
 6    1  0.8353910E-003  0.1835586E+03  0.7546771E-02  0.1067615E+00
        -11   -1    0    0    0    0  0.00000000000E+00  0.00000000000E+00  0.18250000000E+03  0.18250000000E+03  0.00000000000E+00 0. -1.
         11   -1    0    0    0    0 -0.00000000000E+00 -0.00000000000E+00 -0.18250000000E+03  0.18250000000E+03  0.00000000000E+00 0.  1.
        -11    1    1    2    0    0  0.25249051827E+01 -0.15885744001E+01  0.18141687371E+03  0.18144139765E+03  0.00000000000E+00 0. -1.
         11    1    1    2    0    0 -0.14196737537E+01  0.14422726736E+01 -0.13615808252E+03  0.13617312165E+03  0.00000000000E+00 0.  1.
        -15    1    1    2    0    0 -0.25407907014E+01 -0.50644397527E+01 -0.96918218894E+01  0.11366323413E+02  0.17770000000E+01 0. -1.
         15    1    1    2    0    0  0.14355592724E+01  0.52107414792E+01 -0.35566969302E+02  0.36019157285E+02  0.17770000000E+01 0.  1.
</event>
<event>
 6    1  0.8353910E-003  0.1832297E+03  0.7546771E-02  0.1067875E+00
        -11   -1    0    0    0    0  0.00000000000E+00  0.00000000000E+00  0.18250000000E+03  0.18250000000E+03  0.00000000000E+00 0.  1.
         11   -1    0    0    0    0 -0.00000000000E+00 -0.00000000000E+00 -0.18250000000E+03  0.18250000000E+03  0.00000000000E+00 0.  1.
        -11    1    1    2    0    0 -0.64318864382E+01  0.20290290222E+01  0.18164517860E+03  0.18177034145E+03  0.00000000000E+00 0.  1.
         11    1    1    2    0    0  0.12068345953E+01 -0.11400785440E+01 -0.81542472037E+02  0.81559370858E+02  0.00000000000E+00 0.  1.
        -15    1    1    2    0    0  0.63294405510E+01 -0.37334502451E+01 -0.18418298704E+02  0.19909593782E+02  0.17770000000E+01 0. -1.
         15    1    1    2    0    0 -0.11043887081E+01  0.28444997670E+01 -0.81684407856E+02  0.81760693913E+02  0.17770000000E+01 0.  1.
</event>
<event>
 6    1  0.8353910E-003  0.1859413E+03  0.7546771E-02  0.1065748E+00
        -11   -1    0    0    0    0  0.00000000000E+00  0.00000000000E+00  0.18250000000E+03  0.18250000000E+03  0.00000000000E+00 0.  1.
         11   -1    0    0    0    0 -0.00000000000E+00 -0.00000000000E+00 -0.18250000000E+03  0.18250000000E+03  0.00000000000E+00 0. -1.
        -11    1    1    2    0    0 -0.43941198514E+01 -0.23903338323E+01  0.16834307086E+03  0.16841737289E+03  0.00000000000E+00 0.  1.
         11    1    1    2    0    0 -0.21219791540E+01 -0.42254019631E+01 -0.17899628933E+03  0.17905872895E+03  0.00000000000E+00 0. -1.
        -15    1    1    2    0    0 -0.61103888447E+00 -0.24700017892E+00 -0.99271609597E+00  0.21395307555E+01  0.17770000000E+01 0. -1.
         15    1    1    2    0    0  0.71271378898E+01  0.68627359743E+01  0.11645934566E+02  0.15384367405E+02  0.17770000000E+01 0. -1.
</event>
<event>
 6    1  0.8353910E-003  0.1826206E+03  0.7546771E-02  0.1068359E+00
        -11   -1    0    0    0    0  0.00000000000E+00  0.00000000000E+00  0.18250000000E+03  0.18250000000E+03  0.00000000000E+00 0.  1.
         11   -1    0    0    0    0 -0.00000000000E+00 -0.00000000000E+00 -0.18250000000E+03  0.18250000000E+03  0.00000000000E+00 0.  1.
        -11    1    1    2    0    0  0.14814837014E+01 -0.30819302233E+01  0.12493609108E+03  0.12498287860E+03  0.00000000000E+00 0.  1.
         11    1    1    2    0    0 -0.48459138173E+00  0.31200343106E+01 -0.18235208694E+03  0.18237942059E+03  0.00000000000E+00 0.  1.
        -15    1    1    2    0    0 -0.11529950854E+01  0.48530577552E+00  0.47453574542E+02  0.47503309202E+02  0.17770000000E+01 0.  1.
         15    1    1    2    0    0  0.15610276573E+00 -0.52340986282E+00  0.99624213123E+01  0.10134391613E+02  0.17770000000E+01 0. -1.
</event>
<event>
 6    1  0.8353910E-003  0.1399308E+03  0.7546771E-02  0.1108516E+00
        -11   -1    0    0    0    0  0.00000000000E+00  0.00000000000E+00  0.18250000000E+03  0.18250000000E+03  0.00000000000E+00 0.  1.
         11   -1    0    0    0    0 -0.00000000000E+00 -0.00000000000E+00 -0.18250000000E+03  0.18250000000E+03  0.00000000000E+00 0. -1.
        -11    1    1    2    0    0 -0.21289553693E+02  0.16749532277E+02  0.13450123795E+03  0.13720194947E+03  0.00000000000E+00 0.  1.
         11    1    1    2    0    0 -0.12721622257E+01  0.18689149152E+01 -0.14433846393E+03  0.14435616859E+03  0.00000000000E+00 0. -1.
        -15    1    1    2    0    0  0.64538373697E+00 -0.23012009264E+01 -0.32710062272E+02  0.32845364189E+02  0.17770000000E+01 0. -1.
         15    1    1    2    0    0  0.21916332182E+02 -0.16317246266E+02  0.42547288254E+02  0.50596517753E+02  0.17770000000E+01 0.  1.
</event>
<event>
 6    1  0.8353910E-003  0.2028343E+03  0.7546771E-02  0.1053330E+00
        -11   -1    0    0    0    0  0.00000000000E+00  0.00000000000E+00  0.18250000000E+03  0.18250000000E+03  0.00000000000E+00 0.  1.
         11   -1    0    0    0    0 -0.00000000000E+00 -0.00000000000E+00 -0.18250000000E+03  0.18250000000E+03  0.00000000000E+00 0.  1.
        -11    1    1    2    0    0 -0.11191699747E+00  0.35210121077E+01  0.15247117946E+03  0.15251187042E+03  0.00000000000E+00 0.  1.
         11    1    1    2    0    0  0.56586708575E-01  0.22672298024E+01 -0.16214983689E+03  0.16216569655E+03  0.00000000000E+00 0.  1.
        -15    1    1    2    0    0 -0.17181311699E+02  0.14146742907E+02  0.84766775553E+01  0.23881783811E+02  0.17770000000E+01 0. -1.
         15    1    1    2    0    0  0.17236641988E+02 -0.19934984818E+02  0.12019798772E+01  0.26440649223E+02  0.17770000000E+01 0.  1.
</event>
<event>
 6    1  0.8353910E-003  0.1928939E+03  0.7546771E-02  0.1060470E+00
        -11   -1    0    0    0    0  0.00000000000E+00  0.00000000000E+00  0.18250000000E+03  0.18250000000E+03  0.00000000000E+00 0. -1.
         11   -1    0    0    0    0 -0.00000000000E+00 -0.00000000000E+00 -0.18250000000E+03  0.18250000000E+03  0.00000000000E+00 0.  1.
        -11    1    1    2    0    0  0.68096294287E+01  0.16437058803E+02  0.96098008932E+02  0.97731137698E+02  0.00000000000E+00 0. -1.
         11    1    1    2    0    0  0.33697762105E+01 -0.29904860773E+01 -0.17204712619E+03  0.17210610689E+03  0.00000000000E+00 0.  1.
        -15    1    1    2    0    0 -0.23455956238E+01  0.37349594909E+01 -0.78861815517E+01  0.92087637441E+01  0.17770000000E+01 0. -1.
         15    1    1    2    0    0 -0.78338100154E+01 -0.17181532217E+02  0.83835298808E+02  0.85953991669E+02  0.17770000000E+01 0. -1.
</event>
<event>
 6    1  0.8353910E-003  0.1841054E+03  0.7546771E-02  0.1067184E+00
        -11   -1    0    0    0    0  0.00000000000E+00  0.00000000000E+00  0.18250000000E+03  0.18250000000E+03  0.00000000000E+00 0.  1.
         11   -1    0    0    0    0 -0.00000000000E+00 -0.00000000000E+00 -0.18250000000E+03  0.18250000000E+03  0.00000000000E+00 0. -1.
        -11    1    1    2    0    0  0.57872720689E+01  0.75045916352E+01  0.11244940724E+03  0.11284804209E+03  0.00000000000E+00 0.  1.
         11    1    1    2    0    0  0.17597036500E+01  0.24017366931E+01 -0.18087008081E+03  0.18089458540E+03  0.00000000000E+00 0. -1.
        -15    1    1    2    0    0 -0.56621588995E+00 -0.31345468825E+00  0.10251542006E+00  0.18939621662E+01  0.17770000000E+01 0. -1.
         15    1    1    2    0    0 -0.69807598290E+01 -0.95928736400E+01  0.68318158147E+02  0.69363410341E+02  0.17770000000E+01 0.  1.
</event>
<event>
 6    1  0.8353910E-003  0.1728022E+03  0.7546771E-02  0.1076447E+00
        -11   -1    0    0    0    0  0.00000000000E+00  0.00000000000E+00  0.18250000000E+03  0.18250000000E+03  0.00000000000E+00 0. -1.
         11   -1    0    0    0    0 -0.00000000000E+00 -0.00000000000E+00 -0.18250000000E+03  0.18250000000E+03  0.00000000000E+00 0. -1.
        -11    1    1    2    0    0  0.88669886092E+00 -0.88035012481E+01  0.17270078469E+03  0.17292729369E+03  0.00000000000E+00 0. -1.
         11    1    1    2    0    0  0.30967851405E+01 -0.28315672609E-01 -0.17278520503E+03  0.17281295657E+03  0.00000000000E+00 0. -1.
        -15    1    1    2    0    0 -0.33396199411E+01  0.19073378909E+01 -0.76270358471E+01  0.87247007968E+01  0.17770000000E+01 0.  1.
         15    1    1    2    0    0 -0.64386406037E+00  0.69244790298E+01  0.77114561889E+01  0.10535048947E+02  0.17770000000E+01 0. -1.
</event>
<event>
 6    1  0.8353910E-003  0.1834435E+03  0.7546771E-02  0.1067706E+00
        -11   -1    0    0    0    0  0.00000000000E+00  0.00000000000E+00  0.18250000000E+03  0.18250000000E+03  0.00000000000E+00 0.  1.
         11   -1    0    0    0    0 -0.00000000000E+00 -0.00000000000E+00 -0.18250000000E+03  0.18250000000E+03  0.00000000000E+00 0. -1.
        -11    1    1    2    0    0  0.26545685798E+01 -0.26421614218E+01  0.18151790011E+03  0.18155653613E+03  0.00000000000E+00 0.  1.
         11    1    1    2    0    0 -0.11832841288E+01  0.19769941492E+01 -0.16371955220E+03  0.16373576409E+03  0.00000000000E+00 0. -1.
        -15    1    1    2    0    0  0.24297983947E+01  0.11782328554E+01 -0.34673538668E+01  0.47405089113E+01  0.17770000000E+01 0.  1.
         15    1    1    2    0    0 -0.39010828456E+01 -0.51306558286E+00 -0.14330994037E+02  0.14967190877E+02  0.17770000000E+01 0.  1.
</event>
<event>
 6    1  0.8353910E-003  0.1832202E+03  0.7546771E-02  0.1067883E+00
        -11   -1    0    0    0    0  0.00000000000E+00  0.00000000000E+00  0.18250000000E+03  0.18250000000E+03  0.00000000000E+00 0. -1.
         11   -1    0    0    0    0 -0.00000000000E+00 -0.00000000000E+00 -0.18250000000E+03  0.18250000000E+03  0.00000000000E+00 0. -1.
        -11    1    1    2    0    0 -0.43690835607E+01  0.17595681876E+01  0.18171877046E+03  0.18177980226E+03  0.00000000000E+00 0. -1.
         11    1    1    2    0    0 -0.10354507650E+01 -0.87673042449E+00 -0.46379202067E+02  0.46399043082E+02  0.00000000000E+00 0. -1.
        -15    1    1    2    0    0  0.17615263333E+01 -0.12936950648E+01 -0.13034623546E+03  0.13037666758E+03  0.17770000000E+01 0. -1.
         15    1    1    2    0    0  0.36430079924E+01  0.41085730171E+00 -0.49933329294E+01  0.64444870780E+01  0.17770000000E+01 0.  1.
</event>
<event>
 6    1  0.8353910E-003  0.1861359E+03  0.7546771E-02  0.1065597E+00
        -11   -1    0    0    0    0  0.00000000000E+00  0.00000000000E+00  0.18250000000E+03  0.18250000000E+03  0.00000000000E+00 0. -1.
         11   -1    0    0    0    0 -0.00000000000E+00 -0.00000000000E+00 -0.18250000000E+03  0.18250000000E+03  0.00000000000E+00 0. -1.
        -11    1    1    2    0    0  0.63608664634E+01 -0.30243928610E+00  0.17875073689E+03  0.17886413288E+03  0.00000000000E+00 0. -1.
         11    1    1    2    0    0 -0.33324102026E+01 -0.37262400960E+01 -0.17325381576E+03  0.17332591987E+03  0.00000000000E+00 0. -1.
        -15    1    1    2    0    0 -0.62346814157E+00 -0.16065267838E+01  0.18422963631E+01  0.30856807547E+01  0.17770000000E+01 0.  1.
         15    1    1    2    0    0 -0.24049881192E+01  0.56352061659E+01 -0.73392174932E+01  0.97242664916E+01  0.17770000000E+01 0. -1.
</event>
<event>
 6    1  0.8353910E-003  0.1964075E+03  0.7546771E-02  0.1057894E+00
        -11   -1    0    0    0    0  0.00000000000E+00  0.00000000000E+00  0.18250000000E+03  0.18250000000E+03  0.00000000000E+00 0.  1.
         11   -1    0    0    0    0 -0.00000000000E+00 -0.00000000000E+00 -0.18250000000E+03  0.18250000000E+03  0.00000000000E+00 0.  1.
        -11    1    1    2    0    0  0.12559955410E+01  0.31981920634E+01  0.15330878571E+03  0.15334728472E+03  0.00000000000E+00 0.  1.
         11    1    1    2    0    0 -0.62351380513E+01 -0.15130104910E+02 -0.16779638117E+03  0.16859247479E+03  0.00000000000E+00 0.  1.
        -15    1    1    2    0    0  0.25713463333E+01 -0.10011096450E+02  0.17807787545E+02  0.20666613181E+02  0.17770000000E+01 0. -1.
         15    1    1    2    0    0  0.24077961770E+01  0.21943009296E+02 -0.33201920775E+01  0.22393627304E+02  0.17770000000E+01 0.  1.
</event>
<event>
 6    1  0.8353910E-003  0.1853334E+03  0.7546771E-02  0.1066222E+00
        -11   -1    0    0    0    0  0.00000000000E+00  0.00000000000E+00  0.18250000000E+03  0.18250000000E+03  0.00000000000E+00 0.  1.
         11   -1    0    0    0    0 -0.00000000000E+00 -0.00000000000E+00 -0.18250000000E+03  0.18250000000E+03  0.00000000000E+00 0. -1.
        -11    1    1    2    0    0 -0.14128574524E+01  0.28723525509E+01  0.17963807929E+03  0.17966659708E+03  0.00000000000E+00 0.  1.
         11    1    1    2    0    0  0.25240432593E+01 -0.41251021412E+00 -0.12492394766E+03  0.12495012468E+03  0.00000000000E+00 0. -1.
        -15    1    1    2    0    0 -0.11606771225E+02  0.46562064687E+01 -0.24396473757E+02  0.27472587387E+02  0.17770000000E+01 0.  1.
         15    1    1    2    0    0  0.10495585419E+02 -0.71160488055E+01 -0.30317657876E+02  0.32910690846E+02  0.17770000000E+01 0.  1.
</event>
<event>
 6    1  0.8353910E-003  0.1847548E+03  0.7546771E-02  0.1066674E+00
        -11   -1    0    0    0    0  0.00000000000E+00  0.00000000000E+00  0.18250000000E+03  0.18250000000E+03  0.00000000000E+00 0. -1.
         11   -1    0    0    0    0 -0.00000000000E+00 -0.00000000000E+00 -0.18250000000E+03  0.18250000000E+03  0.00000000000E+00 0. -1.
        -11    1    1    2    0    0  0.68607248562E+01 -0.10666176454E+01  0.12994848296E+03  0.13013383666E+03  0.00000000000E+00 0. -1.
         11    1    1    2    0    0 -0.49263383030E+00  0.26288811234E+01 -0.18022532723E+03  0.18024517270E+03  0.00000000000E+00 0. -1.
        -15    1    1    2    0    0 -0.67221320976E+01 -0.62434319970E+01  0.48349189586E+02  0.49243977964E+02  0.17770000000E+01 0. -1.
         15    1    1    2    0    0  0.35404107175E+00  0.46811685190E+01  0.19276546836E+01  0.53770126802E+01  0.17770000000E+01 0.  1.
</event>
<event>
 6    1  0.8353910E-003  0.1885849E+03  0.7546771E-02  0.1063712E+00
        -11   -1    0    0    0    0  0.00000000000E+00  0.00000000000E+00  0.18250000000E+03  0.18250000000E+03  0.00000000000E+00 0.  1.
         11   -1    0    0    0    0 -0.00000000000E+00 -0.00000000000E+00 -0.18250000000E+03  0.18250000000E+03  0.00000000000E+00 0. -1.
        -11    1    1    2    0    0  0.14196001512E+01  0.49916861722E+00  0.82340337890E+02  0.82354087195E+02  0.00000000000E+00 0.  1.
         11    1    1    2    0    0 -0.44294179564E+01 -0.40806418800E+00 -0.17635896338E+03  0.17641505102E+03  0.00000000000E+00 0. -1.
        -15    1    1    2    0    0 -0.25768041342E+01 -0.72089853495E+01  0.96389727641E+02  0.96709599901E+02  0.17770000000E+01 0.  1.
         15    1    1    2    0    0  0.55866219394E+01  0.71178809203E+01 -0.23711021467E+01  0.95212618848E+01  0.17770000000E+01 0. -1.
</event>
<event>
 6    1  0.8353910E-003  0.1668099E+03  0.7546771E-02  0.1081679E+00
        -11   -1    0    0    0    0  0.00000000000E+00  0.00000000000E+00  0.18250000000E+03  0.18250000000E+03  0.00000000000E+00 0. -1.
         11   -1    0    0    0    0 -0.00000000000E+00 -0.00000000000E+00 -0.18250000000E+03  0.18250000000E+03  0.00000000000E+00 0.  1.
        -11    1    1    2    0    0 -0.18523941140E+01 -0.42204855189E+01  0.16418890635E+03  0.16425358696E+03  0.00000000000E+00 0. -1.
         11    1    1    2    0    0  0.30917319295E+01 -0.69060019349E+01 -0.16942626714E+03  0.16959514046E+03  0.00000000000E+00 0.  1.
        -15    1    1    2    0    0  0.11727354612E+01 -0.11162917938E+01  0.15010704660E+02  0.15201986687E+02  0.17770000000E+01 0. -1.
         15    1    1    2    0    0 -0.24120732767E+01  0.12242779248E+02 -0.97733438649E+01  0.15949285893E+02  0.17770000000E+01 0.  1.
</event>
<event>
 6    1  0.8353910E-003  0.1835452E+03  0.7546771E-02  0.1067626E+00
        -11   -1    0    0    0    0  0.00000000000E+00  0.00000000000E+00  0.18250000000E+03  0.18250000000E+03  0.00000000000E+00 0. -1.
         11   -1    0    0    0    0 -0.00000000000E+00 -0.00000000000E+00 -0.18250000000E+03  0.18250000000E+03  0.00000000000E+00 0. -1.
        -11    1    1    2    0    0  0.16100948568E+01 -0.11922552825E+01  0.11476731508E+03  0.11478480078E+03  0.00000000000E+00 0. -1.
         11    1    1    2    0    0  0.33626013990E+01 -0.17896494442E+01 -0.18141484900E+03  0.18145483562E+03  0.00000000000E+00 0. -1.
        -15    1    1    2    0    0  0.51870824087E+01  0.30226347388E+01  0.18847204223E+02  0.19859934056E+02  0.17770000000E+01 0.  1.
         15    1    1    2    0    0 -0.10159778664E+02 -0.40730012042E-01  0.47800329696E+02  0.48900429543E+02  0.17770000000E+01 0. -1.
</event>
<event>
 6    1  0.9312893E-003  0.1521295E+03  0.7546771E-02  0.1095582E+00
        -11   -1    0    0    0    0  0.00000000000E+00  0.00000000000E+00  0.18250000000E+03  0.18250000000E+03  0.00000000000E+00 0.  1.
         11   -1    0    0    0    0 -0.00000000000E+00 -0.00000000000E+00 -0.18250000000E+03  0.18250000000E+03  0.00000000000E+00 0. -1.
        -11    1    1    2    0    0 -0.56563208497E+01 -0.92823950258E+00  0.38021486056E+02  0.38451124769E+02  0.00000000000E+00 0.  1.
         11    1    1    2    0    0 -0.20672207146E+01  0.87006067156E+00 -0.16056785404E+03  0.16058351771E+03  0.00000000000E+00 0. -1.
        -15    1    1    2    0    0  0.60256168755E+01  0.30532251106E+01  0.14399767121E+03  0.14416697709E+03  0.17770000000E+01 0.  1.
         15    1    1    2    0    0  0.16979246887E+01 -0.29950462796E+01 -0.21451303222E+02  0.21798380430E+02  0.17770000000E+01 0. -1.
</event>
<event>
 6    1  0.8353910E-003  0.1848863E+03  0.7546771E-02  0.1066571E+00
        -11   -1    0    0    0    0  0.00000000000E+00  0.00000000000E+00  0.18250000000E+03  0.18250000000E+03  0.00000000000E+00 0.  1.
         11   -1    0    0    0    0 -0.00000000000E+00 -0.00000000000E+00 -0.18250000000E+03  0.18250000000E+03  0.00000000000E+00 0. -1.
        -11    1    1    2    0    0  0.72993532731E+00 -0.25154148410E+01  0.16165202215E+03  0.16167323954E+03  0.00000000000E+00 0.  1.
         11    1    1    2    0    0  0.74906027638E+00 -0.26040400300E+01 -0.18009335038E+03  0.18011373342E+03  0.00000000000E+00 0. -1.
        -15    1    1    2    0    0 -0.66309505611E+01  0.46136213878E+01  0.84719570193E+01  0.11840050354E+02  0.17770000000E+01 0. -1.
         15    1    1    2    0    0  0.51519549574E+01  0.50583348318E+00  0.99693712054E+01  0.11372976683E+02  0.17770000000E+01 0.  1.
</event>
<event>
 6    1  0.8353910E-003  0.1829469E+03  0.7546771E-02  0.1068100E+00
        -11   -1    0    0    0    0  0.00000000000E+00  0.00000000000E+00  0.18250000000E+03  0.18250000000E+03  0.00000000000E+00 0.  1.
         11   -1    0    0    0    0 -0.00000000000E+00 -0.00000000000E+00 -0.18250000000E+03  0.18250000000E+03  0.00000000000E+00 0.  1.
        -11    1    1    2    0    0 -0.51938721748E+01 -0.59208908105E+00  0.66788277288E+02  0.66992543322E+02  0.00000000000E+00 0.  1.
         11    1    1    2    0    0  0.57145124096E-01 -0.49089042107E+01 -0.18198692340E+03  0.18205312658E+03  0.00000000000E+00 0.  1.
        -15    1    1    2    0    0  0.71291627846E+01  0.54347837321E+00  0.75452043811E+02  0.75810876363E+02  0.17770000000E+01 0.  1.
         15    1    1    2    0    0 -0.19924357339E+01  0.49575149185E+01  0.39746602305E+02  0.40143453739E+02  0.17770000000E+01 0. -1.
</event>
<event>
 6    1  0.8353910E-003  0.1934366E+03  0.7546771E-02  0.1060068E+00
        -11   -1    0    0    0    0  0.00000000000E+00  0.00000000000E+00  0.18250000000E+03  0.18250000000E+03  0.00000000000E+00 0.  1.
         11   -1    0    0    0    0 -0.00000000000E+00 -0.00000000000E+00 -0.18250000000E+03  0.18250000000E+03  0.00000000000E+00 0. -1.
        -11    1    1    2    0    0  0.64208261694E+01 -0.10890083154E+02  0.17109695819E+03  0.17156337028E+03  0.00000000000E+00 0.  1.
         11    1    1    2    0    0  0.51668466279E+01  0.53185759101E+01 -0.16173923084E+03  0.16190911755E+03  0.00000000000E+00 0. -1.
        -15    1    1    2    0    0 -0.14944284187E+02  0.77939663482E+01 -0.16165521799E+02  0.23421344226E+02  0.17770000000E+01 0.  1.
         15    1    1    2    0    0  0.33566113892E+01 -0.22224591045E+01  0.68077944509E+01  0.81061679464E+01  0.17770000000E+01 0. -1.
</event>
<event>
 6    1  0.8353910E-003  0.1837417E+03  0.7546771E-02  0.1067471E+00
        -11   -1    0    0    0    0  0.00000000000E+00  0.00000000000E+00  0.18250000000E+03  0.18250000000E+03  0.00000000000E+00 0. -1.
         11   -1    0    0    0    0 -0.00000000000E+00 -0.00000000000E+00 -0.18250000000E+03  0.18250000000E+03  0.00000000000E+00 0. -1.
        -11    1    1    2    0    0  0.23090023546E+01  0.26060962266E+01  0.14020174660E+03  0.14024497488E+03  0.00000000000E+00 0. -1.
         11    1    1    2    0    0 -0.29196205382E+01 -0.51580345897E+00 -0.18123404900E+03  0.18125829844E+03  0.00000000000E+00 0. -1.
        -15    1    1    2    0    0 -0.49237694521E+01 -0.47424908972E+01  0.13538880540E+02  0.15270682395E+02  0.17770000000E+01 0.  1.
         15    1    1    2    0    0  0.55343876357E+01  0.26521981296E+01  0.27493421863E+02  0.28226044288E+02  0.17770000000E+01 0. -1.
</event>
<event>
 6    1  0.8353910E-003  0.1873060E+03  0.7546771E-02  0.1064692E+00
        -11   -1    0    0    0    0  0.00000000000E+00  0.00000000000E+00  0.18250000000E+03  0.18250000000E+03  0.00000000000E+00 0.  1.
         11   -1    0    0    0    0 -0.00000000000E+00 -0.00000000000E+00 -0.18250000000E+03  0.18250000000E+03  0.00000000000E+00 0.  1.
        -11    1    1    2    0    0 -0.10652512569E+01  0.84726956743E-01  0.74739816665E+02  0.74747455703E+02  0.00000000000E+00 0.  1.
         11    1    1    2    0    0 -0.37459840728E+02 -0.11170786037E+02 -0.17334107359E+03  0.17769398955E+03  0.00000000000E+00 0.  1.
        -15    1    1    2    0    0  0.37368532786E+02  0.11843091180E+02  0.48408712786E+02  0.62315545845E+02  0.17770000000E+01 0.  1.
         15    1    1    2    0    0  0.11565591988E+01 -0.75703209902E+00  0.50192544143E+02  0.50243008900E+02  0.17770000000E+01 0.  1.
</event>
<event>
 6    1  0.8353910E-003  0.1861410E+03  0.7546771E-02  0.1065593E+00
        -11   -1    0    0    0    0  0.00000000000E+00  0.00000000000E+00  0.18250000000E+03  0.18250000000E+03  0.00000000000E+00 0. -1.
         11   -1    0    0    0    0 -0.00000000000E+00 -0.00000000000E+00 -0.18250000000E+03  0.18250000000E+03  0.00000000000E+00 0.  1.
        -11    1    1    2    0    0 -0.50487602334E+01  0.61949628387E+01  0.17868033326E+03  0.17885896410E+03  0.00000000000E+00 0. -1.
         11    1    1    2    0    0  0.35458810276E+01  0.25332967221E+00 -0.12246504868E+03  0.12251663396E+03  0.00000000000E+00 0.  1.
        -15    1    1    2    0    0  0.45175217731E+01 -0.85245583680E+01 -0.30064926570E+01  0.10260254648E+02  0.17770000000E+01 0. -1.
         15    1    1    2    0    0 -0.30146425673E+01  0.20762658571E+01 -0.53208791922E+02  0.53364147295E+02  0.17770000000E+01 0.  1.
</event>
<event>
 6    1  0.8353910E-003  0.1825583E+03  0.7546771E-02  0.1068408E+00
        -11   -1    0    0    0    0  0.00000000000E+00  0.00000000000E+00  0.18250000000E+03  0.18250000000E+03  0.00000000000E+00 0. -1.
         11   -1    0    0    0    0 -0.00000000000E+00 -0.00000000000E+00 -0.18250000000E+03  0.18250000000E+03  0.00000000000E+00 0.  1.
        -11    1    1    2    0    0 -0.17122466838E+01 -0.22063308192E+01  0.18242033088E+03  0.18244170796E+03  0.00000000000E+00 0. -1.
         11    1    1    2    0    0  0.10506740837E+01 -0.39148998587E+00 -0.80655230157E+02  0.80663023326E+02  0.00000000000E+00 0.  1.
        -15    1    1    2    0    0  0.17545169270E+00  0.52905780760E+00 -0.64698181035E+02  0.64724980059E+02  0.17770000000E+01 0.  1.
         15    1    1    2    0    0  0.48612090736E+00  0.20687629974E+01 -0.37066919693E+02  0.37170288652E+02  0.17770000000E+01 0. -1.
</event>
<event>
 6    1  0.8353910E-003  0.1859009E+03  0.7546771E-02  0.1065779E+00
        -11   -1    0    0    0    0  0.00000000000E+00  0.00000000000E+00  0.18250000000E+03  0.18250000000E+03  0.00000000000E+00 0.  1.
         11   -1    0    0    0    0 -0.00000000000E+00 -0.00000000000E+00 -0.18250000000E+03  0.18250000000E+03  0.00000000000E+00 0.  1.
        -11    1    1    2    0    0 -0.95754752122E+01 -0.43528669012E+01  0.14801707561E+03  0.14839033610E+03  0.00000000000E+00 0.  1.
         11    1    1    2    0    0 -0.72123146910E-01 -0.24655952977E+01 -0.17908206709E+03  0.17909905392E+03  0.00000000000E+00 0.  1.
        -15    1    1    2    0    0 -0.18715499066E+01  0.37983790778E+01  0.21907200450E+02  0.22383331817E+02  0.17770000000E+01 0.  1.
         15    1    1    2    0    0  0.11519148266E+02  0.30200831211E+01  0.91577910287E+01  0.15127278154E+02  0.17770000000E+01 0. -1.
</event>
<event>
 6    1  0.8353910E-003  0.1725399E+03  0.7546771E-02  0.1076672E+00
        -11   -1    0    0    0    0  0.00000000000E+00  0.00000000000E+00  0.18250000000E+03  0.18250000000E+03  0.00000000000E+00 0. -1.
         11   -1    0    0    0    0 -0.00000000000E+00 -0.00000000000E+00 -0.18250000000E+03  0.18250000000E+03  0.00000000000E+00 0. -1.
        -11    1    1    2    0    0  0.55830748511E+01 -0.11844608983E+02  0.17446458525E+03  0.17495529999E+03  0.00000000000E+00 0. -1.
         11    1    1    2    0    0 -0.12530452769E+01 -0.42620066162E+01 -0.17049238435E+03  0.17055025050E+03  0.00000000000E+00 0. -1.
        -15    1    1    2    0    0  0.22151626393E+01  0.74673429942E+01 -0.63038270985E+00  0.80139421181E+01  0.17770000000E+01 0.  1.
         15    1    1    2    0    0 -0.65451922135E+01  0.86392726048E+01 -0.33418181939E+01  0.11480507397E+02  0.17770000000E+01 0. -1.
</event>
<event>
 6    1  0.8353910E-003  0.1827920E+03  0.7546771E-02  0.1068223E+00
        -11   -1    0    0    0    0  0.00000000000E+00  0.00000000000E+00  0.18250000000E+03  0.18250000000E+03  0.00000000000E+00 0.  1.
         11   -1    0    0    0    0 -0.00000000000E+00 -0.00000000000E+00 -0.18250000000E+03  0.18250000000E+03  0.00000000000E+00 0. -1.
        -11    1    1    2    0    0  0.80300785077E+00 -0.54691121380E+00  0.21703630216E+02  0.21725365314E+02  0.00000000000E+00 0.  1.
         11    1    1    2    0    0 -0.28210648476E+01 -0.11425863519E+02 -0.18182749823E+03  0.18220797972E+03  0.00000000000E+00 0. -1.
        -15    1    1    2    0    0 -0.12082908374E+01  0.13279142990E+01  0.57259896780E+01  0.62584351020E+01  0.17770000000E+01 0. -1.
         15    1    1    2    0    0  0.32263478342E+01  0.10644860433E+02  0.15439787833E+03  0.15480821986E+03  0.17770000000E+01 0.  1.
</event>
<event>
 6    1  0.8353910E-003  0.1762350E+03  0.7546771E-02  0.1073554E+00
        -11   -1    0    0    0    0  0.00000000000E+00  0.00000000000E+00  0.18250000000E+03  0.18250000000E+03  0.00000000000E+00 0. -1.
         11   -1    0    0    0    0 -0.00000000000E+00 -0.00000000000E+00 -0.18250000000E+03  0.18250000000E+03  0.00000000000E+00 0.  1.
        -11    1    1    2    0    0 -0.21405508836E+01 -0.16950495736E+01  0.17704218925E+03  0.17706324273E+03  0.00000000000E+00 0. -1.
         11    1    1    2    0    0 -0.24890898447E+01  0.15133228801E+00 -0.17542660532E+03  0.17544432827E+03  0.00000000000E+00 0.  1.
        -15    1    1    2    0    0  0.38812153893E+01  0.60293060510E+01 -0.12856027693E+00  0.73885466162E+01  0.17770000000E+01 0.  1.
         15    1    1    2    0    0  0.74842533902E+00 -0.44855887654E+01 -0.14870236546E+01  0.51038823859E+01  0.17770000000E+01 0. -1.
</event>
<event>
 6    1  0.8353910E-003  0.1829922E+03  0.7546771E-02  0.1068064E+00
        -11   -1    0    0    0    0  0.00000000000E+00  0.00000000000E+00  0.18250000000E+03  0.18250000000E+03  0.00000000000E+00 0. -1.
         11   -1    0    0    0    0 -0.00000000000E+00 -0.00000000000E+00 -0.18250000000E+03  0.18250000000E+03  0.00000000000E+00 0.  1.
        -11    1    1    2    0    0 -0.69618805803E+00 -0.27921113515E+01  0.18198508434E+03  0.18200783358E+03  0.00000000000E+00 0. -1.
         11    1    1    2    0    0 -0.27894810519E+01  0.95847950563E+00 -0.10110590806E+03  0.10114892254E+03  0.00000000000E+00 0.  1.
        -15    1    1    2    0    0 -0.21729648843E+01  0.30314459124E+01 -0.11853663947E+02  0.12553028267E+02  0.17770000000E+01 0. -1.
         15    1    1    2    0    0  0.56586339943E+01 -0.11978140665E+01 -0.69025512334E+02  0.69290215610E+02  0.17770000000E+01 0.  1.
</event>
<event>
 6    1  0.8353910E-003  0.1849027E+03  0.7546771E-02  0.1066558E+00
        -11   -1    0    0    0    0  0.00000000000E+00  0.00000000000E+00  0.18250000000E+03  0.18250000000E+03  0.00000000000E+00 0.  1.
         11   -1    0    0    0    0 -0.00000000000E+00 -0.00000000000E+00 -0.18250000000E+03  0.18250000000E+03  0.00000000000E+00 0. -1.
        -11    1    1    2    0    0 -0.47604635786E+01 -0.71575116030E-01  0.18003431777E+03  0.18009725903E+03  0.00000000000E+00 0.  1.
         11    1    1    2    0    0 -0.98870291406E+01 -0.25782228764E+01 -0.12911118964E+03  0.12951486351E+03  0.00000000000E+00 0. -1.
        -15    1    1    2    0    0  0.16398954334E+02  0.58581887035E+01 -0.37937312427E+02  0.41780874588E+02  0.17770000000E+01 0. -1.
         15    1    1    2    0    0 -0.17514616148E+01 -0.32083907111E+01 -0.12985815698E+02  0.13607002869E+02  0.17770000000E+01 0.  1.
</event>
<event>
 6    1  0.8353910E-003  0.1842274E+03  0.7546771E-02  0.1067088E+00
        -11   -1    0    0    0    0  0.00000000000E+00  0.00000000000E+00  0.18250000000E+03  0.18250000000E+03  0.00000000000E+00 0.  1.
         11   -1    0    0    0    0 -0.00000000000E+00 -0.00000000000E+00 -0.18250000000E+03  0.18250000000E+03  0.00000000000E+00 0. -1.
        -11    1    1    2    0    0 -0.33096810683E+01 -0.56886500745E+01  0.18065273226E+03  0.18077257647E+03  0.00000000000E+00 0.  1.
         11    1    1    2    0    0 -0.24683310652E+01  0.21180224911E+01 -0.10326996876E+03  0.10332117462E+03  0.00000000000E+00 0. -1.
        -15    1    1    2    0    0  0.10525640372E+02  0.35756691634E+01 -0.73907836410E+02  0.74760287099E+02  0.17770000000E+01 0.  1.
         15    1    1    2    0    0 -0.47476282386E+01 -0.50415799536E-02 -0.34749270916E+01  0.61459618125E+01  0.17770000000E+01 0. -1.
</event>
<event>
 6    1  0.8353910E-003  0.1843482E+03  0.7546771E-02  0.1066993E+00
        -11   -1    0    0    0    0  0.00000000000E+00  0.00000000000E+00  0.18250000000E+03  0.18250000000E+03  0.00000000000E+00 0. -1.
         11   -1    0    0    0    0 -0.00000000000E+00 -0.00000000000E+00 -0.18250000000E+03  0.18250000000E+03  0.00000000000E+00 0. -1.
        -11    1    1    2    0    0 -0.39754193531E+01  0.12084370439E+01  0.18060399369E+03  0.18065178332E+03  0.00000000000E+00 0. -1.
         11    1    1    2    0    0 -0.13162222276E+01 -0.20157183683E+01 -0.16152080362E+03  0.16153874323E+03  0.00000000000E+00 0. -1.
        -15    1    1    2    0    0  0.54910272711E+01  0.27969594282E+01 -0.19085591060E+02  0.20134345722E+02  0.17770000000E+01 0. -1.
         15    1    1    2    0    0 -0.19938569049E+00 -0.19896781037E+01  0.24009854190E-02  0.26751277306E+01  0.17770000000E+01 0.  1.
</event>
<event>
 6    1  0.8353910E-003  0.1834093E+03  0.7546771E-02  0.1067733E+00
        -11   -1    0    0    0    0  0.00000000000E+00  0.00000000000E+00  0.18250000000E+03  0.18250000000E+03  0.00000000000E+00 0.  1.
         11   -1    0    0    0    0 -0.00000000000E+00 -0.00000000000E+00 -0.18250000000E+03  0.18250000000E+03  0.00000000000E+00 0.  1.
        -11    1    1    2    0    0 -0.11038259452E+01  0.25568420991E+01  0.18156931023E+03  0.18159066686E+03  0.00000000000E+00 0.  1.
         11    1    1    2    0    0 -0.28915967739E+01  0.64545608032E+00 -0.15708791563E+03  0.15711585274E+03  0.00000000000E+00 0.  1.
        -15    1    1    2    0    0 -0.48666698647E-01 -0.21808359937E+01 -0.22446788323E+01  0.35992674448E+01  0.17770000000E+01 0.  1.
         15    1    1    2    0    0  0.40440894178E+01 -0.10214621857E+01 -0.22236715770E+02  0.22694212951E+02  0.17770000000E+01 0. -1.
</event>
<event>
 6    1  0.8353910E-003  0.1957283E+03  0.7546771E-02  0.1058387E+00
        -11   -1    0    0    0    0  0.00000000000E+00  0.00000000000E+00  0.18250000000E+03  0.18250000000E+03  0.00000000000E+00 0. -1.
         11   -1    0    0    0    0 -0.00000000000E+00 -0.00000000000E+00 -0.18250000000E+03  0.18250000000E+03  0.00000000000E+00 0. -1.
        -11    1    1    2    0    0 -0.45189322103E+01  0.22332841308E+01  0.16919660774E+03  0.16927167624E+03  0.00000000000E+00 0. -1.
         11    1    1    2    0    0  0.10292781510E+02 -0.29405763290E+00 -0.14992770798E+03  0.15028088848E+03  0.00000000000E+00 0. -1.
        -15    1    1    2    0    0  0.40587818763E+01  0.31679191030E+00  0.11866305216E+02  0.12670477336E+02  0.17770000000E+01 0.  1.
         15    1    1    2    0    0 -0.98326311759E+01 -0.22560184082E+01 -0.31135204970E+02  0.32776957950E+02  0.17770000000E+01 0. -1.
</event>
<event>
 6    1  0.8353910E-003  0.1930492E+03  0.7546771E-02  0.1060355E+00
        -11   -1    0    0    0    0  0.00000000000E+00  0.00000000000E+00  0.18250000000E+03  0.18250000000E+03  0.00000000000E+00 0. -1.
         11   -1    0    0    0    0 -0.00000000000E+00 -0.00000000000E+00 -0.18250000000E+03  0.18250000000E+03  0.00000000000E+00 0. -1.
        -11    1    1    2    0    0 -0.64851566141E+01  0.31876889565E+01  0.15565490268E+03  0.15582255083E+03  0.00000000000E+00 0. -1.
         11    1    1    2    0    0 -0.56164968190E+01 -0.17240380798E+00 -0.17185900342E+03  0.17195084128E+03  0.00000000000E+00 0. -1.
        -15    1    1    2    0    0 -0.83325789975E+00  0.29995035909E+01  0.21582516753E+02  0.21878164889E+02  0.17770000000E+01 0.  1.
         15    1    1    2    0    0  0.12934911333E+02 -0.60147887395E+01 -0.53784160123E+01  0.15348443001E+02  0.17770000000E+01 0. -1.
</event>
<event>
 6    1  0.8353910E-003  0.1866242E+03  0.7546771E-02  0.1065219E+00
        -11   -1    0    0    0    0  0.00000000000E+00  0.00000000000E+00  0.18250000000E+03  0.18250000000E+03  0.00000000000E+00 0.  1.
         11   -1    0    0    0    0 -0.00000000000E+00 -0.00000000000E+00 -0.18250000000E+03  0.18250000000E+03  0.00000000000E+00 0. -1.
        -11    1    1    2    0    0  0.33304433436E+01  0.35218003139E+01  0.17830991811E+03  0.17837578823E+03  0.00000000000E+00 0.  1.
         11    1    1    2    0    0 -0.21849206361E+01 -0.21227335133E+01 -0.14366668299E+03  0.14369897591E+03  0.00000000000E+00 0. -1.
        -15    1    1    2    0    0 -0.33576127254E+01 -0.71547955588E+01 -0.42653060692E+00  0.81119861970E+01  0.17770000000E+01 0. -1.
         15    1    1    2    0    0  0.22120900180E+01  0.57557287582E+01 -0.34216704511E+02  0.34813249667E+02  0.17770000000E+01 0.  1.
</event>
<event>
 6    1  0.8353910E-003  0.1877403E+03  0.7546771E-02  0.1064358E+00
        -11   -1    0    0    0    0  0.00000000000E+00  0.00000000000E+00  0.18250000000E+03  0.18250000000E+03  0.00000000000E+00 0.  1.
         11   -1    0    0    0    0 -0.00000000000E+00 -0.00000000000E+00 -0.18250000000E+03  0.18250000000E+03  0.00000000000E+00 0.  1.
        -11    1    1    2    0    0 -0.41637830654E+00 -0.15300774032E+01  0.86760040810E+02  0.86774530763E+02  0.00000000000E+00 0.  1.
         11    1    1    2    0    0 -0.45962074099E+01  0.13310302423E+02 -0.17669951485E+03  0.17725971856E+03  0.00000000000E+00 0.  1.
        -15    1    1    2    0    0  0.40948564406E+01 -0.12392962367E+02  0.23852940241E+01  0.13386587395E+02  0.17770000000E+01 0.  1.
         15    1    1    2    0    0  0.91772927587E+00  0.61273734749E+00  0.87554180020E+02  0.87579163287E+02  0.17770000000E+01 0.  1.
</event>
<event>
 6    1  0.8353910E-003  0.1833652E+03  0.7546771E-02  0.1067768E+00
        -11   -1    0    0    0    0  0.00000000000E+00  0.00000000000E+00  0.18250000000E+03  0.18250000000E+03  0.00000000000E+00 0.  1.
         11   -1    0    0    0    0 -0.00000000000E+00 -0.00000000000E+00 -0.18250000000E+03  0.18250000000E+03  0.00000000000E+00 0. -1.
        -11    1    1    2    0    0  0.22139881464E+01 -0.85870252272E+00  0.16430785184E+03  0.16432501116E+03  0.00000000000E+00 0.  1.
         11    1    1    2    0    0 -0.20994476942E+01 -0.31270358833E+01 -0.18159570138E+03  0.18163475657E+03  0.00000000000E+00 0. -1.
        -15    1    1    2    0    0  0.10415207534E+01  0.88066902645E+00  0.12452424116E+01  0.25629477321E+01  0.17770000000E+01 0. -1.
         15    1    1    2    0    0 -0.11560612056E+01  0.31050693796E+01  0.16042607128E+02  0.16477284540E+02  0.17770000000E+01 0.  1.
</event>
<event>
 6    1  0.8353910E-003  0.1751746E+03  0.7546771E-02  0.1074440E+00
        -11   -1    0    0    0    0  0.00000000000E+00  0.00000000000E+00  0.18250000000E+03  0.18250000000E+03  0.00000000000E+00 0.  1.
         11   -1    0    0    0    0 -0.00000000000E+00 -0.00000000000E+00 -0.18250000000E+03  0.18250000000E+03  0.00000000000E+00 0. -1.
        -11    1    1    2    0    0 -0.46362092828E+00  0.29212473829E+01  0.17486656094E+03  0.17489157431E+03  0.00000000000E+00 0.  1.
         11    1    1    2    0    0 -0.30981366838E+00  0.33274686129E+01 -0.17548301369E+03  0.17551483164E+03  0.00000000000E+00 0. -1.
        -15    1    1    2    0    0 -0.39034818594E+01 -0.74425888209E+01 -0.20045136425E+01  0.88207200911E+01  0.17770000000E+01 0.  1.
         15    1    1    2    0    0  0.46769164560E+01  0.11938728251E+01  0.26209663994E+01  0.57728739572E+01  0.17770000000E+01 0. -1.
</event>
<event>
 6    1  0.8353910E-003  0.1767924E+03  0.7546771E-02  0.1073091E+00
        -11   -1    0    0    0    0  0.00000000000E+00  0.00000000000E+00  0.18250000000E+03  0.18250000000E+03  0.00000000000E+00 0. -1.
         11   -1    0    0    0    0 -0.00000000000E+00 -0.00000000000E+00 -0.18250000000E+03  0.18250000000E+03  0.00000000000E+00 0.  1.
        -11    1    1    2    0    0 -0.40663977047E+01 -0.16087908054E+01  0.17564401049E+03  0.17569844114E+03  0.00000000000E+00 0. -1.
         11    1    1    2    0    0 -0.16068552742E+01  0.17827996940E+01 -0.17792315868E+03  0.17793934572E+03  0.00000000000E+00 0.  1.
        -15    1    1    2    0    0  0.50166448091E+01 -0.15079672949E+01 -0.24853095131E+01  0.60642545196E+01  0.17770000000E+01 0.  1.
         15    1    1    2    0    0  0.65660816980E+00  0.13339584063E+01  0.47644577033E+01  0.52979586186E+01  0.17770000000E+01 0. -1.
</event>
<event>
 6    1  0.8353910E-003  0.1827267E+03  0.7546771E-02  0.1068274E+00
        -11   -1    0    0    0    0  0.00000000000E+00  0.00000000000E+00  0.18250000000E+03  0.18250000000E+03  0.00000000000E+00 0.  1.
         11   -1    0    0    0    0 -0.00000000000E+00 -0.00000000000E+00 -0.18250000000E+03  0.18250000000E+03  0.00000000000E+00 0.  1.
        -11    1    1    2    0    0  0.11411856873E+01 -0.58417209297E+00  0.66921659979E+02  0.66933938597E+02  0.00000000000E+00 0.  1.
         11    1    1    2    0    0 -0.19196640011E+01  0.16848022956E+01 -0.18225535474E+03  0.18227325092E+03  0.00000000000E+00 0.  1.
        -15    1    1    2    0    0  0.18715626374E+01 -0.49918666092E+01  0.77225956937E+02  0.77430146795E+02  0.17770000000E+01 0. -1.
         15    1    1    2    0    0 -0.10930843237E+01  0.38912364065E+01  0.38107737826E+02  0.38362663689E+02  0.17770000000E+01 0.  1.
</event>
<event>
 6    1  0.8353910E-003  0.1684682E+03  0.7546771E-02  0.1080207E+00
        -11   -1    0    0    0    0  0.00000000000E+00  0.00000000000E+00  0.18250000000E+03  0.18250000000E+03  0.00000000000E+00 0. -1.
         11   -1    0    0    0    0 -0.00000000000E+00 -0.00000000000E+00 -0.18250000000E+03  0.18250000000E+03  0.00000000000E+00 0. -1.
        -11    1    1    2    0    0 -0.95611040048E+00 -0.17041767116E+00  0.17658511770E+02  0.17685197969E+02  0.00000000000E+00 0. -1.
         11    1    1    2    0    0  0.39053488584E+01  0.14716384088E+01 -0.17309268263E+03  0.17314298787E+03  0.00000000000E+00 0. -1.
        -15    1    1    2    0    0 -0.35782251590E+00 -0.54522475813E+01 -0.84426584785E+01  0.10212308839E+02  0.17770000000E+01 0.  1.
         15    1    1    2    0    0 -0.25914159420E+01  0.41510268436E+01  0.16387682934E+03  0.16395950532E+03  0.17770000000E+01 0. -1.
</event>
<event>
 6    1  0.8353910E-003  0.1844649E+03  0.7546771E-02  0.1066901E+00
        -11   -1    0    0    0    0  0.00000000000E+00  0.00000000000E+00  0.18250000000E+03  0.18250000000E+03  0.00000000000E+00 0.  1.
         11   -1    0    0    0    0 -0.00000000000E+00 -0.00000000000E+00 -0.18250000000E+03  0.18250000000E+03  0.00000000000E+00 0.  1.
        -11    1    1    2    0    0 -0.48033352111E+01 -0.47574660878E+01  0.17059886009E+03  0.17073276363E+03  0.00000000000E+00 0.  1.
         11    1    1    2    0    0  0.17703899141E+01  0.30201298135E+01 -0.18050117946E+03  0.18053512470E+03  0.00000000000E+00 0.  1.
        -15    1    1    2    0    0 -0.14696534826E+01 -0.76932046046E+00  0.27225589321E-02  0.24309405057E+01  0.17770000000E+01 0.  1.
         15    1    1    2    0    0  0.45025987797E+01  0.25066567348E+01  0.98995968094E+01  0.11301171167E+02  0.17770000000E+01 0. -1.
</event>
<event>
 6    1  0.8353910E-003  0.1827880E+03  0.7546771E-02  0.1068226E+00
        -11   -1    0    0    0    0  0.00000000000E+00  0.00000000000E+00  0.18250000000E+03  0.18250000000E+03  0.00000000000E+00 0.  1.
         11   -1    0    0    0    0 -0.00000000000E+00 -0.00000000000E+00 -0.18250000000E+03  0.18250000000E+03  0.00000000000E+00 0.  1.
        -11    1    1    2    0    0 -0.46428149234E+01 -0.13418229946E+00  0.18215274545E+03  0.18221195463E+03  0.00000000000E+00 0.  1.
         11    1    1    2    0    0  0.40416678239E+01  0.65231503574E+00 -0.10956494815E+03  0.10964140849E+03  0.00000000000E+00 0.  1.
        -15    1    1    2    0    0 -0.39131361319E+00 -0.41573992078E+01 -0.47318009940E+02  0.47535133199E+02  0.17770000000E+01 0. -1.
         15    1    1    2    0    0  0.99246071271E+00  0.36392664715E+01 -0.25269787359E+02  0.25611503683E+02  0.17770000000E+01 0.  1.
</event>
<event>
 6    1  0.8353910E-003  0.1872399E+03  0.7546771E-02  0.1064743E+00
        -11   -1    0    0    0    0  0.00000000000E+00  0.00000000000E+00  0.18250000000E+03  0.18250000000E+03  0.00000000000E+00 0. -1.
         11   -1    0    0    0    0 -0.00000000000E+00 -0.00000000000E+00 -0.18250000000E+03  0.18250000000E+03  0.00000000000E+00 0. -1.
        -11    1    1    2    0    0 -0.61353451258E+01  0.52418077947E+01  0.13288298120E+03  0.13312777960E+03  0.00000000000E+00 0. -1.
         11    1    1    2    0    0 -0.51375046516E+01  0.50399658017E+01 -0.17761435568E+03  0.17776010394E+03  0.00000000000E+00 0. -1.
        -15    1    1    2    0    0  0.54387932274E+01 -0.14313300552E+02  0.94487445060E+01  0.18080031698E+02  0.17770000000E+01 0.  1.
         15    1    1    2    0    0  0.58340565500E+01  0.40315269554E+01  0.35282629978E+02  0.36032084766E+02  0.17770000000E+01 0. -1.
</event>
<event>
 6    1  0.8353910E-003  0.1852703E+03  0.7546771E-02  0.1066271E+00
        -11   -1    0    0    0    0  0.00000000000E+00  0.00000000000E+00  0.18250000000E+03  0.18250000000E+03  0.00000000000E+00 0. -1.
         11   -1    0    0    0    0 -0.00000000000E+00 -0.00000000000E+00 -0.18250000000E+03  0.18250000000E+03  0.00000000000E+00 0. -1.
        -11    1    1    2    0    0  0.23872420993E+01 -0.26672248019E+01  0.62433057320E+02  0.62535587143E+02  0.00000000000E+00 0. -1.
         11    1    1    2    0    0  0.34538030080E+01  0.59581906268E+01 -0.17959773403E+03  0.17972972725E+03  0.00000000000E+00 0. -1.
        -15    1    1    2    0    0  0.19516942308E+01  0.45786578207E+01  0.25813525175E+00  0.52912740070E+01  0.17770000000E+01 0.  1.
         15    1    1    2    0    0 -0.77927393381E+01 -0.78696236456E+01  0.11690654146E+03  0.11744341160E+03  0.17770000000E+01 0. -1.
</event>
<event>
 6    1  0.8353910E-003  0.1839394E+03  0.7546771E-02  0.1067315E+00
        -11   -1    0    0    0    0  0.00000000000E+00  0.00000000000E+00  0.18250000000E+03  0.18250000000E+03  0.00000000000E+00 0.  1.
         11   -1    0    0    0    0 -0.00000000000E+00 -0.00000000000E+00 -0.18250000000E+03  0.18250000000E+03  0.00000000000E+00 0. -1.
        -11    1    1    2    0    0 -0.12576053389E+01 -0.34220801193E+01  0.15869532840E+03  0.15873720251E+03  0.00000000000E+00 0.  1.
         11    1    1    2    0    0 -0.16507190148E+01  0.29472866875E+01 -0.18102910944E+03  0.18106062476E+03  0.00000000000E+00 0. -1.
        -15    1    1    2    0    0 -0.79017304020E+00  0.94379492311E+00  0.20616318804E+02  0.20729337961E+02  0.17770000000E+01 0.  1.
         15    1    1    2    0    0  0.36984973939E+01 -0.46900149131E+00  0.17174622349E+01  0.44728347723E+01  0.17770000000E+01 0. -1.
</event>
<event>
 6    1  0.8353910E-003  0.1914761E+03  0.7546771E-02  0.1061526E+00
        -11   -1    0    0    0    0  0.00000000000E+00  0.00000000000E+00  0.18250000000E+03  0.18250000000E+03  0.00000000000E+00 0. -1.
         11   -1    0    0    0    0 -0.00000000000E+00 -0.00000000000E+00 -0.18250000000E+03  0.18250000000E+03  0.00000000000E+00 0.  1.
        -11    1    1    2    0    0  0.19690023287E+01  0.62285586514E+01  0.17340092245E+03  0.17352392291E+03  0.00000000000E+00 0. -1.
         11    1    1    2    0    0  0.25033884289E+01  0.38848253103E+00 -0.15438882607E+03  0.15440960944E+03  0.00000000000E+00 0.  1.
        -15    1    1    2    0    0  0.26145062094E+00 -0.15690696834E+02 -0.45470409997E+00  0.15799709123E+02  0.17770000000E+01 0.  1.
         15    1    1    2    0    0 -0.47338413785E+01  0.90736556515E+01 -0.18557392286E+02  0.21266758534E+02  0.17770000000E+01 0. -1.
</event>
<event>
 6    1  0.8353910E-003  0.1839390E+03  0.7546771E-02  0.1067315E+00
        -11   -1    0    0    0    0  0.00000000000E+00  0.00000000000E+00  0.18250000000E+03  0.18250000000E+03  0.00000000000E+00 0.  1.
         11   -1    0    0    0    0 -0.00000000000E+00 -0.00000000000E+00 -0.18250000000E+03  0.18250000000E+03  0.00000000000E+00 0.  1.
        -11    1    1    2    0    0  0.73753660333E+00 -0.95426691606E+00  0.85857722580E+02  0.85866193069E+02  0.00000000000E+00 0.  1.
         11    1    1    2    0    0  0.33644151221E+01  0.45301469794E+01 -0.18097304976E+03  0.18106100149E+03  0.00000000000E+00 0.  1.
        -15    1    1    2    0    0 -0.88661325130E+01 -0.66484732490E+01  0.88387757009E+02  0.89097496151E+02  0.17770000000E+01 0.  1.
         15    1    1    2    0    0  0.47641807876E+01  0.30725931857E+01  0.67275701716E+01  0.89753092914E+01  0.17770000000E+01 0. -1.
</event>
<event>
 6    1  0.8353910E-003  0.1871232E+03  0.7546771E-02  0.1064833E+00
        -11   -1    0    0    0    0  0.00000000000E+00  0.00000000000E+00  0.18250000000E+03  0.18250000000E+03  0.00000000000E+00 0. -1.
         11   -1    0    0    0    0 -0.00000000000E+00 -0.00000000000E+00 -0.18250000000E+03  0.18250000000E+03  0.00000000000E+00 0.  1.
        -11    1    1    2    0    0 -0.41037741118E+01 -0.45365635871E+01  0.15483413850E+03  0.15495493479E+03  0.00000000000E+00 0. -1.
         11    1    1    2    0    0  0.80852397983E+01 -0.50966635108E+01 -0.17761983462E+03  0.17787679087E+03  0.00000000000E+00 0.  1.
        -15    1    1    2    0    0 -0.38448528981E+01  0.69067860535E+00  0.22645720246E+02  0.23048780992E+02  0.17770000000E+01 0.  1.
         15    1    1    2    0    0 -0.13661278833E+00  0.89425484925E+01  0.13997587232E+00  0.91194933434E+01  0.17770000000E+01 0. -1.
</event>
<event>
 6    1  0.8353910E-003  0.1828681E+03  0.7546771E-02  0.1068162E+00
        -11   -1    0    0    0    0  0.00000000000E+00  0.00000000000E+00  0.18250000000E+03  0.18250000000E+03  0.00000000000E+00 0. -1.
         11   -1    0    0    0    0 -0.00000000000E+00 -0.00000000000E+00 -0.18250000000E+03  0.18250000000E+03  0.00000000000E+00 0. -1.
        -11    1    1    2    0    0  0.86027575392E+00  0.32925140135E+01  0.14140261288E+03  0.14144355642E+03  0.00000000000E+00 0. -1.
         11    1    1    2    0    0  0.40028256770E+01 -0.32042908923E+01 -0.18205967732E+03  0.18213186487E+03  0.00000000000E+00 0. -1.
        -15    1    1    2    0    0 -0.26157422132E+01 -0.13995008842E+00  0.34368183096E+02  0.34513641240E+02  0.17770000000E+01 0. -1.
         15    1    1    2    0    0 -0.22473592177E+01  0.51726967196E-01  0.62888813450E+01  0.69109374692E+01  0.17770000000E+01 0.  1.
</event>
<event>
 6    1  0.9648807E-003  0.1968768E+03  0.7546771E-02  0.1057554E+00
        -11   -1    0    0    0    0  0.00000000000E+00  0.00000000000E+00  0.18250000000E+03  0.18250000000E+03  0.00000000000E+00 0.  1.
         11   -1    0    0    0    0 -0.00000000000E+00 -0.00000000000E+00 -0.18250000000E+03  0.18250000000E+03  0.00000000000E+00 0.  1.
        -11    1    1    2    0    0 -0.13272072504E+01 -0.10045244030E+01  0.94368440921E+02  0.94383119202E+02  0.00000000000E+00 0.  1.
         11    1    1    2    0    0 -0.46956640453E+02 -0.26282318671E+02 -0.15927871504E+03  0.16812315552E+03  0.00000000000E+00 0.  1.
        -15    1    1    2    0    0  0.45084306880E+01  0.14872691386E+01  0.48938845318E+02  0.49200673032E+02  0.17770000000E+01 0. -1.
         15    1    1    2    0    0  0.43775417016E+02  0.25799573935E+02  0.15971428805E+02  0.53293052241E+02  0.17770000000E+01 0.  1.
</event>
<event>
 6    1  0.8353910E-003  0.1905559E+03  0.7546771E-02  0.1062217E+00
        -11   -1    0    0    0    0  0.00000000000E+00  0.00000000000E+00  0.18250000000E+03  0.18250000000E+03  0.00000000000E+00 0.  1.
         11   -1    0    0    0    0 -0.00000000000E+00 -0.00000000000E+00 -0.18250000000E+03  0.18250000000E+03  0.00000000000E+00 0. -1.
        -11    1    1    2    0    0 -0.33046740801E+01  0.20072803297E+02  0.15398196558E+03  0.15531994086E+03  0.00000000000E+00 0.  1.
         11    1    1    2    0    0 -0.30159250011E+01  0.19442479529E+01 -0.17440715096E+03  0.17444406040E+03  0.00000000000E+00 0. -1.
        -15    1    1    2    0    0  0.11580446386E+02 -0.10049612739E+02  0.96659244897E+01  0.18212338674E+02  0.17770000000E+01 0. -1.
         15    1    1    2    0    0 -0.52598473053E+01 -0.11967438510E+02  0.10759260891E+02  0.17023660067E+02  0.17770000000E+01 0.  1.
</event>
<event>
 6    1  0.8353910E-003  0.1830700E+03  0.7546771E-02  0.1068002E+00
        -11   -1    0    0    0    0  0.00000000000E+00  0.00000000000E+00  0.18250000000E+03  0.18250000000E+03  0.00000000000E+00 0. -1.
         11   -1    0    0    0    0 -0.00000000000E+00 -0.00000000000E+00 -0.18250000000E+03  0.18250000000E+03  0.00000000000E+00 0.  1.
        -11    1    1    2    0    0 -0.26598759185E+01  0.47600796074E+01  0.53385050325E+02  0.53662807380E+02  0.00000000000E+00 0. -1.
         11    1    1    2    0    0  0.50446853524E+01  0.39475288588E+01 -0.18181717904E+03  0.18192998222E+03  0.00000000000E+00 0.  1.
        -15    1    1    2    0    0  0.27706208390E+01 -0.54595297026E+01  0.25688198094E+02  0.26467414961E+02  0.17770000000E+01 0.  1.
         15    1    1    2    0    0 -0.51554302728E+01 -0.32480787636E+01  0.10274393062E+03  0.10293979544E+03  0.17770000000E+01 0. -1.
</event>
<event>
 6    1  0.8353910E-003  0.1873358E+03  0.7546771E-02  0.1064669E+00
        -11   -1    0    0    0    0  0.00000000000E+00  0.00000000000E+00  0.18250000000E+03  0.18250000000E+03  0.00000000000E+00 0.  1.
         11   -1    0    0    0    0 -0.00000000000E+00 -0.00000000000E+00 -0.18250000000E+03  0.18250000000E+03  0.00000000000E+00 0.  1.
        -11    1    1    2    0    0 -0.77934790470E+00 -0.28673156993E+01  0.17763931730E+03  0.17766416615E+03  0.00000000000E+00 0.  1.
         11    1    1    2    0    0  0.14446562450E+01  0.24353032644E+01 -0.16737254054E+03  0.16739649059E+03  0.00000000000E+00 0.  1.
        -15    1    1    2    0    0 -0.10984241823E+01 -0.47980354764E+00  0.45250235749E+01  0.50070265110E+01  0.17770000000E+01 0. -1.
         15    1    1    2    0    0  0.43311584202E+00  0.91181598251E+00 -0.14791800332E+02  0.14932316759E+02  0.17770000000E+01 0.  1.
</event>
<event>
 6    1  0.8353910E-003  0.1827837E+03  0.7546771E-02  0.1068229E+00
        -11   -1    0    0    0    0  0.00000000000E+00  0.00000000000E+00  0.18250000000E+03  0.18250000000E+03  0.00000000000E+00 0.  1.
         11   -1    0    0    0    0 -0.00000000000E+00 -0.00000000000E+00 -0.18250000000E+03  0.18250000000E+03  0.00000000000E+00 0.  1.
        -11    1    1    2    0    0 -0.81495700734E+00 -0.20057707392E+01  0.53381558040E+02  0.53425443470E+02  0.00000000000E+00 0.  1.
         11    1    1    2    0    0  0.42417543644E+01 -0.26579242098E+01 -0.18214753654E+03  0.18221630582E+03  0.00000000000E+00 0.  1.
        -15    1    1    2    0    0  0.21684797896E+01 -0.38499017643E+00  0.73279181454E+02  0.73333803158E+02  0.17770000000E+01 0.  1.
         15    1    1    2    0    0 -0.55952771467E+01  0.50486851255E+01  0.55486797044E+02  0.56024447548E+02  0.17770000000E+01 0.  1.
</event>
<event>
 6    1  0.8353910E-003  0.1852024E+03  0.7546771E-02  0.1066324E+00
        -11   -1    0    0    0    0  0.00000000000E+00  0.00000000000E+00  0.18250000000E+03  0.18250000000E+03  0.00000000000E+00 0. -1.
         11   -1    0    0    0    0 -0.00000000000E+00 -0.00000000000E+00 -0.18250000000E+03  0.18250000000E+03  0.00000000000E+00 0. -1.
        -11    1    1    2    0    0 -0.30833344283E+01 -0.17395579990E+01  0.14378580593E+03  0.14382938156E+03  0.00000000000E+00 0. -1.
         11    1    1    2    0    0  0.24423690837E+01 -0.17662916704E+01 -0.17977238367E+03  0.17979764983E+03  0.00000000000E+00 0. -1.
        -15    1    1    2    0    0  0.32246769872E+01  0.21719187633E+01  0.37429153008E+02  0.37672470011E+02  0.17770000000E+01 0.  1.
         15    1    1    2    0    0 -0.25837116426E+01  0.13339309062E+01 -0.14425752658E+01  0.37004986031E+01  0.17770000000E+01 0.  1.
</event>
<event>
 6    1  0.8353910E-003  0.1894510E+03  0.7546771E-02  0.1063053E+00
        -11   -1    0    0    0    0  0.00000000000E+00  0.00000000000E+00  0.18250000000E+03  0.18250000000E+03  0.00000000000E+00 0. -1.
         11   -1    0    0    0    0 -0.00000000000E+00 -0.00000000000E+00 -0.18250000000E+03  0.18250000000E+03  0.00000000000E+00 0. -1.
        -11    1    1    2    0    0 -0.20721675006E+01 -0.24696123593E+01  0.17551937814E+03  0.17554898167E+03  0.00000000000E+00 0. -1.
         11    1    1    2    0    0 -0.57680659961E+01  0.50277649392E+01 -0.14140742864E+03  0.14161429970E+03  0.00000000000E+00 0. -1.
        -15    1    1    2    0    0  0.67412378364E+01 -0.10133358246E+02 -0.37360894457E+02  0.39333489555E+02  0.17770000000E+01 0. -1.
         15    1    1    2    0    0  0.10989956602E+01  0.75752056665E+01  0.32489449507E+01  0.85032290716E+01  0.17770000000E+01 0.  1.
</event>
<event>
 6    1  0.8353910E-003  0.1864058E+03  0.7546771E-02  0.1065388E+00
        -11   -1    0    0    0    0  0.00000000000E+00  0.00000000000E+00  0.18250000000E+03  0.18250000000E+03  0.00000000000E+00 0.  1.
         11   -1    0    0    0    0 -0.00000000000E+00 -0.00000000000E+00 -0.18250000000E+03  0.18250000000E+03  0.00000000000E+00 0.  1.
        -11    1    1    2    0    0  0.97201972231E+01  0.13962740476E+02  0.17778197888E+03  0.17859415548E+03  0.00000000000E+00 0.  1.
         11    1    1    2    0    0 -0.28828481098E+01 -0.50068442640E+01 -0.12214093714E+03  0.12227750336E+03  0.00000000000E+00 0.  1.
        -15    1    1    2    0    0 -0.76213884613E+01 -0.17786534216E+02 -0.22279026682E+02  0.29562799604E+02  0.17770000000E+01 0.  1.
         15    1    1    2    0    0  0.78403934806E+00  0.88306380037E+01 -0.33362015061E+02  0.34565541558E+02  0.17770000000E+01 0. -1.
</event>
<event>
 6    1  0.8353910E-003  0.1829173E+03  0.7546771E-02  0.1068123E+00
        -11   -1    0    0    0    0  0.00000000000E+00  0.00000000000E+00  0.18250000000E+03  0.18250000000E+03  0.00000000000E+00 0.  1.
         11   -1    0    0    0    0 -0.00000000000E+00 -0.00000000000E+00 -0.18250000000E+03  0.18250000000E+03  0.00000000000E+00 0. -1.
        -11    1    1    2    0    0 -0.36165806189E+01 -0.26921821293E+00  0.14727035274E+03  0.14731499900E+03  0.00000000000E+00 0.  1.
         11    1    1    2    0    0  0.35897800434E+01 -0.16583203242E+01 -0.18203970788E+03  0.18208265099E+03  0.00000000000E+00 0. -1.
        -15    1    1    2    0    0 -0.16637381778E+01  0.16798673540E+01  0.56363155295E+01  0.63651991956E+01  0.17770000000E+01 0. -1.
         15    1    1    2    0    0  0.16905387533E+01  0.24767118322E+00  0.29133039604E+02  0.29237150817E+02  0.17770000000E+01 0.  1.
</event>
<event>
 6    1  0.8353910E-003  0.1706913E+03  0.7546771E-02  0.1078263E+00
        -11   -1    0    0    0    0  0.00000000000E+00  0.00000000000E+00  0.18250000000E+03  0.18250000000E+03  0.00000000000E+00 0. -1.
         11   -1    0    0    0    0 -0.00000000000E+00 -0.00000000000E+00 -0.18250000000E+03  0.18250000000E+03  0.00000000000E+00 0. -1.
        -11    1    1    2    0    0  0.81750244902E+01  0.24643730945E+01  0.17383798588E+03  0.17404754952E+03  0.00000000000E+00 0. -1.
         11    1    1    2    0    0  0.64560955300E+01  0.53562129003E+01 -0.16758538059E+03  0.16779520248E+03  0.00000000000E+00 0. -1.
        -15    1    1    2    0    0 -0.16947250610E+02 -0.42800884860E+01 -0.38859628314E+01  0.17994079494E+02  0.17770000000E+01 0.  1.
         15    1    1    2    0    0  0.23161305903E+01 -0.35404975088E+01 -0.23666424552E+01  0.51631685070E+01  0.17770000000E+01 0. -1.
</event>
<event>
 6    1  0.8353910E-003  0.1832831E+03  0.7546771E-02  0.1067833E+00
        -11   -1    0    0    0    0  0.00000000000E+00  0.00000000000E+00  0.18250000000E+03  0.18250000000E+03  0.00000000000E+00 0. -1.
         11   -1    0    0    0    0 -0.00000000000E+00 -0.00000000000E+00 -0.18250000000E+03  0.18250000000E+03  0.00000000000E+00 0.  1.
        -11    1    1    2    0    0  0.16474792151E+01 -0.29457089576E+00  0.40505748218E+02  0.40540308317E+02  0.00000000000E+00 0. -1.
         11    1    1    2    0    0 -0.71702066691E+01  0.15749620991E+00 -0.18157536485E+03  0.18171694964E+03  0.00000000000E+00 0.  1.
        -15    1    1    2    0    0 -0.63813060915E+01  0.52815480896E+01  0.65852562509E+02  0.66395282480E+02  0.17770000000E+01 0.  1.
         15    1    1    2    0    0  0.11904033545E+02 -0.51444734038E+01  0.75217054121E+02  0.76347459558E+02  0.17770000000E+01 0. -1.
</event>
<event>
 6    1  0.8353910E-003  0.1827458E+03  0.7546771E-02  0.1068259E+00
        -11   -1    0    0    0    0  0.00000000000E+00  0.00000000000E+00  0.18250000000E+03  0.18250000000E+03  0.00000000000E+00 0. -1.
         11   -1    0    0    0    0 -0.00000000000E+00 -0.00000000000E+00 -0.18250000000E+03  0.18250000000E+03  0.00000000000E+00 0. -1.
        -11    1    1    2    0    0 -0.51656302982E+01 -0.15573354948E+01  0.10931554920E+03  0.10944861044E+03  0.00000000000E+00 0. -1.
         11    1    1    2    0    0  0.27960629033E+01  0.30035248828E+01 -0.18220798920E+03  0.18225419188E+03  0.00000000000E+00 0. -1.
        -15    1    1    2    0    0 -0.21307025940E+00 -0.11587028143E+01  0.67243356406E+01  0.70542476534E+01  0.17770000000E+01 0.  1.
         15    1    1    2    0    0  0.25826376543E+01 -0.28748657369E+00  0.66168104352E+02  0.66242950027E+02  0.17770000000E+01 0. -1.
</event>
<event>
 6    1  0.8353910E-003  0.1951379E+03  0.7546771E-02  0.1058818E+00
        -11   -1    0    0    0    0  0.00000000000E+00  0.00000000000E+00  0.18250000000E+03  0.18250000000E+03  0.00000000000E+00 0. -1.
         11   -1    0    0    0    0 -0.00000000000E+00 -0.00000000000E+00 -0.18250000000E+03  0.18250000000E+03  0.00000000000E+00 0. -1.
        -11    1    1    2    0    0 -0.65696826068E-01  0.11088954113E+01  0.80600438285E+02  0.80608092750E+02  0.00000000000E+00 0. -1.
         11    1    1    2    0    0  0.22937958530E+01  0.17888512540E+02 -0.16890191554E+03  0.16986205419E+03  0.00000000000E+00 0. -1.
        -15    1    1    2    0    0 -0.47996028706E+01 -0.17940088572E+02 -0.64360875175E+01  0.19734840188E+02  0.17770000000E+01 0.  1.
         15    1    1    2    0    0  0.25715038437E+01 -0.10573193793E+01  0.94737564776E+02  0.94795012870E+02  0.17770000000E+01 0. -1.
</event>
<event>
 6    1  0.8353910E-003  0.1559903E+03  0.7546771E-02  0.1091764E+00
        -11   -1    0    0    0    0  0.00000000000E+00  0.00000000000E+00  0.18250000000E+03  0.18250000000E+03  0.00000000000E+00 0. -1.
         11   -1    0    0    0    0 -0.00000000000E+00 -0.00000000000E+00 -0.18250000000E+03  0.18250000000E+03  0.00000000000E+00 0. -1.
        -11    1    1    2    0    0 -0.86928226554E+01  0.20756176101E+02  0.15127049127E+03  0.15293510239E+03  0.00000000000E+00 0. -1.
         11    1    1    2    0    0 -0.70326362276E+01  0.11024643005E+02 -0.16066328403E+03  0.16119457671E+03  0.00000000000E+00 0. -1.
        -15    1    1    2    0    0  0.12885534176E+02 -0.22166623715E+02 -0.11093812490E+02  0.27993331393E+02  0.17770000000E+01 0. -1.
         15    1    1    2    0    0  0.28399247068E+01 -0.96141953915E+01  0.20486605248E+02  0.22876989508E+02  0.17770000000E+01 0.  1.
</event>
<event>
 6    1  0.8353910E-003  0.1847383E+03  0.7546771E-02  0.1066687E+00
        -11   -1    0    0    0    0  0.00000000000E+00  0.00000000000E+00  0.18250000000E+03  0.18250000000E+03  0.00000000000E+00 0. -1.
         11   -1    0    0    0    0 -0.00000000000E+00 -0.00000000000E+00 -0.18250000000E+03  0.18250000000E+03  0.00000000000E+00 0. -1.
        -11    1    1    2    0    0 -0.98142079774E+00  0.20272451402E+01  0.76122248693E+02  0.76155562212E+02  0.00000000000E+00 0. -1.
         11    1    1    2    0    0 -0.59039553048E+01 -0.78887482146E+01 -0.17999223893E+03  0.18026174057E+03  0.00000000000E+00 0. -1.
        -15    1    1    2    0    0 -0.38084340641E+01 -0.45855712875E-01  0.89661764895E+02  0.89760214382E+02  0.17770000000E+01 0. -1.
         15    1    1    2    0    0  0.10693810167E+02  0.59073587872E+01  0.14208225345E+02  0.18822482838E+02  0.17770000000E+01 0.  1.
</event>
<event>
 6    1  0.8353910E-003  0.1905012E+03  0.7546771E-02  0.1062258E+00
        -11   -1    0    0    0    0  0.00000000000E+00  0.00000000000E+00  0.18250000000E+03  0.18250000000E+03  0.00000000000E+00 0. -1.
         11   -1    0    0    0    0 -0.00000000000E+00 -0.00000000000E+00 -0.18250000000E+03  0.18250000000E+03  0.00000000000E+00 0.  1.
        -11    1    1    2    0    0  0.41873699542E+01 -0.16264096935E+01  0.17444099958E+03  0.17449882983E+03  0.00000000000E+00 0. -1.
         11    1    1    2    0    0 -0.21746850043E+01  0.37516740177E+00 -0.11818966829E+03  0.11821026899E+03  0.00000000000E+00 0.  1.
        -15    1    1    2    0    0  0.30806889621E+01 -0.33574127891E+01  0.70570500493E+01  0.85861836410E+01  0.17770000000E+01 0. -1.
         15    1    1    2    0    0 -0.50933739120E+01  0.46086550809E+01 -0.63308381342E+02  0.63704717538E+02  0.17770000000E+01 0.  1.
</event>
<event>
 6    1  0.8353910E-003  0.1862413E+03  0.7546771E-02  0.1065515E+00
        -11   -1    0    0    0    0  0.00000000000E+00  0.00000000000E+00  0.18250000000E+03  0.18250000000E+03  0.00000000000E+00 0.  1.
         11   -1    0    0    0    0 -0.00000000000E+00 -0.00000000000E+00 -0.18250000000E+03  0.18250000000E+03  0.00000000000E+00 0.  1.
        -11    1    1    2    0    0 -0.12069887395E+01  0.34003524788E+01  0.16509031956E+03  0.16512974545E+03  0.00000000000E+00 0.  1.
         11    1    1    2    0    0 -0.20769442982E+01  0.45896178087E+01 -0.17868772581E+03  0.17875872466E+03  0.00000000000E+00 0.  1.
        -15    1    1    2    0    0 -0.20815850411E+01  0.13765171847E+01  0.85140195594E+01  0.90484282558E+01  0.17770000000E+01 0. -1.
         15    1    1    2    0    0  0.53655180789E+01 -0.93664874722E+01  0.50833866850E+01  0.12063101633E+02  0.17770000000E+01 0. -1.
</event>
<event>
 6    1  0.2611034E-002  0.1828479E+03  0.7546771E-02  0.1068178E+00
        -11   -1    0    0    0    0  0.00000000000E+00  0.00000000000E+00  0.18250000000E+03  0.18250000000E+03  0.00000000000E+00 0. -1.
         11   -1    0    0    0    0 -0.00000000000E+00 -0.00000000000E+00 -0.18250000000E+03  0.18250000000E+03  0.00000000000E+00 0. -1.
        -11    1    1    2    0    0 -0.30534490566E+01 -0.33795586121E+01  0.18209513615E+03  0.18215208914E+03  0.00000000000E+00 0. -1.
         11    1    1    2    0    0  0.19197680971E+01  0.18034724693E+01 -0.91194470952E+01  0.94922251246E+01  0.00000000000E+00 0. -1.
        -15    1    1    2    0    0  0.28692572065E+00  0.31812052748E+01 -0.18421216320E+02  0.18780344328E+02  0.17770000000E+01 0.  1.
         15    1    1    2    0    0  0.84675523894E+00 -0.16051191320E+01 -0.15455447273E+03  0.15457534141E+03  0.17770000000E+01 0. -1.
</event>
<event>
 6    1  0.8353910E-003  0.1846984E+03  0.7546771E-02  0.1066718E+00
        -11   -1    0    0    0    0  0.00000000000E+00  0.00000000000E+00  0.18250000000E+03  0.18250000000E+03  0.00000000000E+00 0.  1.
         11   -1    0    0    0    0 -0.00000000000E+00 -0.00000000000E+00 -0.18250000000E+03  0.18250000000E+03  0.00000000000E+00 0.  1.
        -11    1    1    2    0    0 -0.73462940814E+00 -0.17488135450E+01  0.12196654456E+03  0.12198129373E+03  0.00000000000E+00 0.  1.
         11    1    1    2    0    0  0.18284707269E+00  0.37183577359E+01 -0.18026314261E+03  0.18030158125E+03  0.00000000000E+00 0.  1.
        -15    1    1    2    0    0 -0.12610658713E+01 -0.28175009824E+01 -0.72504207230E+00  0.36348334108E+01  0.17770000000E+01 0.  1.
         15    1    1    2    0    0  0.18128482067E+01  0.84795679144E+00  0.59021640124E+02  0.59082291604E+02  0.17770000000E+01 0.  1.
</event>
<event>
 6    1  0.8353910E-003  0.1831944E+03  0.7546771E-02  0.1067903E+00
        -11   -1    0    0    0    0  0.00000000000E+00  0.00000000000E+00  0.18250000000E+03  0.18250000000E+03  0.00000000000E+00 0.  1.
         11   -1    0    0    0    0 -0.00000000000E+00 -0.00000000000E+00 -0.18250000000E+03  0.18250000000E+03  0.00000000000E+00 0.  1.
        -11    1    1    2    0    0 -0.65846476973E+00 -0.11065714792E+01  0.45534952917E+02  0.45553155911E+02  0.00000000000E+00 0.  1.
         11    1    1    2    0    0 -0.25969136257E+01  0.11111305565E+01 -0.18178370092E+03  0.18180564482E+03  0.00000000000E+00 0.  1.
        -15    1    1    2    0    0 -0.29067840387E+01 -0.45569835059E+01  0.13622267916E+02  0.14762770888E+02  0.17770000000E+01 0. -1.
         15    1    1    2    0    0  0.61621624342E+01  0.45524244286E+01  0.12262648008E+03  0.12287842838E+03  0.17770000000E+01 0.  1.
</event>
<event>
 6    1  0.1260713E-002  0.1925113E+03  0.7546771E-02  0.1060754E+00
        -11   -1    0    0    0    0  0.00000000000E+00  0.00000000000E+00  0.18250000000E+03  0.18250000000E+03  0.00000000000E+00 0.  1.
         11   -1    0    0    0    0 -0.00000000000E+00 -0.00000000000E+00 -0.18250000000E+03  0.18250000000E+03  0.00000000000E+00 0. -1.
        -11    1    1    2    0    0 -0.49332404355E+00  0.10740004770E+02  0.17215331678E+03  0.17248871137E+03  0.00000000000E+00 0.  1.
         11    1    1    2    0    0  0.22628099745E+01 -0.90621755349E-01 -0.16222759369E+03  0.16224339948E+03  0.00000000000E+00 0. -1.
        -15    1    1    2    0    0 -0.13002718584E+01 -0.24983722515E+01 -0.18203819493E+02  0.18505927266E+02  0.17770000000E+01 0. -1.
         15    1    1    2    0    0 -0.46921407259E+00 -0.81510107627E+01  0.82780964013E+01  0.11761961883E+02  0.17770000000E+01 0. -1.
</event>
<event>
 6    1  0.8353910E-003  0.1842594E+03  0.7546771E-02  0.1067063E+00
        -11   -1    0    0    0    0  0.00000000000E+00  0.00000000000E+00  0.18250000000E+03  0.18250000000E+03  0.00000000000E+00 0. -1.
         11   -1    0    0    0    0 -0.00000000000E+00 -0.00000000000E+00 -0.18250000000E+03  0.18250000000E+03  0.00000000000E+00 0. -1.
        -11    1    1    2    0    0 -0.17110367968E+01  0.17044352319E+01  0.17703445636E+03  0.17705092907E+03  0.00000000000E+00 0. -1.
         11    1    1    2    0    0 -0.14499390490E+01 -0.23749466554E+01 -0.18071914906E+03  0.18074056969E+03  0.00000000000E+00 0. -1.
        -15    1    1    2    0    0 -0.62629003772E+00  0.28477329207E+00  0.60444988778E+00  0.19991057266E+01  0.17770000000E+01 0. -1.
         15    1    1    2    0    0  0.37872658835E+01  0.38573813142E+00  0.30802428110E+01  0.52093955075E+01  0.17770000000E+01 0. -1.
</event>
<event>
 6    1  0.8353910E-003  0.1835538E+03  0.7546771E-02  0.1067619E+00
        -11   -1    0    0    0    0  0.00000000000E+00  0.00000000000E+00  0.18250000000E+03  0.18250000000E+03  0.00000000000E+00 0. -1.
         11   -1    0    0    0    0 -0.00000000000E+00 -0.00000000000E+00 -0.18250000000E+03  0.18250000000E+03  0.00000000000E+00 0. -1.
        -11    1    1    2    0    0  0.69007508904E-01 -0.23667193488E+01  0.17547520548E+03  0.17549117886E+03  0.00000000000E+00 0. -1.
         11    1    1    2    0    0  0.28257468258E+01  0.29384554661E+01 -0.18140038023E+03  0.18144618297E+03  0.00000000000E+00 0. -1.
        -15    1    1    2    0    0 -0.19093353583E+00 -0.47099146938E+00  0.36957310470E+01  0.41321236128E+01  0.17770000000E+01 0.  1.
         15    1    1    2    0    0 -0.27038207989E+01 -0.10074464789E+00  0.22294437099E+01  0.39305145531E+01  0.17770000000E+01 0. -1.
</event>
<event>
 6    1  0.8353910E-003  0.1736924E+03  0.7546771E-02  0.1075690E+00
        -11   -1    0    0    0    0  0.00000000000E+00  0.00000000000E+00  0.18250000000E+03  0.18250000000E+03  0.00000000000E+00 0. -1.
         11   -1    0    0    0    0 -0.00000000000E+00 -0.00000000000E+00 -0.18250000000E+03  0.18250000000E+03  0.00000000000E+00 0. -1.
        -11    1    1    2    0    0 -0.98125610047E+01  0.58961034255E+01  0.17414692166E+03  0.17452277992E+03  0.00000000000E+00 0. -1.
         11    1    1    2    0    0  0.48828581633E+01  0.64382029595E+00 -0.17289074738E+03  0.17296088384E+03  0.00000000000E+00 0. -1.
        -15    1    1    2    0    0  0.35411068770E+01 -0.14897036125E+01  0.66408407686E+01  0.78750968173E+01  0.17770000000E+01 0.  1.
         15    1    1    2    0    0  0.13885959644E+01 -0.50502201089E+01 -0.78970150481E+01  0.96412394209E+01  0.17770000000E+01 0. -1.
</event>
<event>
 6    1  0.8353910E-003  0.1845726E+03  0.7546771E-02  0.1066817E+00
        -11   -1    0    0    0    0  0.00000000000E+00  0.00000000000E+00  0.18250000000E+03  0.18250000000E+03  0.00000000000E+00 0.  1.
         11   -1    0    0    0    0 -0.00000000000E+00 -0.00000000000E+00 -0.18250000000E+03  0.18250000000E+03  0.00000000000E+00 0. -1.
        -11    1    1    2    0    0 -0.71610011117E+01 -0.25804922069E+00  0.18028504308E+03  0.18042739062E+03  0.00000000000E+00 0.  1.
         11    1    1    2    0    0 -0.12841291831E+01  0.33063824260E+01 -0.10706649317E+03  0.10712523098E+03  0.00000000000E+00 0. -1.
        -15    1    1    2    0    0  0.78140883076E+01  0.82821791635E+01 -0.20742835438E+02  0.23729252386E+02  0.17770000000E+01 0.  1.
         15    1    1    2    0    0  0.63104198713E+00 -0.11330512369E+02 -0.52475714468E+02  0.53718126014E+02  0.17770000000E+01 0. -1.
</event>
<event>
 6    1  0.8353910E-003  0.1840458E+03  0.7546771E-02  0.1067231E+00
        -11   -1    0    0    0    0  0.00000000000E+00  0.00000000000E+00  0.18250000000E+03  0.18250000000E+03  0.00000000000E+00 0.  1.
         11   -1    0    0    0    0 -0.00000000000E+00 -0.00000000000E+00 -0.18250000000E+03  0.18250000000E+03  0.00000000000E+00 0.  1.
        -11    1    1    2    0    0 -0.13560512398E+01 -0.21678321993E+01  0.17506015461E+03  0.17507882825E+03  0.00000000000E+00 0.  1.
         11    1    1    2    0    0  0.51795482685E+00  0.31846002718E+01 -0.18092538711E+03  0.18095415347E+03  0.00000000000E+00 0.  1.
        -15    1    1    2    0    0 -0.15479482487E+01 -0.99358342101E+00  0.53740580661E+01  0.59516032204E+01  0.17770000000E+01 0. -1.
         15    1    1    2    0    0  0.23860446616E+01 -0.23184651509E-01  0.49117443435E+00  0.30154150593E+01  0.17770000000E+01 0.  1.
</event>
<event>
 6    1  0.8353910E-003  0.1900921E+03  0.7546771E-02  0.1062567E+00
        -11   -1    0    0    0    0  0.00000000000E+00  0.00000000000E+00  0.18250000000E+03  0.18250000000E+03  0.00000000000E+00 0. -1.
         11   -1    0    0    0    0 -0.00000000000E+00 -0.00000000000E+00 -0.18250000000E+03  0.18250000000E+03  0.00000000000E+00 0.  1.
        -11    1    1    2    0    0  0.39746644660E+01 -0.11730576404E+01  0.17485877469E+03  0.17490787606E+03  0.00000000000E+00 0. -1.
         11    1    1    2    0    0  0.95107393014E+01 -0.49180859165E+01 -0.14620815728E+03  0.14659968276E+03  0.00000000000E+00 0.  1.
        -15    1    1    2    0    0 -0.20303894674E+02 -0.35414765471E+01 -0.19786023267E+02  0.28625768825E+02  0.17770000000E+01 0. -1.
         15    1    1    2    0    0  0.68184909069E+01  0.96326201040E+01 -0.88645941480E+01  0.14866672349E+02  0.17770000000E+01 0.  1.
</event>
<event>
 6    1  0.8353910E-003  0.1827560E+03  0.7546771E-02  0.1068251E+00
        -11   -1    0    0    0    0  0.00000000000E+00  0.00000000000E+00  0.18250000000E+03  0.18250000000E+03  0.00000000000E+00 0.  1.
         11   -1    0    0    0    0 -0.00000000000E+00 -0.00000000000E+00 -0.18250000000E+03  0.18250000000E+03  0.00000000000E+00 0. -1.
        -11    1    1    2    0    0  0.18282497120E+01 -0.73096247942E-01  0.12208201199E+03  0.12209572266E+03  0.00000000000E+00 0.  1.
         11    1    1    2    0    0 -0.46912406390E+01  0.31212549899E+01 -0.18215691700E+03  0.18224404622E+03  0.00000000000E+00 0. -1.
        -15    1    1    2    0    0  0.45092348115E+01 -0.73295476463E+00  0.41154707449E+02  0.41445604055E+02  0.17770000000E+01 0.  1.
         15    1    1    2    0    0 -0.16462438844E+01 -0.23152039773E+01  0.18920197559E+02  0.19214627060E+02  0.17770000000E+01 0. -1.
</event>
<event>
 6    1  0.8353910E-003  0.2009766E+03  0.7546771E-02  0.1054630E+00
        -11   -1    0    0    0    0  0.00000000000E+00  0.00000000000E+00  0.18250000000E+03  0.18250000000E+03  0.00000000000E+00 0.  1.
         11   -1    0    0    0    0 -0.00000000000E+00 -0.00000000000E+00 -0.18250000000E+03  0.18250000000E+03  0.00000000000E+00 0.  1.
        -11    1    1    2    0    0 -0.38801878061E+01 -0.57395461369E+01  0.16387697503E+03  0.16402335563E+03  0.00000000000E+00 0.  1.
         11    1    1    2    0    0 -0.26585883450E+01  0.16058507312E+01 -0.15787367055E+03  0.15790422003E+03  0.00000000000E+00 0.  1.
        -15    1    1    2    0    0 -0.10432007709E+02 -0.71013639316E+01  0.10733479759E+02  0.16661976812E+02  0.17770000000E+01 0. -1.
         15    1    1    2    0    0  0.16970783861E+02  0.11235059337E+02 -0.16736784237E+02  0.26410447530E+02  0.17770000000E+01 0.  1.
</event>
<event>
 6    1  0.8353910E-003  0.1826993E+03  0.7546771E-02  0.1068296E+00
        -11   -1    0    0    0    0  0.00000000000E+00  0.00000000000E+00  0.18250000000E+03  0.18250000000E+03  0.00000000000E+00 0. -1.
         11   -1    0    0    0    0 -0.00000000000E+00 -0.00000000000E+00 -0.18250000000E+03  0.18250000000E+03  0.00000000000E+00 0.  1.
        -11    1    1    2    0    0  0.20883306579E-01 -0.31078455791E+01  0.81675994556E+02  0.81735104006E+02  0.00000000000E+00 0. -1.
         11    1    1    2    0    0 -0.96901155094E+00  0.44034764443E+01 -0.18224495198E+03  0.18230071890E+03  0.00000000000E+00 0.  1.
        -15    1    1    2    0    0  0.29532371332E+01 -0.13461397625E+00  0.87712673414E+02  0.87780467856E+02  0.17770000000E+01 0. -1.
         15    1    1    2    0    0 -0.20051088888E+01 -0.11610168890E+01  0.12856284009E+02  0.13183709242E+02  0.17770000000E+01 0. -1.
</event>
<event>
 6    1  0.8353910E-003  0.1929729E+03  0.7546771E-02  0.1060411E+00
        -11   -1    0    0    0    0  0.00000000000E+00  0.00000000000E+00  0.18250000000E+03  0.18250000000E+03  0.00000000000E+00 0. -1.
         11   -1    0    0    0    0 -0.00000000000E+00 -0.00000000000E+00 -0.18250000000E+03  0.18250000000E+03  0.00000000000E+00 0. -1.
        -11    1    1    2    0    0  0.38311715764E+01 -0.52085714989E+01  0.17190553799E+03  0.17202709404E+03  0.00000000000E+00 0. -1.
         11    1    1    2    0    0 -0.22999041088E+01  0.18642165796E+00 -0.16391638608E+03  0.16393262622E+03  0.00000000000E+00 0. -1.
        -15    1    1    2    0    0 -0.51607453268E+01  0.15607594399E+02 -0.38452557161E+01  0.16975688963E+02  0.17770000000E+01 0. -1.
         15    1    1    2    0    0  0.36294778592E+01 -0.10585444558E+02 -0.41438961918E+01  0.12064590779E+02  0.17770000000E+01 0.  1.
</event>
<event>
 6    1  0.8353910E-003  0.1827274E+03  0.7546771E-02  0.1068274E+00
        -11   -1    0    0    0    0  0.00000000000E+00  0.00000000000E+00  0.18250000000E+03  0.18250000000E+03  0.00000000000E+00 0. -1.
         11   -1    0    0    0    0 -0.00000000000E+00 -0.00000000000E+00 -0.18250000000E+03  0.18250000000E+03  0.00000000000E+00 0.  1.
        -11    1    1    2    0    0  0.62192817888E-01  0.24902620579E+01  0.77405211582E+02  0.77445284254E+02  0.00000000000E+00 0. -1.
         11    1    1    2    0    0 -0.25316209190E+01  0.22448510835E+00 -0.18225484172E+03  0.18227256192E+03  0.00000000000E+00 0.  1.
        -15    1    1    2    0    0  0.20624655803E+01  0.48999301002E+00  0.10430258894E+02  0.10790824205E+02  0.17770000000E+01 0.  1.
         15    1    1    2    0    0  0.40696252087E+00 -0.32047401763E+01  0.94419371245E+02  0.94491329621E+02  0.17770000000E+01 0. -1.
</event>
<event>
 6    1  0.8353910E-003  0.1838817E+03  0.7546771E-02  0.1067360E+00
        -11   -1    0    0    0    0  0.00000000000E+00  0.00000000000E+00  0.18250000000E+03  0.18250000000E+03  0.00000000000E+00 0.  1.
         11   -1    0    0    0    0 -0.00000000000E+00 -0.00000000000E+00 -0.18250000000E+03  0.18250000000E+03  0.00000000000E+00 0. -1.
        -11    1    1    2    0    0  0.36957146499E+01  0.13904212720E+00  0.14099943947E+03  0.14104793359E+03  0.00000000000E+00 0.  1.
         11    1    1    2    0    0 -0.10423127392E+01  0.39600775805E+01 -0.18107197212E+03  0.18111826997E+03  0.00000000000E+00 0. -1.
        -15    1    1    2    0    0  0.61002168200E+00 -0.23452395116E+01  0.38200413967E+02  0.38318424173E+02  0.17770000000E+01 0. -1.
         15    1    1    2    0    0 -0.32634235927E+01 -0.17538801962E+01  0.18721186835E+01  0.45153722607E+01  0.17770000000E+01 0.  1.
</event>
<event>
 6    1  0.8353910E-003  0.1825830E+03  0.7546771E-02  0.1068389E+00
        -11   -1    0    0    0    0  0.00000000000E+00  0.00000000000E+00  0.18250000000E+03  0.18250000000E+03  0.00000000000E+00 0. -1.
         11   -1    0    0    0    0 -0.00000000000E+00 -0.00000000000E+00 -0.18250000000E+03  0.18250000000E+03  0.00000000000E+00 0.  1.
        -11    1    1    2    0    0  0.23966584677E+01 -0.13923243953E+01  0.18239592804E+03  0.18241698689E+03  0.00000000000E+00 0. -1.
         11    1    1    2    0    0  0.10911538506E+00  0.95922702301E+00 -0.51516665409E+02  0.51525710451E+02  0.00000000000E+00 0.  1.
        -15    1    1    2    0    0 -0.11698266354E+01 -0.19158523661E+01 -0.91732640064E+02  0.91777306382E+02  0.17770000000E+01 0.  1.
         15    1    1    2    0    0 -0.13359472173E+01  0.23489497384E+01 -0.39146622571E+02  0.39279996277E+02  0.17770000000E+01 0. -1.
</event>
<event>
 6    1  0.8353910E-003  0.1924939E+03  0.7546771E-02  0.1060767E+00
        -11   -1    0    0    0    0  0.00000000000E+00  0.00000000000E+00  0.18250000000E+03  0.18250000000E+03  0.00000000000E+00 0. -1.
         11   -1    0    0    0    0 -0.00000000000E+00 -0.00000000000E+00 -0.18250000000E+03  0.18250000000E+03  0.00000000000E+00 0. -1.
        -11    1    1    2    0    0 -0.39234039790E+01  0.10271857758E+01  0.15453834823E+03  0.15459155631E+03  0.00000000000E+00 0. -1.
         11    1    1    2    0    0 -0.12331895063E+01 -0.25665089321E+01 -0.17248263149E+03  0.17250613291E+03  0.00000000000E+00 0. -1.
        -15    1    1    2    0    0  0.83638938800E+01  0.10897661950E+02 -0.34410340011E+01  0.14272778315E+02  0.17770000000E+01 0. -1.
         15    1    1    2    0    0 -0.32073003947E+01 -0.93583387941E+01  0.21385317265E+02  0.23629532462E+02  0.17770000000E+01 0.  1.
</event>
<event>
 6    1  0.8353910E-003  0.1877030E+03  0.7546771E-02  0.1064387E+00
        -11   -1    0    0    0    0  0.00000000000E+00  0.00000000000E+00  0.18250000000E+03  0.18250000000E+03  0.00000000000E+00 0. -1.
         11   -1    0    0    0    0 -0.00000000000E+00 -0.00000000000E+00 -0.18250000000E+03  0.18250000000E+03  0.00000000000E+00 0. -1.
        -11    1    1    2    0    0 -0.44710734708E+01  0.36734687709E+00  0.16809577128E+03  0.16815562364E+03  0.00000000000E+00 0. -1.
         11    1    1    2    0    0 -0.17141527015E+01  0.20045397212E+01 -0.17727740537E+03  0.17729702467E+03  0.00000000000E+00 0. -1.
        -15    1    1    2    0    0 -0.32745950109E+01 -0.41073656935E+01 -0.76475113846E+00  0.55978566192E+01  0.17770000000E+01 0.  1.
         15    1    1    2    0    0  0.94598211832E+01  0.17354790953E+01  0.99463852375E+01  0.13949495073E+02  0.17770000000E+01 0. -1.
</event>
<event>
 6    1  0.8353910E-003  0.1847129E+03  0.7546771E-02  0.1066707E+00
        -11   -1    0    0    0    0  0.00000000000E+00  0.00000000000E+00  0.18250000000E+03  0.18250000000E+03  0.00000000000E+00 0.  1.
         11   -1    0    0    0    0 -0.00000000000E+00 -0.00000000000E+00 -0.18250000000E+03  0.18250000000E+03  0.00000000000E+00 0.  1.
        -11    1    1    2    0    0 -0.22389523640E+00 -0.25404472526E+01  0.18026902367E+03  0.18028706248E+03  0.00000000000E+00 0.  1.
         11    1    1    2    0    0  0.20766748621E+01 -0.26624002967E+01 -0.12314437160E+03  0.12319065391E+03  0.00000000000E+00 0.  1.
        -15    1    1    2    0    0 -0.11506578292E+02  0.43902588336E+01 -0.25064703855E+02  0.27983438405E+02  0.17770000000E+01 0.  1.
         15    1    1    2    0    0  0.96537986666E+01  0.81258871564E+00 -0.32059948214E+02  0.33538845204E+02  0.17770000000E+01 0. -1.
</event>
<event>
 6    1  0.8353910E-003  0.1854063E+03  0.7546771E-02  0.1066165E+00
        -11   -1    0    0    0    0  0.00000000000E+00  0.00000000000E+00  0.18250000000E+03  0.18250000000E+03  0.00000000000E+00 0.  1.
         11   -1    0    0    0    0 -0.00000000000E+00 -0.00000000000E+00 -0.18250000000E+03  0.18250000000E+03  0.00000000000E+00 0. -1.
        -11    1    1    2    0    0  0.34917671485E+01  0.33661475168E+00  0.17955945100E+03  0.17959371423E+03  0.00000000000E+00 0.  1.
         11    1    1    2    0    0  0.23788426251E+01 -0.26786853131E+01 -0.66962263780E+02  0.67058027244E+02  0.00000000000E+00 0. -1.
        -15    1    1    2    0    0 -0.40695418650E+01 -0.17864098726E+01 -0.11334737393E+03  0.11344839063E+03  0.17770000000E+01 0.  1.
         15    1    1    2    0    0 -0.18010679087E+01  0.41284804340E+01  0.75018670447E+00  0.48998678959E+01  0.17770000000E+01 0. -1.
</event>
<event>
 6    1  0.8353910E-003  0.1829759E+03  0.7546771E-02  0.1068077E+00
        -11   -1    0    0    0    0  0.00000000000E+00  0.00000000000E+00  0.18250000000E+03  0.18250000000E+03  0.00000000000E+00 0. -1.
         11   -1    0    0    0    0 -0.00000000000E+00 -0.00000000000E+00 -0.18250000000E+03  0.18250000000E+03  0.00000000000E+00 0. -1.
        -11    1    1    2    0    0  0.15272662519E+01 -0.25624627949E+01  0.12669893867E+03  0.12673405153E+03  0.00000000000E+00 0. -1.
         11    1    1    2    0    0 -0.60384106297E+01  0.51959949449E+01 -0.18184972593E+03  0.18202412914E+03  0.00000000000E+00 0. -1.
        -15    1    1    2    0    0 -0.14547482663E+01  0.13586928301E+01  0.27155197184E+02  0.27285981783E+02  0.17770000000E+01 0. -1.
         15    1    1    2    0    0  0.59658926440E+01 -0.39922249801E+01  0.27995590081E+02  0.28955837552E+02  0.17770000000E+01 0. -1.
</event>
<event>
 6    1  0.8353910E-003  0.1867354E+03  0.7546771E-02  0.1065133E+00
        -11   -1    0    0    0    0  0.00000000000E+00  0.00000000000E+00  0.18250000000E+03  0.18250000000E+03  0.00000000000E+00 0. -1.
         11   -1    0    0    0    0 -0.00000000000E+00 -0.00000000000E+00 -0.18250000000E+03  0.18250000000E+03  0.00000000000E+00 0. -1.
        -11    1    1    2    0    0 -0.19678202145E+01  0.62649600154E+01  0.17436653177E+03  0.17449014139E+03  0.00000000000E+00 0. -1.
         11    1    1    2    0    0  0.32997673154E+01 -0.29367190503E+01 -0.17820988783E+03  0.17826462606E+03  0.00000000000E+00 0. -1.
        -15    1    1    2    0    0 -0.47400370864E+01  0.51575674782E+00 -0.73113974839E+00  0.51406469374E+01  0.17770000000E+01 0. -1.
         15    1    1    2    0    0  0.34080899855E+01 -0.38439977130E+01  0.45744958074E+01  0.71045856078E+01  0.17770000000E+01 0. -1.
</event>
<event>
 6    1  0.8353910E-003  0.1834002E+03  0.7546771E-02  0.1067740E+00
        -11   -1    0    0    0    0  0.00000000000E+00  0.00000000000E+00  0.18250000000E+03  0.18250000000E+03  0.00000000000E+00 0.  1.
         11   -1    0    0    0    0 -0.00000000000E+00 -0.00000000000E+00 -0.18250000000E+03  0.18250000000E+03  0.00000000000E+00 0. -1.
        -11    1    1    2    0    0  0.18817669480E+00 -0.27872914329E+01  0.18157826326E+03  0.18159975246E+03  0.00000000000E+00 0.  1.
         11    1    1    2    0    0  0.21641041220E+01  0.89178133097E+00 -0.15535825896E+03  0.15537589018E+03  0.00000000000E+00 0. -1.
        -15    1    1    2    0    0  0.26358455013E+01  0.17712364906E+01 -0.51971581723E+01  0.63445364118E+01  0.17770000000E+01 0.  1.
         15    1    1    2    0    0 -0.49881263181E+01  0.12427361128E+00 -0.21022846129E+02  0.21679820951E+02  0.17770000000E+01 0. -1.
</event>
<event>
 6    1  0.8353910E-003  0.1898358E+03  0.7546771E-02  0.1062761E+00
        -11   -1    0    0    0    0  0.00000000000E+00  0.00000000000E+00  0.18250000000E+03  0.18250000000E+03  0.00000000000E+00 0. -1.
         11   -1    0    0    0    0 -0.00000000000E+00 -0.00000000000E+00 -0.18250000000E+03  0.18250000000E+03  0.00000000000E+00 0. -1.
        -11    1    1    2    0    0 -0.11739513051E+01  0.82504888942E+01  0.16380999601E+03  0.16402183855E+03  0.00000000000E+00 0. -1.
         11    1    1    2    0    0  0.98885125965E+01  0.44416500515E+01 -0.17482841549E+03  0.17516416814E+03  0.00000000000E+00 0. -1.
        -15    1    1    2    0    0 -0.92044983800E+01 -0.74190123122E+01 -0.15548496487E+01  0.12055696601E+02  0.17770000000E+01 0.  1.
         15    1    1    2    0    0  0.48993708851E+00 -0.52731266335E+01  0.12573269130E+02  0.13758296713E+02  0.17770000000E+01 0. -1.
</event>
<event>
 6    1  0.8353910E-003  0.1788201E+03  0.7546771E-02  0.1071422E+00
        -11   -1    0    0    0    0  0.00000000000E+00  0.00000000000E+00  0.18250000000E+03  0.18250000000E+03  0.00000000000E+00 0.  1.
         11   -1    0    0    0    0 -0.00000000000E+00 -0.00000000000E+00 -0.18250000000E+03  0.18250000000E+03  0.00000000000E+00 0. -1.
        -11    1    1    2    0    0  0.29249530541E+01 -0.50051569414E-01  0.17912981728E+03  0.17915370299E+03  0.00000000000E+00 0.  1.
         11    1    1    2    0    0  0.15323438220E+01  0.29486713415E+01 -0.17849556062E+03  0.17852649076E+03  0.00000000000E+00 0. -1.
        -15    1    1    2    0    0 -0.37178115580E+01 -0.26126200483E+01 -0.16167303469E+01  0.51399856334E+01  0.17770000000E+01 0. -1.
         15    1    1    2    0    0 -0.73948531811E+00 -0.28599972378E+00  0.98247369004E+00  0.21798206186E+01  0.17770000000E+01 0. -1.
</event>
<event>
 6    1  0.8353910E-003  0.1869310E+03  0.7546771E-02  0.1064981E+00
        -11   -1    0    0    0    0  0.00000000000E+00  0.00000000000E+00  0.18250000000E+03  0.18250000000E+03  0.00000000000E+00 0.  1.
         11   -1    0    0    0    0 -0.00000000000E+00 -0.00000000000E+00 -0.18250000000E+03  0.18250000000E+03  0.00000000000E+00 0.  1.
        -11    1    1    2    0    0  0.20995890825E+01  0.11633518810E+01  0.17098875529E+03  0.17100560253E+03  0.00000000000E+00 0.  1.
         11    1    1    2    0    0  0.73496272180E+01  0.52080224039E+01 -0.17784097274E+03  0.17806895322E+03  0.00000000000E+00 0.  1.
        -15    1    1    2    0    0 -0.94634012368E+01 -0.69579678672E+01  0.40407147475E+01  0.12548082901E+02  0.17770000000E+01 0.  1.
         15    1    1    2    0    0  0.14184936311E-01  0.58659358222E+00  0.28115026986E+01  0.33773613469E+01  0.17770000000E+01 0. -1.
</event>
<event>
 6    1  0.8353910E-003  0.1828190E+03  0.7546771E-02  0.1068201E+00
        -11   -1    0    0    0    0  0.00000000000E+00  0.00000000000E+00  0.18250000000E+03  0.18250000000E+03  0.00000000000E+00 0. -1.
         11   -1    0    0    0    0 -0.00000000000E+00 -0.00000000000E+00 -0.18250000000E+03  0.18250000000E+03  0.00000000000E+00 0. -1.
        -11    1    1    2    0    0 -0.16833935526E+01  0.92825563261E+00  0.50195962532E+02  0.50232759499E+02  0.00000000000E+00 0. -1.
         11    1    1    2    0    0  0.34460207729E+01  0.38292806751E+01 -0.18210813814E+03  0.18218098810E+03  0.00000000000E+00 0. -1.
        -15    1    1    2    0    0 -0.32746980521E+01  0.23681557109E+01  0.23231858398E+02  0.23647595701E+02  0.17770000000E+01 0.  1.
         15    1    1    2    0    0  0.15120708319E+01 -0.71256920186E+01  0.10868031721E+03  0.10893865670E+03  0.17770000000E+01 0. -1.
</event>
<event>
 6    1  0.8353910E-003  0.1832287E+03  0.7546771E-02  0.1067876E+00
        -11   -1    0    0    0    0  0.00000000000E+00  0.00000000000E+00  0.18250000000E+03  0.18250000000E+03  0.00000000000E+00 0. -1.
         11   -1    0    0    0    0 -0.00000000000E+00 -0.00000000000E+00 -0.18250000000E+03  0.18250000000E+03  0.00000000000E+00 0.  1.
        -11    1    1    2    0    0  0.60715271721E+01 -0.11562643534E+01  0.14455849019E+03  0.14469055766E+03  0.00000000000E+00 0. -1.
         11    1    1    2    0    0 -0.26973221593E+01 -0.27916282766E+01 -0.18172981311E+03  0.18177126756E+03  0.00000000000E+00 0.  1.
        -15    1    1    2    0    0 -0.37104563205E+01 -0.13494274469E+01  0.20499870002E+02  0.20952108239E+02  0.17770000000E+01 0. -1.
         15    1    1    2    0    0  0.33625130769E+00  0.52973200770E+01  0.16671452926E+02  0.17586066547E+02  0.17770000000E+01 0. -1.
</event>
<event>
 6    1  0.9547809E-003  0.1865387E+03  0.7546771E-02  0.1065285E+00
        -11   -1    0    0    0    0  0.00000000000E+00  0.00000000000E+00  0.18250000000E+03  0.18250000000E+03  0.00000000000E+00 0.  1.
         11   -1    0    0    0    0 -0.00000000000E+00 -0.00000000000E+00 -0.18250000000E+03  0.18250000000E+03  0.00000000000E+00 0. -1.
        -11    1    1    2    0    0  0.18382366050E+01  0.23909004195E+01  0.17843578508E+03  0.17846127007E+03  0.00000000000E+00 0.  1.
         11    1    1    2    0    0  0.10045621858E+02  0.11976510914E+02 -0.12568618720E+03  0.12665452611E+03  0.00000000000E+00 0. -1.
        -15    1    1    2    0    0 -0.80059107932E+01 -0.16050041059E+02 -0.52250215282E+02  0.55271522067E+02  0.17770000000E+01 0.  1.
         15    1    1    2    0    0 -0.38779476699E+01  0.16826297257E+01 -0.49938259627E+00  0.46126817473E+01  0.17770000000E+01 0. -1.
</event>
<event>
 6    1  0.8353910E-003  0.1857480E+03  0.7546771E-02  0.1065898E+00
        -11   -1    0    0    0    0  0.00000000000E+00  0.00000000000E+00  0.18250000000E+03  0.18250000000E+03  0.00000000000E+00 0. -1.
         11   -1    0    0    0    0 -0.00000000000E+00 -0.00000000000E+00 -0.18250000000E+03  0.18250000000E+03  0.00000000000E+00 0. -1.
        -11    1    1    2    0    0 -0.30555355749E+01  0.10524380060E+02  0.17891668723E+03  0.17925200094E+03  0.00000000000E+00 0. -1.
         11    1    1    2    0    0 -0.28090259991E+01  0.12797436333E+01 -0.93068628595E+02  0.93119804550E+02  0.00000000000E+00 0. -1.
        -15    1    1    2    0    0  0.14350436013E+01 -0.44089798231E+00 -0.77961221643E+02  0.77995920087E+02  0.17770000000E+01 0. -1.
         15    1    1    2    0    0  0.44295179726E+01 -0.11363225711E+02 -0.78868369903E+01  0.14632274421E+02  0.17770000000E+01 0. -1.
</event>
<event>
 6    1  0.8353910E-003  0.1922911E+03  0.7546771E-02  0.1060918E+00
        -11   -1    0    0    0    0  0.00000000000E+00  0.00000000000E+00  0.18250000000E+03  0.18250000000E+03  0.00000000000E+00 0. -1.
         11   -1    0    0    0    0 -0.00000000000E+00 -0.00000000000E+00 -0.18250000000E+03  0.18250000000E+03  0.00000000000E+00 0. -1.
        -11    1    1    2    0    0 -0.35773619745E+01 -0.16426523232E+01  0.17266405648E+03  0.17270892341E+03  0.00000000000E+00 0. -1.
         11    1    1    2    0    0 -0.15848023171E+01 -0.26217407971E+01 -0.13235577085E+03  0.13239122026E+03  0.00000000000E+00 0. -1.
        -15    1    1    2    0    0 -0.15698432163E+01  0.40651614155E+00 -0.48452242512E+02  0.48511928395E+02  0.17770000000E+01 0. -1.
         15    1    1    2    0    0  0.67320075078E+01  0.38578769788E+01  0.81439568828E+01  0.11387927932E+02  0.17770000000E+01 0. -1.
</event>
<event>
 6    1  0.8353910E-003  0.1854159E+03  0.7546771E-02  0.1066157E+00
        -11   -1    0    0    0    0  0.00000000000E+00  0.00000000000E+00  0.18250000000E+03  0.18250000000E+03  0.00000000000E+00 0. -1.
         11   -1    0    0    0    0 -0.00000000000E+00 -0.00000000000E+00 -0.18250000000E+03  0.18250000000E+03  0.00000000000E+00 0.  1.
        -11    1    1    2    0    0  0.52784412529E+01  0.11835560856E+00  0.16716610747E+03  0.16724946469E+03  0.00000000000E+00 0. -1.
         11    1    1    2    0    0 -0.18282005182E+01  0.32286834136E+01 -0.17954580893E+03  0.17958414245E+03  0.00000000000E+00 0.  1.
        -15    1    1    2    0    0  0.41663119585E+01 -0.53026688592E+00  0.23204806556E+01  0.51168054271E+01  0.17770000000E+01 0.  1.
         15    1    1    2    0    0 -0.76165526932E+01 -0.28167721362E+01  0.10059220802E+02  0.13049587440E+02  0.17770000000E+01 0. -1.
</event>
<event>
 6    1  0.8353910E-003  0.1848150E+03  0.7546771E-02  0.1066627E+00
        -11   -1    0    0    0    0  0.00000000000E+00  0.00000000000E+00  0.18250000000E+03  0.18250000000E+03  0.00000000000E+00 0.  1.
         11   -1    0    0    0    0 -0.00000000000E+00 -0.00000000000E+00 -0.18250000000E+03  0.18250000000E+03  0.00000000000E+00 0. -1.
        -11    1    1    2    0    0  0.84313991568E+01  0.19059827454E+01  0.17997754736E+03  0.18018501274E+03  0.00000000000E+00 0.  1.
         11    1    1    2    0    0  0.19318904068E+01 -0.27538944999E+01 -0.16399995341E+03  0.16403445021E+03  0.00000000000E+00 0. -1.
        -15    1    1    2    0    0 -0.37736908137E+01  0.87367463797E+00 -0.12321989364E+02  0.13038144064E+02  0.17770000000E+01 0.  1.
         15    1    1    2    0    0 -0.65895987499E+01 -0.25762883432E-01 -0.36556045782E+01  0.77423929920E+01  0.17770000000E+01 0. -1.
</event>
<event>
 6    1  0.8553129E-003  0.1831135E+03  0.7546771E-02  0.1067967E+00
        -11   -1    0    0    0    0  0.00000000000E+00  0.00000000000E+00  0.18250000000E+03  0.18250000000E+03  0.00000000000E+00 0. -1.
         11   -1    0    0    0    0 -0.00000000000E+00 -0.00000000000E+00 -0.18250000000E+03  0.18250000000E+03  0.00000000000E+00 0. -1.
        -11    1    1    2    0    0  0.39361100878E+01  0.14696539417E+01  0.18183794101E+03  0.18188647458E+03  0.00000000000E+00 0. -1.
         11    1    1    2    0    0  0.12323434329E+01 -0.31934554109E+01 -0.12918180111E+03  0.12922714330E+03  0.00000000000E+00 0. -1.
        -15    1    1    2    0    0 -0.27072763833E+01 -0.92732897562E+00 -0.48181213892E+01  0.58788865583E+01  0.17770000000E+01 0.  1.
         15    1    1    2    0    0 -0.24611771374E+01  0.26511304448E+01 -0.47838018508E+02  0.48007495553E+02  0.17770000000E+01 0. -1.
</event>
<event>
 6    1  0.8353910E-003  0.1944677E+03  0.7546771E-02  0.1059309E+00
        -11   -1    0    0    0    0  0.00000000000E+00  0.00000000000E+00  0.18250000000E+03  0.18250000000E+03  0.00000000000E+00 0. -1.
         11   -1    0    0    0    0 -0.00000000000E+00 -0.00000000000E+00 -0.18250000000E+03  0.18250000000E+03  0.00000000000E+00 0. -1.
        -11    1    1    2    0    0 -0.73706804796E+01  0.11895040075E+00  0.16415903408E+03  0.16432446424E+03  0.00000000000E+00 0. -1.
         11    1    1    2    0    0 -0.18219063017E+01 -0.15593271999E+01 -0.17051546034E+03  0.17053232262E+03  0.00000000000E+00 0. -1.
        -15    1    1    2    0    0  0.85517291686E+00  0.14039159721E+01 -0.10755968983E+02  0.11025012406E+02  0.17770000000E+01 0. -1.
         15    1    1    2    0    0  0.83374138645E+01  0.36460827025E-01  0.17112395242E+02  0.19118200733E+02  0.17770000000E+01 0. -1.
</event>
<event>
 6    1  0.8353910E-003  0.1732298E+03  0.7546771E-02  0.1076083E+00
        -11   -1    0    0    0    0  0.00000000000E+00  0.00000000000E+00  0.18250000000E+03  0.18250000000E+03  0.00000000000E+00 0.  1.
         11   -1    0    0    0    0 -0.00000000000E+00 -0.00000000000E+00 -0.18250000000E+03  0.18250000000E+03  0.00000000000E+00 0.  1.
        -11    1    1    2    0    0 -0.73934921707E+01  0.46054838044E+01  0.17369315551E+03  0.17391143286E+03  0.00000000000E+00 0.  1.
         11    1    1    2    0    0 -0.32892319020E+01 -0.92472348983E+00 -0.17270005246E+03  0.17273384810E+03  0.00000000000E+00 0.  1.
        -15    1    1    2    0    0 -0.13602819231E+01  0.31820029753E+01 -0.19420100587E+01  0.43479468618E+01  0.17770000000E+01 0. -1.
         15    1    1    2    0    0  0.12043005996E+02 -0.68627632899E+01  0.94890701196E+00  0.14006772180E+02  0.17770000000E+01 0.  1.
</event>
<event>
 6    1  0.8353910E-003  0.1826484E+03  0.7546771E-02  0.1068337E+00
        -11   -1    0    0    0    0  0.00000000000E+00  0.00000000000E+00  0.18250000000E+03  0.18250000000E+03  0.00000000000E+00 0.  1.
         11   -1    0    0    0    0 -0.00000000000E+00 -0.00000000000E+00 -0.18250000000E+03  0.18250000000E+03  0.00000000000E+00 0.  1.
        -11    1    1    2    0    0  0.10917509552E+01 -0.16979005247E+01  0.71713098054E+02  0.71741502764E+02  0.00000000000E+00 0.  1.
         11    1    1    2    0    0  0.26132886892E+01  0.71929084519E+01 -0.18219090744E+03  0.18235156693E+03  0.00000000000E+00 0.  1.
        -15    1    1    2    0    0 -0.36600872788E+01 -0.10550040433E+01  0.73654906807E+02  0.73774740245E+02  0.17770000000E+01 0.  1.
         15    1    1    2    0    0 -0.44952365660E-01 -0.44400038839E+01  0.36822902578E+02  0.37132190057E+02  0.17770000000E+01 0. -1.
</event>
<event>
 6    1  0.8353910E-003  0.1827040E+03  0.7546771E-02  0.1068293E+00
        -11   -1    0    0    0    0  0.00000000000E+00  0.00000000000E+00  0.18250000000E+03  0.18250000000E+03  0.00000000000E+00 0.  1.
         11   -1    0    0    0    0 -0.00000000000E+00 -0.00000000000E+00 -0.18250000000E+03  0.18250000000E+03  0.00000000000E+00 0.  1.
        -11    1    1    2    0    0 -0.21514187025E+01  0.20026455866E+01  0.18227230615E+03  0.18229600319E+03  0.00000000000E+00 0.  1.
         11    1    1    2    0    0  0.22615316765E+01  0.28136911621E+01 -0.11167467754E+03  0.11173300760E+03  0.00000000000E+00 0.  1.
        -15    1    1    2    0    0  0.14083069147E+01 -0.13272922782E+01 -0.16217510495E+02  0.16428950326E+02  0.17770000000E+01 0. -1.
         15    1    1    2    0    0 -0.15184198887E+01 -0.34890444705E+01 -0.54380118112E+02  0.54542038879E+02  0.17770000000E+01 0.  1.
</event>
<event>
 6    1  0.8353910E-003  0.1850681E+03  0.7546771E-02  0.1066429E+00
        -11   -1    0    0    0    0  0.00000000000E+00  0.00000000000E+00  0.18250000000E+03  0.18250000000E+03  0.00000000000E+00 0. -1.
         11   -1    0    0    0    0 -0.00000000000E+00 -0.00000000000E+00 -0.18250000000E+03  0.18250000000E+03  0.00000000000E+00 0. -1.
        -11    1    1    2    0    0 -0.82540969663E+00 -0.23244778661E+01  0.14095052364E+03  0.14097210579E+03  0.00000000000E+00 0. -1.
         11    1    1    2    0    0 -0.22871163845E+01  0.24581463907E+01 -0.17990057551E+03  0.17993190504E+03  0.00000000000E+00 0. -1.
        -15    1    1    2    0    0  0.78960106454E+01  0.49537020796E+00  0.45183830065E+01  0.92825583623E+01  0.17770000000E+01 0. -1.
         15    1    1    2    0    0 -0.47834845643E+01 -0.62903873253E+00  0.34431668865E+02  0.34813430801E+02  0.17770000000E+01 0.  1.
</event>
<event>
 6    1  0.8353910E-003  0.1825737E+03  0.7546771E-02  0.1068396E+00
        -11   -1    0    0    0    0  0.00000000000E+00  0.00000000000E+00  0.18250000000E+03  0.18250000000E+03  0.00000000000E+00 0.  1.
         11   -1    0    0    0    0 -0.00000000000E+00 -0.00000000000E+00 -0.18250000000E+03  0.18250000000E+03  0.00000000000E+00 0. -1.
        -11    1    1    2    0    0  0.42768352349E+01  0.46761301784E+01  0.18231617671E+03  0.18242627498E+03  0.00000000000E+00 0.  1.
         11    1    1    2    0    0 -0.24005413881E+00  0.50858427822E+00 -0.29654703354E+02  0.29660035654E+02  0.00000000000E+00 0. -1.
        -15    1    1    2    0    0 -0.18603542548E+01  0.48786637026E-01 -0.30698498627E+02  0.30806149468E+02  0.17770000000E+01 0.  1.
         15    1    1    2    0    0 -0.21764268414E+01 -0.52335010936E+01 -0.12196297473E+03  0.12210753990E+03  0.17770000000E+01 0. -1.
</event>
<event>
 6    1  0.8353910E-003  0.1842720E+03  0.7546771E-02  0.1067053E+00
        -11   -1    0    0    0    0  0.00000000000E+00  0.00000000000E+00  0.18250000000E+03  0.18250000000E+03  0.00000000000E+00 0. -1.
         11   -1    0    0    0    0 -0.00000000000E+00 -0.00000000000E+00 -0.18250000000E+03  0.18250000000E+03  0.00000000000E+00 0.  1.
        -11    1    1    2    0    0  0.37956032457E+01 -0.13597663962E+01  0.18068301288E+03  0.18072799095E+03  0.00000000000E+00 0. -1.
         11    1    1    2    0    0 -0.37161187713E+00 -0.33423075444E+01 -0.17431789543E+03  0.17435033060E+03  0.00000000000E+00 0.  1.
        -15    1    1    2    0    0 -0.19530089033E+01  0.44315628810E+01 -0.35021536075E+01  0.62350462898E+01  0.17770000000E+01 0.  1.
         15    1    1    2    0    0 -0.14709824652E+01  0.27051105952E+00 -0.28629638500E+01  0.36866321559E+01  0.17770000000E+01 0.  1.
</event>
<event>
 6    1  0.8353910E-003  0.1956497E+03  0.7546771E-02  0.1058444E+00
        -11   -1    0    0    0    0  0.00000000000E+00  0.00000000000E+00  0.18250000000E+03  0.18250000000E+03  0.00000000000E+00 0.  1.
         11   -1    0    0    0    0 -0.00000000000E+00 -0.00000000000E+00 -0.18250000000E+03  0.18250000000E+03  0.00000000000E+00 0.  1.
        -11    1    1    2    0    0 -0.59442633359E+00 -0.12650244285E+02  0.16887610040E+03  0.16935028583E+03  0.00000000000E+00 0.  1.
         11    1    1    2    0    0 -0.17378706532E+01 -0.32930994064E+01 -0.13608625204E+03  0.13613718336E+03  0.00000000000E+00 0.  1.
        -15    1    1    2    0    0  0.17327993159E+02  0.78289094485E+01 -0.37196460704E+02  0.41812505163E+02  0.17770000000E+01 0.  1.
         15    1    1    2    0    0 -0.14995696172E+02  0.81144342430E+01  0.44066123424E+01  0.17700025653E+02  0.17770000000E+01 0. -1.
</event>
<event>
 6    1  0.8353910E-003  0.1832320E+03  0.7546771E-02  0.1067874E+00
        -11   -1    0    0    0    0  0.00000000000E+00  0.00000000000E+00  0.18250000000E+03  0.18250000000E+03  0.00000000000E+00 0. -1.
         11   -1    0    0    0    0 -0.00000000000E+00 -0.00000000000E+00 -0.18250000000E+03  0.18250000000E+03  0.00000000000E+00 0.  1.
        -11    1    1    2    0    0  0.35886341940E+01  0.65837994038E+00  0.18173137778E+03  0.18176799892E+03  0.00000000000E+00 0. -1.
         11    1    1    2    0    0 -0.12804543170E+01  0.50029591797E-01 -0.40504976828E+02  0.40525241690E+02  0.00000000000E+00 0.  1.
        -15    1    1    2    0    0 -0.51025395335E+01 -0.43679158962E+01 -0.16766553330E+02  0.18149094703E+02  0.17770000000E+01 0. -1.
         15    1    1    2    0    0  0.27943596565E+01  0.36595063641E+01 -0.12445984763E+03  0.12455766469E+03  0.17770000000E+01 0.  1.
</event>
<event>
 6    1  0.8353910E-003  0.1827332E+03  0.7546771E-02  0.1068269E+00
        -11   -1    0    0    0    0  0.00000000000E+00  0.00000000000E+00  0.18250000000E+03  0.18250000000E+03  0.00000000000E+00 0.  1.
         11   -1    0    0    0    0 -0.00000000000E+00 -0.00000000000E+00 -0.18250000000E+03  0.18250000000E+03  0.00000000000E+00 0.  1.
        -11    1    1    2    0    0  0.11539945249E+01  0.98304608373E+00  0.48450446474E+02  0.48474156481E+02  0.00000000000E+00 0.  1.
         11    1    1    2    0    0  0.30362671914E+01  0.58988609667E+01 -0.18214600484E+03  0.18226678951E+03  0.00000000000E+00 0.  1.
        -15    1    1    2    0    0 -0.82397261659E+00 -0.41073392654E+01  0.22074132270E+02  0.22538283235E+02  0.17770000000E+01 0. -1.
         15    1    1    2    0    0 -0.33662890997E+01 -0.27745677850E+01  0.11162142610E+03  0.11172077077E+03  0.17770000000E+01 0.  1.
</event>
<event>
 6    1  0.8353910E-003  0.1827090E+03  0.7546771E-02  0.1068289E+00
        -11   -1    0    0    0    0  0.00000000000E+00  0.00000000000E+00  0.18250000000E+03  0.18250000000E+03  0.00000000000E+00 0. -1.
         11   -1    0    0    0    0 -0.00000000000E+00 -0.00000000000E+00 -0.18250000000E+03  0.18250000000E+03  0.00000000000E+00 0.  1.
        -11    1    1    2    0    0 -0.10009330690E+01  0.12028362055E+01  0.31562596480E+02  0.31601363555E+02  0.00000000000E+00 0. -1.
         11    1    1    2    0    0 -0.23559321085E+01 -0.23375079679E+01 -0.18226083571E+03  0.18229104913E+03  0.00000000000E+00 0.  1.
        -15    1    1    2    0    0  0.29089779212E+01  0.72072538023E+00  0.15116431088E+02  0.15512762986E+02  0.17770000000E+01 0.  1.
         15    1    1    2    0    0  0.44788725634E+00  0.41394638221E+00  0.13558180815E+03  0.13559482432E+03  0.17770000000E+01 0. -1.
</event>
<event>
 6    1  0.8353910E-003  0.1836881E+03  0.7546771E-02  0.1067513E+00
        -11   -1    0    0    0    0  0.00000000000E+00  0.00000000000E+00  0.18250000000E+03  0.18250000000E+03  0.00000000000E+00 0. -1.
         11   -1    0    0    0    0 -0.00000000000E+00 -0.00000000000E+00 -0.18250000000E+03  0.18250000000E+03  0.00000000000E+00 0. -1.
        -11    1    1    2    0    0  0.22021413426E+01 -0.11552310040E+01  0.18129486025E+03  0.18131191450E+03  0.00000000000E+00 0. -1.
         11    1    1    2    0    0  0.23516622410E+01 -0.46321473457E+01 -0.10463734071E+03  0.10476621676E+03  0.00000000000E+00 0. -1.
        -15    1    1    2    0    0 -0.35444007644E+00  0.40302110307E+01 -0.72114041252E+02  0.72249296906E+02  0.17770000000E+01 0. -1.
         15    1    1    2    0    0 -0.41993635072E+01  0.17571673189E+01 -0.45434782940E+01  0.66725718325E+01  0.17770000000E+01 0. -1.
</event>
<event>
 6    1  0.8353910E-003  0.1833969E+03  0.7546771E-02  0.1067743E+00
        -11   -1    0    0    0    0  0.00000000000E+00  0.00000000000E+00  0.18250000000E+03  0.18250000000E+03  0.00000000000E+00 0. -1.
         11   -1    0    0    0    0 -0.00000000000E+00 -0.00000000000E+00 -0.18250000000E+03  0.18250000000E+03  0.00000000000E+00 0. -1.
        -11    1    1    2    0    0 -0.51338356324E+01 -0.72350805638E+01  0.50050828300E+02  0.50830975522E+02  0.00000000000E+00 0. -1.
         11    1    1    2    0    0 -0.28118088638E+01  0.22335875510E+01 -0.18156759075E+03  0.18160309797E+03  0.00000000000E+00 0. -1.
        -15    1    1    2    0    0  0.10732177437E+01  0.19080406379E+01  0.44802980404E+01  0.52936957725E+01  0.17770000000E+01 0.  1.
         15    1    1    2    0    0  0.68724267525E+01  0.30934523749E+01  0.12703646441E+03  0.12727223073E+03  0.17770000000E+01 0. -1.
</event>
<event>
 6    1  0.8353910E-003  0.1578609E+03  0.7546771E-02  0.1089957E+00
        -11   -1    0    0    0    0  0.00000000000E+00  0.00000000000E+00  0.18250000000E+03  0.18250000000E+03  0.00000000000E+00 0. -1.
         11   -1    0    0    0    0 -0.00000000000E+00 -0.00000000000E+00 -0.18250000000E+03  0.18250000000E+03  0.00000000000E+00 0.  1.
        -11    1    1    2    0    0 -0.18140379112E+02  0.11142073831E+02  0.15550608129E+03  0.15695655603E+03  0.00000000000E+00 0. -1.
         11    1    1    2    0    0  0.61110815458E+01  0.34442260314E+01 -0.15919789964E+03  0.15935237451E+03  0.00000000000E+00 0.  1.
        -15    1    1    2    0    0 -0.49181534978E+01  0.22317837975E+01 -0.16449114747E+02  0.17404028204E+02  0.17770000000E+01 0.  1.
         15    1    1    2    0    0  0.16947451064E+02 -0.16818083660E+02  0.20140933103E+02  0.31287041261E+02  0.17770000000E+01 0. -1.
</event>
<event>
 6    1  0.8353910E-003  0.1835403E+03  0.7546771E-02  0.1067630E+00
        -11   -1    0    0    0    0  0.00000000000E+00  0.00000000000E+00  0.18250000000E+03  0.18250000000E+03  0.00000000000E+00 0. -1.
         11   -1    0    0    0    0 -0.00000000000E+00 -0.00000000000E+00 -0.18250000000E+03  0.18250000000E+03  0.00000000000E+00 0.  1.
        -11    1    1    2    0    0  0.71844443416E+01 -0.80603947690E+00  0.15688836527E+03  0.15705484742E+03  0.00000000000E+00 0. -1.
         11    1    1    2    0    0 -0.14205657271E+01  0.23547315632E+01 -0.18143887165E+03  0.18145971155E+03  0.00000000000E+00 0.  1.
        -15    1    1    2    0    0 -0.16325831505E+01 -0.36866438245E+01  0.15949749114E+02  0.16547171850E+02  0.17770000000E+01 0. -1.
         15    1    1    2    0    0 -0.41312954640E+01  0.21379517382E+01  0.86007572703E+01  0.99382691887E+01  0.17770000000E+01 0.  1.
</event>
<event>
 6    1  0.8353910E-003  0.1770050E+03  0.7546771E-02  0.1072915E+00
        -11   -1    0    0    0    0  0.00000000000E+00  0.00000000000E+00  0.18250000000E+03  0.18250000000E+03  0.00000000000E+00 0. -1.
         11   -1    0    0    0    0 -0.00000000000E+00 -0.00000000000E+00 -0.18250000000E+03  0.18250000000E+03  0.00000000000E+00 0. -1.
        -11    1    1    2    0    0  0.14863126663E+01 -0.41911310196E+01  0.17909602396E+03  0.17915122244E+03  0.00000000000E+00 0. -1.
         11    1    1    2    0    0  0.21437725180E+01 -0.18846102320E+01 -0.17493075318E+03  0.17495403947E+03  0.00000000000E+00 0. -1.
        -15    1    1    2    0    0  0.12951147686E+01  0.21900184205E+00 -0.84185278661E+00  0.23646837389E+01  0.17770000000E+01 0.  1.
         15    1    1    2    0    0 -0.49251999529E+01  0.58567394096E+01 -0.33234179892E+01  0.85300543502E+01  0.17770000000E+01 0.  1.
</event>
<event>
 6    1  0.8353910E-003  0.1833966E+03  0.7546771E-02  0.1067743E+00
        -11   -1    0    0    0    0  0.00000000000E+00  0.00000000000E+00  0.18250000000E+03  0.18250000000E+03  0.00000000000E+00 0.  1.
         11   -1    0    0    0    0 -0.00000000000E+00 -0.00000000000E+00 -0.18250000000E+03  0.18250000000E+03  0.00000000000E+00 0. -1.
        -11    1    1    2    0    0 -0.22775138158E+01 -0.32678739187E+01  0.18155974372E+03  0.18160343226E+03  0.00000000000E+00 0.  1.
         11    1    1    2    0    0 -0.30176760906E+01  0.67298643220E+00 -0.15787389650E+03  0.15790416865E+03  0.00000000000E+00 0. -1.
        -15    1    1    2    0    0  0.65873735737E+01  0.15720690734E+01 -0.17481448887E+02  0.18831454430E+02  0.17770000000E+01 0.  1.
         15    1    1    2    0    0 -0.12921836674E+01  0.10228184131E+01 -0.62043983306E+01  0.66609446614E+01  0.17770000000E+01 0. -1.
</event>
<event>
 6    1  0.8353910E-003  0.1867768E+03  0.7546771E-02  0.1065101E+00
        -11   -1    0    0    0    0  0.00000000000E+00  0.00000000000E+00  0.18250000000E+03  0.18250000000E+03  0.00000000000E+00 0. -1.
         11   -1    0    0    0    0 -0.00000000000E+00 -0.00000000000E+00 -0.18250000000E+03  0.18250000000E+03  0.00000000000E+00 0. -1.
        -11    1    1    2    0    0 -0.21756220143E+01 -0.10972078412E+01  0.17820658391E+03  0.17822324132E+03  0.00000000000E+00 0. -1.
         11    1    1    2    0    0 -0.23602907987E+01  0.22414019475E+01 -0.17135366424E+03  0.17138457662E+03  0.00000000000E+00 0. -1.
        -15    1    1    2    0    0  0.44364728225E+01  0.14062771030E+01  0.24726920189E+01  0.55616401551E+01  0.17770000000E+01 0.  1.
         15    1    1    2    0    0  0.99439990565E-01 -0.25504712093E+01 -0.93256116891E+01  0.98305419015E+01  0.17770000000E+01 0. -1.
</event>
<event>
 6    1  0.8353910E-003  0.1856352E+03  0.7546771E-02  0.1065986E+00
        -11   -1    0    0    0    0  0.00000000000E+00  0.00000000000E+00  0.18250000000E+03  0.18250000000E+03  0.00000000000E+00 0.  1.
         11   -1    0    0    0    0 -0.00000000000E+00 -0.00000000000E+00 -0.18250000000E+03  0.18250000000E+03  0.00000000000E+00 0. -1.
        -11    1    1    2    0    0  0.12277484900E+01  0.11071375928E+02  0.17901861923E+03  0.17936484818E+03  0.00000000000E+00 0.  1.
         11    1    1    2    0    0 -0.38519001317E+01 -0.37342373956E+00 -0.12886094429E+03  0.12891904259E+03  0.00000000000E+00 0. -1.
        -15    1    1    2    0    0  0.53882945657E+01  0.55462362570E+01 -0.27644165143E+02  0.28760251222E+02  0.17770000000E+01 0.  1.
         15    1    1    2    0    0 -0.27641429240E+01 -0.16244188445E+02 -0.22513509803E+02  0.27955858008E+02  0.17770000000E+01 0.  1.
</event>
<event>
 6    1  0.8353910E-003  0.1789585E+03  0.7546771E-02  0.1071309E+00
        -11   -1    0    0    0    0  0.00000000000E+00  0.00000000000E+00  0.18250000000E+03  0.18250000000E+03  0.00000000000E+00 0.  1.
         11   -1    0    0    0    0 -0.00000000000E+00 -0.00000000000E+00 -0.18250000000E+03  0.18250000000E+03  0.00000000000E+00 0. -1.
        -11    1    1    2    0    0 -0.86584630233E+00 -0.25488721991E+01  0.17925601812E+03  0.17927622952E+03  0.00000000000E+00 0.  1.
         11    1    1    2    0    0 -0.30417920382E+01  0.41626065093E+00 -0.17864269421E+03  0.17866907390E+03  0.00000000000E+00 0. -1.
        -15    1    1    2    0    0  0.17173052505E+01  0.13924055633E+01  0.17224587088E+01  0.33185122540E+01  0.17770000000E+01 0.  1.
         15    1    1    2    0    0  0.21903330901E+01  0.74020598487E+00 -0.23357826119E+01  0.37361843310E+01  0.17770000000E+01 0. -1.
</event>
<event>
 6    1  0.8353910E-003  0.1835570E+03  0.7546771E-02  0.1067617E+00
        -11   -1    0    0    0    0  0.00000000000E+00  0.00000000000E+00  0.18250000000E+03  0.18250000000E+03  0.00000000000E+00 0.  1.
         11   -1    0    0    0    0 -0.00000000000E+00 -0.00000000000E+00 -0.18250000000E+03  0.18250000000E+03  0.00000000000E+00 0.  1.
        -11    1    1    2    0    0  0.16334844016E+01 -0.22521452657E+01  0.16480524711E+03  0.16482872901E+03  0.00000000000E+00 0.  1.
         11    1    1    2    0    0 -0.23707383902E+01 -0.86607783483E+00 -0.18142542670E+03  0.18144298262E+03  0.00000000000E+00 0.  1.
        -15    1    1    2    0    0  0.16453952959E+01 -0.13595917641E+01  0.23454354847E+01  0.36351907870E+01  0.17770000000E+01 0. -1.
         15    1    1    2    0    0 -0.90814130735E+00  0.44778148647E+01  0.14274744099E+02  0.15093097584E+02  0.17770000000E+01 0.  1.
</event>
<event>
 6    1  0.8353910E-003  0.1319123E+03  0.7546771E-02  0.1117837E+00
        -11   -1    0    0    0    0  0.00000000000E+00  0.00000000000E+00  0.18250000000E+03  0.18250000000E+03  0.00000000000E+00 0. -1.
         11   -1    0    0    0    0 -0.00000000000E+00 -0.00000000000E+00 -0.18250000000E+03  0.18250000000E+03  0.00000000000E+00 0.  1.
        -11    1    1    2    0    0 -0.19996483062E+02  0.10497699080E+02  0.15293950136E+03  0.15459803393E+03  0.00000000000E+00 0. -1.
         11    1    1    2    0    0 -0.43283353689E+02  0.20656375788E+02 -0.11172590848E+03  0.12158459275E+03  0.00000000000E+00 0.  1.
        -15    1    1    2    0    0  0.51290560873E+02 -0.31563710700E+02 -0.18428567209E+02  0.63006025793E+02  0.17770000000E+01 0. -1.
         15    1    1    2    0    0  0.11989275877E+02  0.40963583220E+00 -0.22785025666E+02  0.25811347527E+02  0.17770000000E+01 0.  1.
</event>
<event>
 6    1  0.8353910E-003  0.1834011E+03  0.7546771E-02  0.1067740E+00
        -11   -1    0    0    0    0  0.00000000000E+00  0.00000000000E+00  0.18250000000E+03  0.18250000000E+03  0.00000000000E+00 0. -1.
         11   -1    0    0    0    0 -0.00000000000E+00 -0.00000000000E+00 -0.18250000000E+03  0.18250000000E+03  0.00000000000E+00 0. -1.
        -11    1    1    2    0    0  0.18491637203E+01  0.42552205164E+00  0.13099907762E+03  0.13101281927E+03  0.00000000000E+00 0. -1.
         11    1    1    2    0    0  0.24421282240E+01 -0.53664137869E+00 -0.18158171948E+03  0.18159893398E+03  0.00000000000E+00 0. -1.
        -15    1    1    2    0    0 -0.87965296208E+00  0.19580257041E+01  0.15864364514E+01  0.32065812957E+01  0.17770000000E+01 0.  1.
         15    1    1    2    0    0 -0.34116389822E+01 -0.18469063770E+01  0.48996205409E+02  0.49181665458E+02  0.17770000000E+01 0. -1.
</event>
<event>
 6    1  0.8353910E-003  0.1439655E+03  0.7546771E-02  0.1104082E+00
        -11   -1    0    0    0    0  0.00000000000E+00  0.00000000000E+00  0.18250000000E+03  0.18250000000E+03  0.00000000000E+00 0.  1.
         11   -1    0    0    0    0 -0.00000000000E+00 -0.00000000000E+00 -0.18250000000E+03  0.18250000000E+03  0.00000000000E+00 0. -1.
        -11    1    1    2    0    0 -0.24474582000E+01 -0.20227281656E+01  0.17175697594E+03  0.17178632153E+03  0.00000000000E+00 0.  1.
         11    1    1    2    0    0  0.21786703488E-01  0.41837992984E+01 -0.38215952778E+02  0.38444293439E+02  0.00000000000E+00 0. -1.
        -15    1    1    2    0    0 -0.17720445289E+02 -0.22622301769E+02 -0.11919201318E+03  0.12262004915E+03  0.17770000000E+01 0. -1.
         15    1    1    2    0    0  0.20146116785E+02  0.20461230636E+02 -0.14349009984E+02  0.32149335875E+02  0.17770000000E+01 0.  1.
</event>
<event>
 6    1  0.8353910E-003  0.1834233E+03  0.7546771E-02  0.1067722E+00
        -11   -1    0    0    0    0  0.00000000000E+00  0.00000000000E+00  0.18250000000E+03  0.18250000000E+03  0.00000000000E+00 0.  1.
         11   -1    0    0    0    0 -0.00000000000E+00 -0.00000000000E+00 -0.18250000000E+03  0.18250000000E+03  0.00000000000E+00 0.  1.
        -11    1    1    2    0    0 -0.17421331588E+01  0.19447957700E+01  0.16435399884E+03  0.16437473709E+03  0.00000000000E+00 0.  1.
         11    1    1    2    0    0  0.65246209547E+01  0.70150016349E+00 -0.18145810524E+03  0.18157672411E+03  0.00000000000E+00 0.  1.
        -15    1    1    2    0    0  0.29277980473E+00 -0.19639602999E+01  0.82226201897E+01  0.86436145135E+01  0.17770000000E+01 0. -1.
         15    1    1    2    0    0 -0.50752676006E+01 -0.68233563350E+00  0.88814862062E+01  0.10404924284E+02  0.17770000000E+01 0.  1.
</event>
<event>
 6    1  0.8353910E-003  0.1928471E+03  0.7546771E-02  0.1060504E+00
        -11   -1    0    0    0    0  0.00000000000E+00  0.00000000000E+00  0.18250000000E+03  0.18250000000E+03  0.00000000000E+00 0.  1.
         11   -1    0    0    0    0 -0.00000000000E+00 -0.00000000000E+00 -0.18250000000E+03  0.18250000000E+03  0.00000000000E+00 0.  1.
        -11    1    1    2    0    0 -0.24902728692E+00 -0.22977647098E+01  0.15720913075E+03  0.15722611910E+03  0.00000000000E+00 0.  1.
         11    1    1    2    0    0 -0.38057083567E+01  0.17823456109E+01 -0.17210161827E+03  0.17215291802E+03  0.00000000000E+00 0.  1.
        -15    1    1    2    0    0  0.13096415733E+01  0.40314721743E+01 -0.96099112420E+01  0.10652513883E+02  0.17770000000E+01 0.  1.
         15    1    1    2    0    0  0.27450940702E+01 -0.35160530754E+01  0.24502398766E+02  0.24968448990E+02  0.17770000000E+01 0. -1.
</event>
<event>
 6    1  0.8353910E-003  0.1843365E+03  0.7546771E-02  0.1067002E+00
        -11   -1    0    0    0    0  0.00000000000E+00  0.00000000000E+00  0.18250000000E+03  0.18250000000E+03  0.00000000000E+00 0.  1.
         11   -1    0    0    0    0 -0.00000000000E+00 -0.00000000000E+00 -0.18250000000E+03  0.18250000000E+03  0.00000000000E+00 0.  1.
        -11    1    1    2    0    0  0.55315983315E+01  0.97888527726E+00  0.18057611668E+03  0.18066347365E+03  0.00000000000E+00 0.  1.
         11    1    1    2    0    0 -0.11449848967E+01  0.31169178674E+01 -0.16754206276E+03  0.16757496520E+03  0.00000000000E+00 0.  1.
        -15    1    1    2    0    0 -0.13725662569E+01 -0.59009887626E+01 -0.98416790005E+01  0.11692817499E+02  0.17770000000E+01 0.  1.
         15    1    1    2    0    0 -0.30140471780E+01  0.18051856180E+01 -0.31923749202E+01  0.50687436449E+01  0.17770000000E+01 0. -1.
</event>
<event>
 6    1  0.8353910E-003  0.1865168E+03  0.7546771E-02  0.1065302E+00
        -11   -1    0    0    0    0  0.00000000000E+00  0.00000000000E+00  0.18250000000E+03  0.18250000000E+03  0.00000000000E+00 0. -1.
         11   -1    0    0    0    0 -0.00000000000E+00 -0.00000000000E+00 -0.18250000000E+03  0.18250000000E+03  0.00000000000E+00 0.  1.
        -11    1    1    2    0    0  0.15851626047E+01  0.22659467107E+01  0.41110063963E+02  0.41202968510E+02  0.00000000000E+00 0. -1.
         11    1    1    2    0    0 -0.23819479945E+01 -0.43993248032E+00 -0.17846679683E+03  0.17848323391E+03  0.00000000000E+00 0.  1.
        -15    1    1    2    0    0  0.67766379827E+00  0.68219186373E+01  0.13622864218E+03  0.13641260382E+03  0.17770000000E+01 0. -1.
         15    1    1    2    0    0  0.11912159161E+00 -0.86479328677E+01  0.11280906883E+01  0.89011937648E+01  0.17770000000E+01 0.  1.
</event>
<event>
 6    1  0.8353910E-003  0.1852662E+03  0.7546771E-02  0.1066274E+00
        -11   -1    0    0    0    0  0.00000000000E+00  0.00000000000E+00  0.18250000000E+03  0.18250000000E+03  0.00000000000E+00 0. -1.
         11   -1    0    0    0    0 -0.00000000000E+00 -0.00000000000E+00 -0.18250000000E+03  0.18250000000E+03  0.00000000000E+00 0.  1.
        -11    1    1    2    0    0  0.27518011206E+01  0.15558786308E+01  0.17970597565E+03  0.17973377771E+03  0.00000000000E+00 0. -1.
         11    1    1    2    0    0  0.35179122643E+01  0.15750711919E+01 -0.16532927057E+03  0.16537419467E+03  0.00000000000E+00 0.  1.
        -15    1    1    2    0    0 -0.40057091819E+01 -0.55258129847E+01 -0.25705430714E+01  0.75063796782E+01  0.17770000000E+01 0. -1.
         15    1    1    2    0    0 -0.22640042030E+01  0.23948631620E+01 -0.11806162002E+02  0.12385647937E+02  0.17770000000E+01 0.  1.
</event>
<event>
 6    1  0.8353910E-003  0.1838451E+03  0.7546771E-02  0.1067389E+00
        -11   -1    0    0    0    0  0.00000000000E+00  0.00000000000E+00  0.18250000000E+03  0.18250000000E+03  0.00000000000E+00 0. -1.
         11   -1    0    0    0    0 -0.00000000000E+00 -0.00000000000E+00 -0.18250000000E+03  0.18250000000E+03  0.00000000000E+00 0. -1.
        -11    1    1    2    0    0  0.29456546322E+01  0.62429671005E+01  0.16052115256E+03  0.16066951154E+03  0.00000000000E+00 0. -1.
         11    1    1    2    0    0 -0.27791661898E+01 -0.25403754552E+01 -0.18111575763E+03  0.18115489211E+03  0.00000000000E+00 0. -1.
        -15    1    1    2    0    0  0.34988525002E+00  0.89271223103E+00  0.26536886152E-01  0.20193533673E+01  0.17770000000E+01 0. -1.
         15    1    1    2    0    0 -0.51637369246E+00 -0.45953038764E+01  0.20568068180E+02  0.21156242983E+02  0.17770000000E+01 0.  1.
</event>
<event>
 6    1  0.8353910E-003  0.1857694E+03  0.7546771E-02  0.1065882E+00
        -11   -1    0    0    0    0  0.00000000000E+00  0.00000000000E+00  0.18250000000E+03  0.18250000000E+03  0.00000000000E+00 0.  1.
         11   -1    0    0    0    0 -0.00000000000E+00 -0.00000000000E+00 -0.18250000000E+03  0.18250000000E+03  0.00000000000E+00 0. -1.
        -11    1    1    2    0    0  0.10042370181E+01 -0.34085551923E+01  0.17247675611E+03  0.17251335641E+03  0.00000000000E+00 0.  1.
         11    1    1    2    0    0  0.32632523013E+01  0.26000108056E+01 -0.17918201806E+03  0.17923059021E+03  0.00000000000E+00 0. -1.
        -15    1    1    2    0    0 -0.57304771049E+01  0.20084139715E+00 -0.14410451401E+00  0.60047647937E+01  0.17770000000E+01 0. -1.
         15    1    1    2    0    0  0.14629877855E+01  0.60770298951E+00  0.68493664629E+01  0.72512885839E+01  0.17770000000E+01 0.  1.
</event>
<event>
 6    1  0.8353910E-003  0.1752286E+03  0.7546771E-02  0.1074395E+00
        -11   -1    0    0    0    0  0.00000000000E+00  0.00000000000E+00  0.18250000000E+03  0.18250000000E+03  0.00000000000E+00 0. -1.
         11   -1    0    0    0    0 -0.00000000000E+00 -0.00000000000E+00 -0.18250000000E+03  0.18250000000E+03  0.00000000000E+00 0. -1.
        -11    1    1    2    0    0  0.56839276318E+01  0.49939255238E+01  0.17379073132E+03  0.17395535237E+03  0.00000000000E+00 0. -1.
         11    1    1    2    0    0 -0.40618923902E+01  0.37648299878E+01 -0.17653894508E+03  0.17662579666E+03  0.00000000000E+00 0. -1.
        -15    1    1    2    0    0 -0.24368491986E+01 -0.98703148194E+01  0.47929369669E+01  0.11379425399E+02  0.17770000000E+01 0.  1.
         15    1    1    2    0    0  0.81481395706E+00  0.11115593078E+01 -0.20447232035E+01  0.30394255803E+01  0.17770000000E+01 0. -1.
</event>
<event>
 6    1  0.8353910E-003  0.1851380E+03  0.7546771E-02  0.1066374E+00
        -11   -1    0    0    0    0  0.00000000000E+00  0.00000000000E+00  0.18250000000E+03  0.18250000000E+03  0.00000000000E+00 0.  1.
         11   -1    0    0    0    0 -0.00000000000E+00 -0.00000000000E+00 -0.18250000000E+03  0.18250000000E+03  0.00000000000E+00 0.  1.
        -11    1    1    2    0    0 -0.14549083414E+01  0.20783021806E+01  0.17984410012E+03  0.17986199278E+03  0.00000000000E+00 0.  1.
         11    1    1    2    0    0  0.23252139634E+01 -0.11433935185E+01 -0.16649304075E+03  0.16651320244E+03  0.00000000000E+00 0.  1.
        -15    1    1    2    0    0  0.40155414040E+01 -0.31542319731E+01 -0.16879331527E+01  0.56639738202E+01  0.17770000000E+01 0.  1.
         15    1    1    2    0    0 -0.48858470261E+01  0.22193233110E+01 -0.11663126211E+02  0.12960830958E+02  0.17770000000E+01 0.  1.
</event>
<event>
 6    1  0.8353910E-003  0.1829174E+03  0.7546771E-02  0.1068123E+00
        -11   -1    0    0    0    0  0.00000000000E+00  0.00000000000E+00  0.18250000000E+03  0.18250000000E+03  0.00000000000E+00 0. -1.
         11   -1    0    0    0    0 -0.00000000000E+00 -0.00000000000E+00 -0.18250000000E+03  0.18250000000E+03  0.00000000000E+00 0.  1.
        -11    1    1    2    0    0  0.43040852059E+01 -0.37321780669E+00  0.18203135989E+03  0.18208261977E+03  0.00000000000E+00 0. -1.
         11    1    1    2    0    0  0.28089726131E+01  0.20118696897E+01 -0.97452941159E+02  0.97514171725E+02  0.00000000000E+00 0.  1.
        -15    1    1    2    0    0 -0.63281283347E+01 -0.19944844695E+01 -0.29489338860E+02  0.30278738612E+02  0.17770000000E+01 0.  1.
         15    1    1    2    0    0 -0.78492948437E+00  0.35583258642E+00 -0.55089079868E+02  0.55124469891E+02  0.17770000000E+01 0. -1.
</event>
<event>
 6    1  0.8353910E-003  0.2160587E+03  0.7546771E-02  0.1044494E+00
        -11   -1    0    0    0    0  0.00000000000E+00  0.00000000000E+00  0.18250000000E+03  0.18250000000E+03  0.00000000000E+00 0. -1.
         11   -1    0    0    0    0 -0.00000000000E+00 -0.00000000000E+00 -0.18250000000E+03  0.18250000000E+03  0.00000000000E+00 0.  1.
        -11    1    1    2    0    0  0.25431869836E+01  0.33931816408E+00  0.14891922109E+03  0.14894132182E+03  0.00000000000E+00 0. -1.
         11    1    1    2    0    0  0.49269956695E+01  0.11065433667E+01 -0.12125892737E+03  0.12136402758E+03  0.00000000000E+00 0.  1.
        -15    1    1    2    0    0  0.64736349377E+01 -0.59760189358E+01  0.31997616571E+02  0.33235913510E+02  0.17770000000E+01 0. -1.
         15    1    1    2    0    0 -0.13943817591E+02  0.45301574050E+01 -0.59657910288E+02  0.61458737085E+02  0.17770000000E+01 0.  1.
</event>
<event>
 6    1  0.8353910E-003  0.1830499E+03  0.7546771E-02  0.1068018E+00
        -11   -1    0    0    0    0  0.00000000000E+00  0.00000000000E+00  0.18250000000E+03  0.18250000000E+03  0.00000000000E+00 0.  1.
         11   -1    0    0    0    0 -0.00000000000E+00 -0.00000000000E+00 -0.18250000000E+03  0.18250000000E+03  0.00000000000E+00 0. -1.
        -11    1    1    2    0    0 -0.22953523996E+01 -0.59350233142E+00  0.16812847122E+03  0.16814518644E+03  0.00000000000E+00 0.  1.
         11    1    1    2    0    0 -0.15849156709E+00 -0.24529592403E+01 -0.18193352279E+03  0.18195012735E+03  0.00000000000E+00 0. -1.
        -15    1    1    2    0    0  0.78329510789E+00  0.64169536035E+00  0.36029305246E+01  0.41429653060E+01  0.17770000000E+01 0. -1.
         15    1    1    2    0    0  0.16705488588E+01  0.24047662114E+01  0.10202121042E+02  0.10761720902E+02  0.17770000000E+01 0.  1.
</event>
<event>
 6    1  0.8353910E-003  0.1871849E+03  0.7546771E-02  0.1064786E+00
        -11   -1    0    0    0    0  0.00000000000E+00  0.00000000000E+00  0.18250000000E+03  0.18250000000E+03  0.00000000000E+00 0. -1.
         11   -1    0    0    0    0 -0.00000000000E+00 -0.00000000000E+00 -0.18250000000E+03  0.18250000000E+03  0.00000000000E+00 0. -1.
        -11    1    1    2    0    0  0.77720444159E+01  0.44370172969E+00  0.13844321754E+03  0.13866191269E+03  0.00000000000E+00 0. -1.
         11    1    1    2    0    0  0.50334062652E+01 -0.34338659787E+00 -0.17774347050E+03  0.17781505672E+03  0.00000000000E+00 0. -1.
        -15    1    1    2    0    0 -0.67439676926E+01 -0.42066780857E+01 -0.36091746787E+00  0.81526211229E+01  0.17770000000E+01 0. -1.
         15    1    1    2    0    0 -0.60614829885E+01  0.41063629539E+01  0.39661170420E+02  0.40370409470E+02  0.17770000000E+01 0.  1.
</event>
<event>
 6    1  0.8353910E-003  0.1872522E+03  0.7546771E-02  0.1064734E+00
        -11   -1    0    0    0    0  0.00000000000E+00  0.00000000000E+00  0.18250000000E+03  0.18250000000E+03  0.00000000000E+00 0. -1.
         11   -1    0    0    0    0 -0.00000000000E+00 -0.00000000000E+00 -0.18250000000E+03  0.18250000000E+03  0.00000000000E+00 0. -1.
        -11    1    1    2    0    0 -0.39474445471E+01  0.11927645655E+01  0.77179026464E+02  0.77289113928E+02  0.00000000000E+00 0. -1.
         11    1    1    2    0    0  0.72593286910E-01 -0.58987819085E+01 -0.17764990684E+03  0.17774782783E+03  0.00000000000E+00 0. -1.
        -15    1    1    2    0    0 -0.14677125676E+00  0.73449212335E+01 -0.16312197397E+01  0.77322711132E+01  0.17770000000E+01 0. -1.
         15    1    1    2    0    0  0.40216225170E+01 -0.26389038906E+01  0.10210210011E+03  0.10223078713E+03  0.17770000000E+01 0. -1.
</event>
<event>
 6    1  0.8353910E-003  0.1838478E+03  0.7546771E-02  0.1067387E+00
        -11   -1    0    0    0    0  0.00000000000E+00  0.00000000000E+00  0.18250000000E+03  0.18250000000E+03  0.00000000000E+00 0. -1.
         11   -1    0    0    0    0 -0.00000000000E+00 -0.00000000000E+00 -0.18250000000E+03  0.18250000000E+03  0.00000000000E+00 0. -1.
        -11    1    1    2    0    0 -0.30268247989E+01 -0.27478480829E+00  0.18112673137E+03  0.18115222878E+03  0.00000000000E+00 0. -1.
         11    1    1    2    0    0  0.39640757655E-01  0.26030091728E+01 -0.15699662462E+03  0.15701820713E+03  0.00000000000E+00 0. -1.
        -15    1    1    2    0    0  0.72725268837E+00 -0.95433045303E+00 -0.23479884257E+02  0.23577581233E+02  0.17770000000E+01 0. -1.
         15    1    1    2    0    0  0.22599313529E+01 -0.13738939115E+01 -0.65022249518E+00  0.32519828556E+01  0.17770000000E+01 0.  1.
</event>
<event>
 6    1  0.8353910E-003  0.1881316E+03  0.7546771E-02  0.1064058E+00
        -11   -1    0    0    0    0  0.00000000000E+00  0.00000000000E+00  0.18250000000E+03  0.18250000000E+03  0.00000000000E+00 0.  1.
         11   -1    0    0    0    0 -0.00000000000E+00 -0.00000000000E+00 -0.18250000000E+03  0.18250000000E+03  0.00000000000E+00 0. -1.
        -11    1    1    2    0    0 -0.27083153706E+01  0.37601554165E-01  0.17221395281E+03  0.17223525170E+03  0.00000000000E+00 0.  1.
         11    1    1    2    0    0 -0.27704310160E+01 -0.15235556847E+01 -0.17684015449E+03  0.17686841648E+03  0.00000000000E+00 0. -1.
        -15    1    1    2    0    0  0.74338376679E+01  0.55954760789E+01  0.47349034073E+00  0.94843669860E+01  0.17770000000E+01 0.  1.
         15    1    1    2    0    0 -0.19550912813E+01 -0.41095219483E+01  0.41527113310E+01  0.64119648284E+01  0.17770000000E+01 0. -1.
</event>
<event>
 6    1  0.8353910E-003  0.1834719E+03  0.7546771E-02  0.1067684E+00
        -11   -1    0    0    0    0  0.00000000000E+00  0.00000000000E+00  0.18250000000E+03  0.18250000000E+03  0.00000000000E+00 0. -1.
         11   -1    0    0    0    0 -0.00000000000E+00 -0.00000000000E+00 -0.18250000000E+03  0.18250000000E+03  0.00000000000E+00 0. -1.
        -11    1    1    2    0    0 -0.16038166977E+00 -0.27518853947E+01  0.17296325624E+03  0.17298522077E+03  0.00000000000E+00 0. -1.
         11    1    1    2    0    0 -0.25392287666E+01  0.46547907325E+00 -0.18150971072E+03  0.18152806791E+03  0.00000000000E+00 0. -1.
        -15    1    1    2    0    0  0.72335293301E+00  0.27095617556E+01  0.54756420410E+01  0.64035419211E+01  0.17770000000E+01 0. -1.
         15    1    1    2    0    0  0.19762575034E+01 -0.42315543423E+00  0.30708124434E+01  0.40831693945E+01  0.17770000000E+01 0. -1.
</event>
<event>
 6    1  0.8353910E-003  0.1756049E+03  0.7546771E-02  0.1074080E+00
        -11   -1    0    0    0    0  0.00000000000E+00  0.00000000000E+00  0.18250000000E+03  0.18250000000E+03  0.00000000000E+00 0.  1.
         11   -1    0    0    0    0 -0.00000000000E+00 -0.00000000000E+00 -0.18250000000E+03  0.18250000000E+03  0.00000000000E+00 0.  1.
        -11    1    1    2    0    0  0.46664874205E+01 -0.13181943294E+01  0.17507254408E+03  0.17513968549E+03  0.00000000000E+00 0.  1.
         11    1    1    2    0    0  0.43381342826E+01  0.14974138307E+01 -0.17612745665E+03  0.17618723745E+03  0.00000000000E+00 0.  1.
        -15    1    1    2    0    0 -0.70319315083E+01  0.25842647009E+01  0.41502249641E+01  0.87469183736E+01  0.17770000000E+01 0. -1.
         15    1    1    2    0    0 -0.19726901949E+01 -0.27634842023E+01 -0.30953124005E+01  0.49261586858E+01  0.17770000000E+01 0.  1.
</event>
<event>
 6    1  0.8353910E-003  0.1834313E+03  0.7546771E-02  0.1067716E+00
        -11   -1    0    0    0    0  0.00000000000E+00  0.00000000000E+00  0.18250000000E+03  0.18250000000E+03  0.00000000000E+00 0.  1.
         11   -1    0    0    0    0 -0.00000000000E+00 -0.00000000000E+00 -0.18250000000E+03  0.18250000000E+03  0.00000000000E+00 0.  1.
        -11    1    1    2    0    0  0.22944725076E+01  0.43165286840E+01  0.18150288991E+03  0.18156870895E+03  0.00000000000E+00 0.  1.
         11    1    1    2    0    0 -0.48271142078E+00  0.23318990026E+01 -0.12862204025E+03  0.12864408265E+03  0.00000000000E+00 0.  1.
        -15    1    1    2    0    0  0.90141488948E+00 -0.15630887246E+01 -0.43875766291E+02  0.43948792837E+02  0.17770000000E+01 0. -1.
         15    1    1    2    0    0 -0.27131759763E+01 -0.50853389620E+01 -0.90050833774E+01  0.10838415561E+02  0.17770000000E+01 0. -1.
</event>
<event>
 6    1  0.8353910E-003  0.1849184E+03  0.7546771E-02  0.1066546E+00
        -11   -1    0    0    0    0  0.00000000000E+00  0.00000000000E+00  0.18250000000E+03  0.18250000000E+03  0.00000000000E+00 0. -1.
         11   -1    0    0    0    0 -0.00000000000E+00 -0.00000000000E+00 -0.18250000000E+03  0.18250000000E+03  0.00000000000E+00 0.  1.
        -11    1    1    2    0    0 -0.91908886126E-01 -0.68606996337E+01  0.17995087379E+03  0.18008163322E+03  0.00000000000E+00 0. -1.
         11    1    1    2    0    0  0.34943150037E+01  0.13095728698E+01 -0.15502336483E+03  0.15506827161E+03  0.00000000000E+00 0.  1.
        -15    1    1    2    0    0 -0.32531234698E+01  0.82894623262E+01 -0.65801864600E+01  0.11214034993E+02  0.17770000000E+01 0.  1.
         15    1    1    2    0    0 -0.14928264779E+00 -0.27383355623E+01 -0.18347322501E+02  0.18636060177E+02  0.17770000000E+01 0.  1.
</event>
<event>
 6    1  0.8353910E-003  0.1685066E+03  0.7546771E-02  0.1080173E+00
        -11   -1    0    0    0    0  0.00000000000E+00  0.00000000000E+00  0.18250000000E+03  0.18250000000E+03  0.00000000000E+00 0. -1.
         11   -1    0    0    0    0 -0.00000000000E+00 -0.00000000000E+00 -0.18250000000E+03  0.18250000000E+03  0.00000000000E+00 0.  1.
        -11    1    1    2    0    0 -0.59408627163E+01 -0.83914391307E+00  0.16794214564E+03  0.16804928531E+03  0.00000000000E+00 0. -1.
         11    1    1    2    0    0  0.12976518153E+01 -0.33017777301E+01 -0.16898567590E+03  0.16902291057E+03  0.00000000000E+00 0.  1.
        -15    1    1    2    0    0  0.69857578421E+01  0.13849803067E+01  0.13209451616E+02  0.15111794204E+02  0.17770000000E+01 0. -1.
         15    1    1    2    0    0 -0.23425469412E+01  0.27559413365E+01 -0.12165921354E+02  0.12816009918E+02  0.17770000000E+01 0. -1.
</event>
<event>
 6    1  0.8353910E-003  0.1828457E+03  0.7546771E-02  0.1068180E+00
        -11   -1    0    0    0    0  0.00000000000E+00  0.00000000000E+00  0.18250000000E+03  0.18250000000E+03  0.00000000000E+00 0.  1.
         11   -1    0    0    0    0 -0.00000000000E+00 -0.00000000000E+00 -0.18250000000E+03  0.18250000000E+03  0.00000000000E+00 0.  1.
        -11    1    1    2    0    0 -0.17162230660E+01 -0.94311955247E+00  0.93003667209E+02  0.93024281832E+02  0.00000000000E+00 0.  1.
         11    1    1    2    0    0 -0.27896699069E+01 -0.53024639510E+00 -0.18213214075E+03  0.18215427558E+03  0.00000000000E+00 0.  1.
        -15    1    1    2    0    0  0.88099397467E+00  0.43526072017E+01  0.22195661026E+02  0.22705207271E+02  0.17770000000E+01 0. -1.
         15    1    1    2    0    0  0.36248989982E+01 -0.28792412541E+01  0.66932812512E+02  0.67116235314E+02  0.17770000000E+01 0.  1.
</event>
<event>
 6    1  0.1041858E-002  0.1907848E+03  0.7546771E-02  0.1062045E+00
        -11   -1    0    0    0    0  0.00000000000E+00  0.00000000000E+00  0.18250000000E+03  0.18250000000E+03  0.00000000000E+00 0.  1.
         11   -1    0    0    0    0 -0.00000000000E+00 -0.00000000000E+00 -0.18250000000E+03  0.18250000000E+03  0.00000000000E+00 0.  1.
        -11    1    1    2    0    0 -0.17123408171E+01  0.96390894971E+00  0.12472858118E+03  0.12474405875E+03  0.00000000000E+00 0.  1.
         11    1    1    2    0    0 -0.32347316474E+01  0.41248884367E+01 -0.17413628835E+03  0.17421516901E+03  0.00000000000E+00 0.  1.
        -15    1    1    2    0    0  0.15939481584E+01  0.80553924234E+00  0.56213686864E+02  0.56270115373E+02  0.17770000000E+01 0.  1.
         15    1    1    2    0    0  0.33531243061E+01 -0.58943366287E+01 -0.68059796932E+01  0.97706568607E+01  0.17770000000E+01 0.  1.
</event>
<event>
 6    1  0.8353910E-003  0.1839545E+03  0.7546771E-02  0.1067303E+00
        -11   -1    0    0    0    0  0.00000000000E+00  0.00000000000E+00  0.18250000000E+03  0.18250000000E+03  0.00000000000E+00 0.  1.
         11   -1    0    0    0    0 -0.00000000000E+00 -0.00000000000E+00 -0.18250000000E+03  0.18250000000E+03  0.00000000000E+00 0. -1.
        -11    1    1    2    0    0  0.17205477093E+01  0.25748657871E+01  0.17847795802E+03  0.17850482267E+03  0.00000000000E+00 0.  1.
         11    1    1    2    0    0 -0.27579184711E+01 -0.29051053689E+01 -0.18100121428E+03  0.18104553383E+03  0.00000000000E+00 0. -1.
        -15    1    1    2    0    0  0.74162645549E+00  0.15527004346E+01  0.20710251221E+01  0.32261063987E+01  0.17770000000E+01 0.  1.
         15    1    1    2    0    0  0.29574430625E+00 -0.12224608528E+01  0.45223113859E+00  0.22235370997E+01  0.17770000000E+01 0. -1.
</event>
<event>
 6    1  0.8353910E-003  0.1655478E+03  0.7546771E-02  0.1082811E+00
        -11   -1    0    0    0    0  0.00000000000E+00  0.00000000000E+00  0.18250000000E+03  0.18250000000E+03  0.00000000000E+00 0. -1.
         11   -1    0    0    0    0 -0.00000000000E+00 -0.00000000000E+00 -0.18250000000E+03  0.18250000000E+03  0.00000000000E+00 0. -1.
        -11    1    1    2    0    0  0.51402444249E+01  0.75927380123E+01  0.16080317923E+03  0.16106437916E+03  0.00000000000E+00 0. -1.
         11    1    1    2    0    0  0.11077279336E+02 -0.60045224591E+01 -0.17009625298E+03  0.17056229269E+03  0.00000000000E+00 0. -1.
        -15    1    1    2    0    0 -0.79062569329E+01 -0.37600242430E+01  0.18569172385E+02  0.20606275090E+02  0.17770000000E+01 0.  1.
         15    1    1    2    0    0 -0.83112668285E+01  0.21718086898E+01 -0.92760986300E+01  0.12767053069E+02  0.17770000000E+01 0. -1.
</event>
<event>
 6    1  0.8353910E-003  0.1849346E+03  0.7546771E-02  0.1066533E+00
        -11   -1    0    0    0    0  0.00000000000E+00  0.00000000000E+00  0.18250000000E+03  0.18250000000E+03  0.00000000000E+00 0. -1.
         11   -1    0    0    0    0 -0.00000000000E+00 -0.00000000000E+00 -0.18250000000E+03  0.18250000000E+03  0.00000000000E+00 0. -1.
        -11    1    1    2    0    0  0.18445370294E+01  0.44826739243E+01  0.16930207612E+03  0.16937145469E+03  0.00000000000E+00 0. -1.
         11    1    1    2    0    0 -0.38587985310E+01 -0.30103011701E+00 -0.18002374743E+03  0.18006535087E+03  0.00000000000E+00 0. -1.
        -15    1    1    2    0    0  0.24996967930E+01 -0.30982080450E+01  0.12206021283E+02  0.12961175166E+02  0.17770000000E+01 0.  1.
         15    1    1    2    0    0 -0.48543529144E+00 -0.10834357623E+01 -0.14843499781E+01  0.26020192795E+01  0.17770000000E+01 0.  1.
</event>
<event>
 6    1  0.8353910E-003  0.1778647E+03  0.7546771E-02  0.1072206E+00
        -11   -1    0    0    0    0  0.00000000000E+00  0.00000000000E+00  0.18250000000E+03  0.18250000000E+03  0.00000000000E+00 0. -1.
         11   -1    0    0    0    0 -0.00000000000E+00 -0.00000000000E+00 -0.18250000000E+03  0.18250000000E+03  0.00000000000E+00 0. -1.
        -11    1    1    2    0    0 -0.26131535146E+01  0.23114742701E+01  0.17805936325E+03  0.17809353813E+03  0.00000000000E+00 0. -1.
         11    1    1    2    0    0 -0.33684941390E+01  0.11617936153E+00 -0.17766260205E+03  0.17769457060E+03  0.00000000000E+00 0. -1.
        -15    1    1    2    0    0  0.50263183381E+01 -0.33759393375E+01  0.12595355874E+01  0.64346718132E+01  0.17770000000E+01 0.  1.
         15    1    1    2    0    0  0.95532931538E+00  0.94828570588E+00 -0.16562967817E+01  0.27772194565E+01  0.17770000000E+01 0.  1.
</event>
<event>
 6    1  0.8353910E-003  0.1843137E+03  0.7546771E-02  0.1067020E+00
        -11   -1    0    0    0    0  0.00000000000E+00  0.00000000000E+00  0.18250000000E+03  0.18250000000E+03  0.00000000000E+00 0. -1.
         11   -1    0    0    0    0 -0.00000000000E+00 -0.00000000000E+00 -0.18250000000E+03  0.18250000000E+03  0.00000000000E+00 0. -1.
        -11    1    1    2    0    0 -0.47609472193E+01  0.87267118877E+01  0.15714193170E+03  0.15745605360E+03  0.00000000000E+00 0. -1.
         11    1    1    2    0    0 -0.18670048406E+01 -0.42436585327E+01 -0.18062684917E+03  0.18068633868E+03  0.00000000000E+00 0. -1.
        -15    1    1    2    0    0 -0.18884233758E+01  0.74581668064E+00  0.69550481882E+01  0.74600810765E+01  0.17770000000E+01 0.  1.
         15    1    1    2    0    0  0.85163754357E+01 -0.52288700356E+01  0.16529869283E+02  0.19397526644E+02  0.17770000000E+01 0. -1.
</event>
<event>
 6    1  0.8353910E-003  0.1829328E+03  0.7546771E-02  0.1068111E+00
        -11   -1    0    0    0    0  0.00000000000E+00  0.00000000000E+00  0.18250000000E+03  0.18250000000E+03  0.00000000000E+00 0. -1.
         11   -1    0    0    0    0 -0.00000000000E+00 -0.00000000000E+00 -0.18250000000E+03  0.18250000000E+03  0.00000000000E+00 0.  1.
        -11    1    1    2    0    0  0.51729304473E+01  0.67597351993E+01  0.18186816459E+03  0.18206724724E+03  0.00000000000E+00 0. -1.
         11    1    1    2    0    0 -0.12095662175E+01 -0.17332094791E+01 -0.71863608727E+02  0.71894682173E+02  0.00000000000E+00 0.  1.
        -15    1    1    2    0    0 -0.73136978166E+01 -0.45393089033E+01 -0.98976089798E+02  0.99365585500E+02  0.17770000000E+01 0.  1.
         15    1    1    2    0    0  0.33503335868E+01 -0.48721681690E+00 -0.11028466061E+02  0.11672485083E+02  0.17770000000E+01 0. -1.
</event>
<event>
 6    1  0.8353910E-003  0.1638050E+03  0.7546771E-02  0.1084394E+00
        -11   -1    0    0    0    0  0.00000000000E+00  0.00000000000E+00  0.18250000000E+03  0.18250000000E+03  0.00000000000E+00 0. -1.
         11   -1    0    0    0    0 -0.00000000000E+00 -0.00000000000E+00 -0.18250000000E+03  0.18250000000E+03  0.00000000000E+00 0.  1.
        -11    1    1    2    0    0 -0.29946404241E+01  0.10519805995E+02  0.16719509145E+03  0.16755247773E+03  0.00000000000E+00 0. -1.
         11    1    1    2    0    0 -0.54127471698E+00  0.23988996496E+01 -0.16038308113E+03  0.16040193394E+03  0.00000000000E+00 0.  1.
        -15    1    1    2    0    0  0.23748135916E+01 -0.11962114702E+02  0.12523354705E+02  0.17570545518E+02  0.17770000000E+01 0.  1.
         15    1    1    2    0    0  0.11611015494E+01 -0.95659094222E+00 -0.19335365025E+02  0.19475042816E+02  0.17770000000E+01 0.  1.
</event>
<event>
 6    1  0.8353910E-003  0.1663633E+03  0.7546771E-02  0.1082078E+00
        -11   -1    0    0    0    0  0.00000000000E+00  0.00000000000E+00  0.18250000000E+03  0.18250000000E+03  0.00000000000E+00 0. -1.
         11   -1    0    0    0    0 -0.00000000000E+00 -0.00000000000E+00 -0.18250000000E+03  0.18250000000E+03  0.00000000000E+00 0. -1.
        -11    1    1    2    0    0 -0.15521310850E+01 -0.38522384556E+01  0.16655808047E+03  0.16660985272E+03  0.00000000000E+00 0. -1.
         11    1    1    2    0    0  0.13337352601E+02  0.11040001476E+01 -0.16579831751E+03  0.16633756605E+03  0.00000000000E+00 0. -1.
        -15    1    1    2    0    0 -0.58003968232E+00 -0.32852571676E+01  0.12814859166E+02  0.13360677570E+02  0.17770000000E+01 0.  1.
         15    1    1    2    0    0 -0.11205181834E+02  0.60334954756E+01 -0.13574622131E+02  0.18691903664E+02  0.17770000000E+01 0. -1.
</event>
<event>
 6    1  0.8353910E-003  0.1867661E+03  0.7546771E-02  0.1065109E+00
        -11   -1    0    0    0    0  0.00000000000E+00  0.00000000000E+00  0.18250000000E+03  0.18250000000E+03  0.00000000000E+00 0.  1.
         11   -1    0    0    0    0 -0.00000000000E+00 -0.00000000000E+00 -0.18250000000E+03  0.18250000000E+03  0.00000000000E+00 0. -1.
        -11    1    1    2    0    0 -0.16981085541E+01 -0.20537093468E+01  0.17821401591E+03  0.17823393830E+03  0.00000000000E+00 0.  1.
         11    1    1    2    0    0  0.32143254410E+01  0.11890791988E+01 -0.17714884216E+03  0.17718199140E+03  0.00000000000E+00 0. -1.
        -15    1    1    2    0    0  0.24221839163E+01  0.46997448829E+00 -0.34778610325E+01  0.46196425517E+01  0.17770000000E+01 0.  1.
         15    1    1    2    0    0 -0.39384008032E+01  0.39465565970E+00  0.24126872788E+01  0.49644277497E+01  0.17770000000E+01 0. -1.
</event>
<event>
 6    1  0.8353910E-003  0.1829695E+03  0.7546771E-02  0.1068082E+00
        -11   -1    0    0    0    0  0.00000000000E+00  0.00000000000E+00  0.18250000000E+03  0.18250000000E+03  0.00000000000E+00 0.  1.
         11   -1    0    0    0    0 -0.00000000000E+00 -0.00000000000E+00 -0.18250000000E+03  0.18250000000E+03  0.00000000000E+00 0.  1.
        -11    1    1    2    0    0 -0.51407931573E+01 -0.11720869893E+02  0.18157998692E+03  0.18203048699E+03  0.00000000000E+00 0.  1.
         11    1    1    2    0    0  0.36193238702E+01 -0.20144493150E+01 -0.90261192383E+02  0.90356186074E+02  0.00000000000E+00 0.  1.
        -15    1    1    2    0    0  0.27361146402E+01  0.41036447263E+01 -0.23316881454E+02  0.23898973055E+02  0.17770000000E+01 0. -1.
         15    1    1    2    0    0 -0.12146453531E+01  0.96316744814E+01 -0.68001913084E+02  0.68714353877E+02  0.17770000000E+01 0.  1.
</event>
<event>
 6    1  0.8353910E-003  0.1832247E+03  0.7546771E-02  0.1067879E+00
        -11   -1    0    0    0    0  0.00000000000E+00  0.00000000000E+00  0.18250000000E+03  0.18250000000E+03  0.00000000000E+00 0.  1.
         11   -1    0    0    0    0 -0.00000000000E+00 -0.00000000000E+00 -0.18250000000E+03  0.18250000000E+03  0.00000000000E+00 0. -1.
        -11    1    1    2    0    0 -0.13397897360E+00 -0.54539311340E+01  0.18169341782E+03  0.18177530468E+03  0.00000000000E+00 0.  1.
         11    1    1    2    0    0  0.64445242281E+00 -0.22000313361E+01 -0.15070639338E+03  0.15072382845E+03  0.00000000000E+00 0. -1.
        -15    1    1    2    0    0  0.97871091395E+00  0.68755722781E+01 -0.20028434410E+02  0.21272688667E+02  0.17770000000E+01 0. -1.
         15    1    1    2    0    0 -0.14891843632E+01  0.77839019197E+00 -0.10958590025E+02  0.11228178200E+02  0.17770000000E+01 0. -1.
</event>
<event>
 6    1  0.8353910E-003  0.1863888E+03  0.7546771E-02  0.1065401E+00
        -11   -1    0    0    0    0  0.00000000000E+00  0.00000000000E+00  0.18250000000E+03  0.18250000000E+03  0.00000000000E+00 0.  1.
         11   -1    0    0    0    0 -0.00000000000E+00 -0.00000000000E+00 -0.18250000000E+03  0.18250000000E+03  0.00000000000E+00 0. -1.
        -11    1    1    2    0    0 -0.20315399723E+01  0.54112358963E+01  0.17851765716E+03  0.17861120498E+03  0.00000000000E+00 0.  1.
         11    1    1    2    0    0 -0.93868581395E+01 -0.64564106853E+01 -0.79263901037E+02  0.80078488698E+02  0.00000000000E+00 0. -1.
        -15    1    1    2    0    0 -0.32032230129E+01  0.68552485541E+01 -0.23479493324E+01  0.81194621421E+01  0.17770000000E+01 0.  1.
         15    1    1    2    0    0  0.14621621125E+02 -0.58100737651E+01 -0.96905806789E+02  0.98190844176E+02  0.17770000000E+01 0. -1.
</event>
<event>
 6    1  0.8353910E-003  0.1853892E+03  0.7546771E-02  0.1066178E+00
        -11   -1    0    0    0    0  0.00000000000E+00  0.00000000000E+00  0.18250000000E+03  0.18250000000E+03  0.00000000000E+00 0. -1.
         11   -1    0    0    0    0 -0.00000000000E+00 -0.00000000000E+00 -0.18250000000E+03  0.18250000000E+03  0.00000000000E+00 0.  1.
        -11    1    1    2    0    0  0.68485288360E+01  0.83453528872E+01  0.16163987263E+03  0.16199998668E+03  0.00000000000E+00 0. -1.
         11    1    1    2    0    0  0.35191181453E+00 -0.28049572409E+01 -0.17958852542E+03  0.17961077386E+03  0.00000000000E+00 0.  1.
        -15    1    1    2    0    0 -0.84249824687E+01 -0.77121729614E+01  0.11788174820E+02  0.16509898121E+02  0.17770000000E+01 0. -1.
         15    1    1    2    0    0  0.12245418182E+01  0.21717773150E+01  0.61604779701E+01  0.68793413341E+01  0.17770000000E+01 0.  1.
</event>
<event>
 6    1  0.8353910E-003  0.1842459E+03  0.7546771E-02  0.1067074E+00
        -11   -1    0    0    0    0  0.00000000000E+00  0.00000000000E+00  0.18250000000E+03  0.18250000000E+03  0.00000000000E+00 0. -1.
         11   -1    0    0    0    0 -0.00000000000E+00 -0.00000000000E+00 -0.18250000000E+03  0.18250000000E+03  0.00000000000E+00 0.  1.
        -11    1    1    2    0    0 -0.14074101837E+01 -0.37606537022E+01  0.18070952604E+03  0.18075413169E+03  0.00000000000E+00 0. -1.
         11    1    1    2    0    0 -0.64722912494E+00  0.22524215385E+01 -0.13875203351E+03  0.13877182391E+03  0.00000000000E+00 0.  1.
        -15    1    1    2    0    0  0.71772546684E+01  0.41955021776E+01 -0.35970414680E+02  0.36961380985E+02  0.17770000000E+01 0. -1.
         15    1    1    2    0    0 -0.51226153598E+01 -0.26872700139E+01 -0.59870778555E+01  0.85126634199E+01  0.17770000000E+01 0.  1.
</event>
<event>
 6    1  0.8353910E-003  0.1867004E+03  0.7546771E-02  0.1065160E+00
        -11   -1    0    0    0    0  0.00000000000E+00  0.00000000000E+00  0.18250000000E+03  0.18250000000E+03  0.00000000000E+00 0.  1.
         11   -1    0    0    0    0 -0.00000000000E+00 -0.00000000000E+00 -0.18250000000E+03  0.18250000000E+03  0.00000000000E+00 0. -1.
        -11    1    1    2    0    0 -0.13812470306E+01  0.39435091706E+01  0.17825067443E+03  0.17829964117E+03  0.00000000000E+00 0.  1.
         11    1    1    2    0    0  0.24258101352E+00  0.59065113302E+01 -0.16665956789E+03  0.16676437656E+03  0.00000000000E+00 0. -1.
        -15    1    1    2    0    0 -0.29329815302E+01 -0.72758878521E+01 -0.92264410844E+00  0.80962908695E+01  0.17770000000E+01 0.  1.
         15    1    1    2    0    0  0.40716475473E+01 -0.25741326487E+01 -0.10668462433E+02  0.11839691395E+02  0.17770000000E+01 0. -1.
</event>
<event>
 6    1  0.8353910E-003  0.1741856E+03  0.7546771E-02  0.1075273E+00
        -11   -1    0    0    0    0  0.00000000000E+00  0.00000000000E+00  0.18250000000E+03  0.18250000000E+03  0.00000000000E+00 0.  1.
         11   -1    0    0    0    0 -0.00000000000E+00 -0.00000000000E+00 -0.18250000000E+03  0.18250000000E+03  0.00000000000E+00 0. -1.
        -11    1    1    2    0    0  0.10558308845E+02 -0.12702386921E+01  0.17539399598E+03  0.17571609265E+03  0.00000000000E+00 0.  1.
         11    1    1    2    0    0 -0.17761261231E+01  0.83471737526E+01 -0.17263770324E+03  0.17284850741E+03  0.00000000000E+00 0. -1.
        -15    1    1    2    0    0 -0.33979854172E+01 -0.87586970189E+01  0.69750237660E+00  0.95867260799E+01  0.17770000000E+01 0. -1.
         15    1    1    2    0    0 -0.53841973046E+01  0.16817619584E+01 -0.34537951192E+01  0.68486738589E+01  0.17770000000E+01 0.  1.
</event>
<event>
 6    1  0.8353910E-003  0.1848058E+03  0.7546771E-02  0.1066634E+00
        -11   -1    0    0    0    0  0.00000000000E+00  0.00000000000E+00  0.18250000000E+03  0.18250000000E+03  0.00000000000E+00 0. -1.
         11   -1    0    0    0    0 -0.00000000000E+00 -0.00000000000E+00 -0.18250000000E+03  0.18250000000E+03  0.00000000000E+00 0. -1.
        -11    1    1    2    0    0  0.26750763364E+01 -0.26860798597E+01  0.14986018676E+03  0.14990812731E+03  0.00000000000E+00 0. -1.
         11    1    1    2    0    0  0.14479988605E+00  0.67397920912E+01 -0.18006800832E+03  0.18019415470E+03  0.00000000000E+00 0. -1.
        -15    1    1    2    0    0 -0.56364798692E+00 -0.61657592133E+01  0.24182331461E+01  0.68803972471E+01  0.17770000000E+01 0. -1.
         15    1    1    2    0    0 -0.22562282355E+01  0.21120469817E+01  0.27789588419E+02  0.28017320746E+02  0.17770000000E+01 0.  1.
</event>
<event>
 6    1  0.8353910E-003  0.1826483E+03  0.7546771E-02  0.1068337E+00
        -11   -1    0    0    0    0  0.00000000000E+00  0.00000000000E+00  0.18250000000E+03  0.18250000000E+03  0.00000000000E+00 0.  1.
         11   -1    0    0    0    0 -0.00000000000E+00 -0.00000000000E+00 -0.18250000000E+03  0.18250000000E+03  0.00000000000E+00 0. -1.
        -11    1    1    2    0    0  0.30906366047E+01 -0.28249096872E+01  0.18230361068E+03  0.18235168937E+03  0.00000000000E+00 0.  1.
         11    1    1    2    0    0  0.11403790372E+01  0.11772013788E+01 -0.12135138156E+03  0.12136244919E+03  0.00000000000E+00 0. -1.
        -15    1    1    2    0    0 -0.65009112505E+00  0.14324575595E+01 -0.21093058107E+02  0.21226148554E+02  0.17770000000E+01 0.  1.
         15    1    1    2    0    0 -0.35809245169E+01  0.21525074892E+00 -0.39859171011E+02  0.40059712879E+02  0.17770000000E+01 0. -1.
</event>
<event>
 6    1  0.8353910E-003  0.1699324E+03  0.7546771E-02  0.1078923E+00
        -11   -1    0    0    0    0  0.00000000000E+00  0.00000000000E+00  0.18250000000E+03  0.18250000000E+03  0.00000000000E+00 0. -1.
         11   -1    0    0    0    0 -0.00000000000E+00 -0.00000000000E+00 -0.18250000000E+03  0.18250000000E+03  0.00000000000E+00 0. -1.
        -11    1    1    2    0    0 -0.45841633520E+01  0.41046158866E+00  0.16824625786E+03  0.16830919855E+03  0.00000000000E+00 0. -1.
         11    1    1    2    0    0  0.20815663020E+02 -0.64674779483E+01 -0.17061836744E+03  0.17200507959E+03  0.00000000000E+00 0. -1.
        -15    1    1    2    0    0 -0.11466992153E+02  0.97279185392E+01  0.72041725328E+01  0.16768486486E+02  0.17770000000E+01 0.  1.
         15    1    1    2    0    0 -0.47645075147E+01 -0.36709021796E+01 -0.48320629506E+01  0.79172353779E+01  0.17770000000E+01 0. -1.
</event>
<event>
 6    1  0.8353910E-003  0.1825886E+03  0.7546771E-02  0.1068384E+00
        -11   -1    0    0    0    0  0.00000000000E+00  0.00000000000E+00  0.18250000000E+03  0.18250000000E+03  0.00000000000E+00 0. -1.
         11   -1    0    0    0    0 -0.00000000000E+00 -0.00000000000E+00 -0.18250000000E+03  0.18250000000E+03  0.00000000000E+00 0. -1.
        -11    1    1    2    0    0  0.10270900909E+01 -0.10262883662E+01  0.52115193728E+02  0.52135415978E+02  0.00000000000E+00 0. -1.
         11    1    1    2    0    0  0.52389573529E+00 -0.36484322363E+01 -0.18237420258E+03  0.18241144507E+03  0.00000000000E+00 0. -1.
        -15    1    1    2    0    0 -0.19872495525E+01  0.11193488855E+01  0.39261259690E+02  0.39367579862E+02  0.17770000000E+01 0.  1.
         15    1    1    2    0    0  0.43626372630E+00  0.35553717169E+01  0.90997749161E+02  0.91085559094E+02  0.17770000000E+01 0. -1.
</event>
<event>
 6    1  0.8353910E-003  0.1593209E+03  0.7546771E-02  0.1088566E+00
        -11   -1    0    0    0    0  0.00000000000E+00  0.00000000000E+00  0.18250000000E+03  0.18250000000E+03  0.00000000000E+00 0.  1.
         11   -1    0    0    0    0 -0.00000000000E+00 -0.00000000000E+00 -0.18250000000E+03  0.18250000000E+03  0.00000000000E+00 0. -1.
        -11    1    1    2    0    0 -0.28500561979E+01 -0.67147212447E+01  0.15397747619E+03  0.15415016534E+03  0.00000000000E+00 0.  1.
         11    1    1    2    0    0  0.78454245743E+01 -0.11469377483E+02 -0.16464187199E+03  0.16522724751E+03  0.00000000000E+00 0. -1.
        -15    1    1    2    0    0  0.20401649928E-01  0.14152541604E+02  0.25576114356E+02  0.29284641105E+02  0.17770000000E+01 0. -1.
         15    1    1    2    0    0 -0.50157700264E+01  0.40315571239E+01 -0.14911718549E+02  0.16337946043E+02  0.17770000000E+01 0.  1.
</event>
<event>
 6    1  0.8353910E-003  0.2064007E+03  0.7546771E-02  0.1050877E+00
        -11   -1    0    0    0    0  0.00000000000E+00  0.00000000000E+00  0.18250000000E+03  0.18250000000E+03  0.00000000000E+00 0. -1.
         11   -1    0    0    0    0 -0.00000000000E+00 -0.00000000000E+00 -0.18250000000E+03  0.18250000000E+03  0.00000000000E+00 0. -1.
        -11    1    1    2    0    0 -0.37902383421E+01 -0.41183111053E+01  0.15850049602E+03  0.15859928635E+03  0.00000000000E+00 0. -1.
         11    1    1    2    0    0 -0.52613940887E+01  0.85553880007E+00 -0.68723154995E+02  0.68929574544E+02  0.00000000000E+00 0. -1.
        -15    1    1    2    0    0  0.24307376870E+02 -0.19942623420E+02  0.10662488508E+02  0.33247604264E+02  0.17770000000E+01 0.  1.
         15    1    1    2    0    0 -0.15255744439E+02  0.23205395725E+02 -0.10043982953E+03  0.10422353484E+03  0.17770000000E+01 0. -1.
</event>
<event>
 6    1  0.8353910E-003  0.1846328E+03  0.7546771E-02  0.1066770E+00
        -11   -1    0    0    0    0  0.00000000000E+00  0.00000000000E+00  0.18250000000E+03  0.18250000000E+03  0.00000000000E+00 0. -1.
         11   -1    0    0    0    0 -0.00000000000E+00 -0.00000000000E+00 -0.18250000000E+03  0.18250000000E+03  0.00000000000E+00 0.  1.
        -11    1    1    2    0    0  0.29192725679E+01  0.16740223324E+02  0.17956497002E+03  0.18036722454E+03  0.00000000000E+00 0. -1.
         11    1    1    2    0    0 -0.48010726699E+01 -0.26334607114E+01 -0.10826871253E+03  0.10840710090E+03  0.00000000000E+00 0.  1.
        -15    1    1    2    0    0 -0.55514995578E+01  0.27863063466E+01 -0.80744250236E+01  0.10341021171E+02  0.17770000000E+01 0. -1.
         15    1    1    2    0    0  0.74332996598E+01 -0.16893068959E+02 -0.63221832468E+02  0.65884653390E+02  0.17770000000E+01 0.  1.
</event>
<event>
 6    1  0.8353910E-003  0.1827930E+03  0.7546771E-02  0.1068222E+00
        -11   -1    0    0    0    0  0.00000000000E+00  0.00000000000E+00  0.18250000000E+03  0.18250000000E+03  0.00000000000E+00 0. -1.
         11   -1    0    0    0    0 -0.00000000000E+00 -0.00000000000E+00 -0.18250000000E+03  0.18250000000E+03  0.00000000000E+00 0.  1.
        -11    1    1    2    0    0  0.25750790266E-01 -0.29245174246E+01  0.18218354737E+03  0.18220702071E+03  0.00000000000E+00 0. -1.
         11    1    1    2    0    0  0.19862839513E+01  0.74425586355E+00 -0.11450895912E+03  0.11452860324E+03  0.00000000000E+00 0.  1.
        -15    1    1    2    0    0 -0.42683703402E+01 -0.87126411745E+00 -0.39662039752E+02  0.39940120341E+02  0.17770000000E+01 0. -1.
         15    1    1    2    0    0  0.22563355987E+01  0.30515256785E+01 -0.28012548494E+02  0.28324255708E+02  0.17770000000E+01 0.  1.
</event>
<event>
 6    1  0.8353910E-003  0.1825445E+03  0.7546771E-02  0.1068419E+00
        -11   -1    0    0    0    0  0.00000000000E+00  0.00000000000E+00  0.18250000000E+03  0.18250000000E+03  0.00000000000E+00 0. -1.
         11   -1    0    0    0    0 -0.00000000000E+00 -0.00000000000E+00 -0.18250000000E+03  0.18250000000E+03  0.00000000000E+00 0. -1.
        -11    1    1    2    0    0 -0.19644584025E+00  0.10504243954E+01  0.56388077243E+02  0.56398202432E+02  0.00000000000E+00 0. -1.
         11    1    1    2    0    0  0.32008286899E+01 -0.44254610150E+00 -0.18242691074E+03  0.18245552585E+03  0.00000000000E+00 0. -1.
        -15    1    1    2    0    0 -0.10464108067E+01 -0.10418261807E+01  0.40829101552E+02  0.40894420645E+02  0.17770000000E+01 0. -1.
         15    1    1    2    0    0 -0.19579720429E+01  0.43394788680E+00  0.85209731941E+02  0.85251851075E+02  0.17770000000E+01 0.  1.
</event>
<event>
 6    1  0.8353910E-003  0.1839098E+03  0.7546771E-02  0.1067338E+00
        -11   -1    0    0    0    0  0.00000000000E+00  0.00000000000E+00  0.18250000000E+03  0.18250000000E+03  0.00000000000E+00 0. -1.
         11   -1    0    0    0    0 -0.00000000000E+00 -0.00000000000E+00 -0.18250000000E+03  0.18250000000E+03  0.00000000000E+00 0. -1.
        -11    1    1    2    0    0  0.11363533325E+01  0.43533569655E+01  0.18103434799E+03  0.18109024868E+03  0.00000000000E+00 0. -1.
         11    1    1    2    0    0 -0.19637108872E+01  0.40955662051E+01 -0.15924105124E+03  0.15930581353E+03  0.00000000000E+00 0. -1.
        -15    1    1    2    0    0  0.14257603227E+01 -0.44334398654E+00 -0.16516600814E+01  0.28486938081E+01  0.17770000000E+01 0.  1.
         15    1    1    2    0    0 -0.59840276794E+00 -0.80055791841E+01 -0.20141636666E+02  0.21755243978E+02  0.17770000000E+01 0. -1.
</event>
<event>
 6    1  0.8353910E-003  0.1827082E+03  0.7546771E-02  0.1068289E+00
        -11   -1    0    0    0    0  0.00000000000E+00  0.00000000000E+00  0.18250000000E+03  0.18250000000E+03  0.00000000000E+00 0. -1.
         11   -1    0    0    0    0 -0.00000000000E+00 -0.00000000000E+00 -0.18250000000E+03  0.18250000000E+03  0.00000000000E+00 0.  1.
        -11    1    1    2    0    0 -0.22902945765E+01  0.29846621581E+01  0.18225296533E+03  0.18229179090E+03  0.00000000000E+00 0. -1.
         11    1    1    2    0    0  0.22690520293E+01  0.16881241780E+01 -0.94821440062E+02  0.94863606593E+02  0.00000000000E+00 0.  1.
        -15    1    1    2    0    0 -0.14831424828E+01 -0.37977676815E+01 -0.27156882104E+02  0.27518661406E+02  0.17770000000E+01 0. -1.
         15    1    1    2    0    0  0.15043850300E+01 -0.87501865464E+00 -0.60274643165E+02  0.60325941101E+02  0.17770000000E+01 0.  1.
</event>
<event>
 6    1  0.8353910E-003  0.1944485E+03  0.7546771E-02  0.1059323E+00
        -11   -1    0    0    0    0  0.00000000000E+00  0.00000000000E+00  0.18250000000E+03  0.18250000000E+03  0.00000000000E+00 0.  1.
         11   -1    0    0    0    0 -0.00000000000E+00 -0.00000000000E+00 -0.18250000000E+03  0.18250000000E+03  0.00000000000E+00 0. -1.
        -11    1    1    2    0    0  0.20513050438E+01  0.74135839920E+00  0.15355635741E+03  0.15357184757E+03  0.00000000000E+00 0.  1.
         11    1    1    2    0    0  0.41998103848E+01  0.60350681737E+01 -0.17039292736E+03  0.17055148827E+03  0.00000000000E+00 0. -1.
        -15    1    1    2    0    0 -0.10692309989E+02  0.26120894631E+00 -0.87371324287E+01  0.13924400709E+02  0.17770000000E+01 0.  1.
         15    1    1    2    0    0  0.44411945603E+01 -0.70376355192E+01  0.25573702385E+02  0.26952263458E+02  0.17770000000E+01 0. -1.
</event>
<event>
 6    1  0.8353910E-003  0.1835232E+03  0.7546771E-02  0.1067643E+00
        -11   -1    0    0    0    0  0.00000000000E+00  0.00000000000E+00  0.18250000000E+03  0.18250000000E+03  0.00000000000E+00 0.  1.
         11   -1    0    0    0    0 -0.00000000000E+00 -0.00000000000E+00 -0.18250000000E+03  0.18250000000E+03  0.00000000000E+00 0. -1.
        -11    1    1    2    0    0  0.47016509832E+01  0.57945503961E+01  0.12019650081E+03  0.12042790849E+03  0.00000000000E+00 0.  1.
         11    1    1    2    0    0 -0.28917857879E+01  0.26667582127E+00 -0.18145353428E+03  0.18147677164E+03  0.00000000000E+00 0. -1.
        -15    1    1    2    0    0 -0.17771490447E+01 -0.44314269654E+01  0.60277703701E+02  0.60492603649E+02  0.17770000000E+01 0.  1.
         15    1    1    2    0    0 -0.32716150646E-01 -0.16297992519E+01  0.97932977377E+00  0.26027162262E+01  0.17770000000E+01 0. -1.
</event>
<event>
 6    1  0.8353910E-003  0.1831474E+03  0.7546771E-02  0.1067941E+00
        -11   -1    0    0    0    0  0.00000000000E+00  0.00000000000E+00  0.18250000000E+03  0.18250000000E+03  0.00000000000E+00 0.  1.
         11   -1    0    0    0    0 -0.00000000000E+00 -0.00000000000E+00 -0.18250000000E+03  0.18250000000E+03  0.00000000000E+00 0. -1.
        -11    1    1    2    0    0 -0.24161096188E+01  0.23318650113E+00  0.14301430306E+03  0.14303490078E+03  0.00000000000E+00 0.  1.
         11    1    1    2    0    0  0.35558764225E+01  0.22863059014E+01 -0.18180345118E+03  0.18185259501E+03  0.00000000000E+00 0. -1.
        -15    1    1    2    0    0 -0.37933634241E+01  0.81860951199E-01  0.78294008252E+01  0.88799523402E+01  0.17770000000E+01 0. -1.
         15    1    1    2    0    0  0.26535966203E+01 -0.26013533537E+01  0.30959747297E+02  0.31232551865E+02  0.17770000000E+01 0.  1.
</event>
<event>
 6    1  0.8353910E-003  0.1829622E+03  0.7546771E-02  0.1068088E+00
        -11   -1    0    0    0    0  0.00000000000E+00  0.00000000000E+00  0.18250000000E+03  0.18250000000E+03  0.00000000000E+00 0. -1.
         11   -1    0    0    0    0 -0.00000000000E+00 -0.00000000000E+00 -0.18250000000E+03  0.18250000000E+03  0.00000000000E+00 0.  1.
        -11    1    1    2    0    0  0.33606017549E+01  0.20774156557E+01  0.65192183505E+02  0.65311791356E+02  0.00000000000E+00 0. -1.
         11    1    1    2    0    0 -0.42152918631E-01  0.25481537292E+01 -0.18201998170E+03  0.18203782190E+03  0.00000000000E+00 0.  1.
        -15    1    1    2    0    0  0.21769189911E+01 -0.41258081129E+00  0.84231439965E+02  0.84279311856E+02  0.17770000000E+01 0. -1.
         15    1    1    2    0    0 -0.54953678274E+01 -0.42129885736E+01  0.32596358230E+02  0.33371074887E+02  0.17770000000E+01 0.  1.
</event>
<event>
 6    1  0.8353910E-003  0.1848644E+03  0.7546771E-02  0.1066588E+00
        -11   -1    0    0    0    0  0.00000000000E+00  0.00000000000E+00  0.18250000000E+03  0.18250000000E+03  0.00000000000E+00 0. -1.
         11   -1    0    0    0    0 -0.00000000000E+00 -0.00000000000E+00 -0.18250000000E+03  0.18250000000E+03  0.00000000000E+00 0.  1.
        -11    1    1    2    0    0  0.14339750319E+01 -0.19246213752E+01  0.15326580713E+03  0.15328459833E+03  0.00000000000E+00 0. -1.
         11    1    1    2    0    0  0.88403623004E+01  0.20330407120E+01 -0.17990701076E+03  0.18013555390E+03  0.00000000000E+00 0.  1.
        -15    1    1    2    0    0 -0.10229695763E+02 -0.13357738598E+01  0.89956008953E+01  0.13802519034E+02  0.17770000000E+01 0. -1.
         15    1    1    2    0    0 -0.44641569291E-01  0.12273545231E+01  0.17645602733E+02  0.17777328731E+02  0.17770000000E+01 0.  1.
</event>
<event>
 6    1  0.8353910E-003  0.1872583E+03  0.7546771E-02  0.1064729E+00
        -11   -1    0    0    0    0  0.00000000000E+00  0.00000000000E+00  0.18250000000E+03  0.18250000000E+03  0.00000000000E+00 0.  1.
         11   -1    0    0    0    0 -0.00000000000E+00 -0.00000000000E+00 -0.18250000000E+03  0.18250000000E+03  0.00000000000E+00 0. -1.
        -11    1    1    2    0    0 -0.15368377010E+01 -0.42647222834E+01  0.16642495870E+03  0.16648668597E+03  0.00000000000E+00 0.  1.
         11    1    1    2    0    0 -0.28417829814E+01 -0.13931065890E+01 -0.17771350699E+03  0.17774168629E+03  0.00000000000E+00 0. -1.
        -15    1    1    2    0    0  0.31692918409E+01 -0.14957753973E+01  0.12590552488E+02  0.13189446378E+02  0.17770000000E+01 0.  1.
         15    1    1    2    0    0  0.12093288415E+01  0.71536042696E+01 -0.13020041981E+01  0.75821813633E+01  0.17770000000E+01 0. -1.
</event>
<event>
 6    1  0.8353910E-003  0.1838564E+03  0.7546771E-02  0.1067380E+00
        -11   -1    0    0    0    0  0.00000000000E+00  0.00000000000E+00  0.18250000000E+03  0.18250000000E+03  0.00000000000E+00 0.  1.
         11   -1    0    0    0    0 -0.00000000000E+00 -0.00000000000E+00 -0.18250000000E+03  0.18250000000E+03  0.00000000000E+00 0.  1.
        -11    1    1    2    0    0 -0.59370539553E+00 -0.53059099892E+00  0.12860456571E+02  0.12885082698E+02  0.00000000000E+00 0.  1.
         11    1    1    2    0    0  0.18731034058E+01 -0.45157786015E+01 -0.18107757940E+03  0.18114356332E+03  0.00000000000E+00 0.  1.
        -15    1    1    2    0    0  0.88599544699E+00  0.60276195440E+01  0.60207273230E+01  0.87478038271E+01  0.17770000000E+01 0. -1.
         15    1    1    2    0    0 -0.21653934573E+01 -0.98124994363E+00  0.16219639550E+03  0.16222355015E+03  0.17770000000E+01 0.  1.
</event>
<event>
 6    1  0.1124485E-002  0.1388098E+03  0.7546771E-02  0.1109777E+00
        -11   -1    0    0    0    0  0.00000000000E+00  0.00000000000E+00  0.18250000000E+03  0.18250000000E+03  0.00000000000E+00 0. -1.
         11   -1    0    0    0    0 -0.00000000000E+00 -0.00000000000E+00 -0.18250000000E+03  0.18250000000E+03  0.00000000000E+00 0.  1.
        -11    1    1    2    0    0  0.25710722268E+01 -0.41220772398E+01  0.53542625592E+02  0.53762577026E+02  0.00000000000E+00 0. -1.
         11    1    1    2    0    0  0.15854753022E+01  0.44493968968E+01 -0.14967024386E+03  0.14974475871E+03  0.00000000000E+00 0.  1.
        -15    1    1    2    0    0  0.27867127133E-01  0.50949983961E+01 -0.32361783621E+02  0.32808574388E+02  0.17770000000E+01 0.  1.
         15    1    1    2    0    0 -0.41844146562E+01 -0.54223180532E+01  0.12848940189E+03  0.12868408987E+03  0.17770000000E+01 0. -1.
</event>
<event>
 6    1  0.8353910E-003  0.1842166E+03  0.7546771E-02  0.1067097E+00
        -11   -1    0    0    0    0  0.00000000000E+00  0.00000000000E+00  0.18250000000E+03  0.18250000000E+03  0.00000000000E+00 0.  1.
         11   -1    0    0    0    0 -0.00000000000E+00 -0.00000000000E+00 -0.18250000000E+03  0.18250000000E+03  0.00000000000E+00 0. -1.
        -11    1    1    2    0    0 -0.23823728340E+01  0.76283557591E+00  0.67994935001E+02  0.68040934769E+02  0.00000000000E+00 0.  1.
         11    1    1    2    0    0  0.25924540885E+01 -0.71397311669E+00 -0.18076341028E+03  0.18078340928E+03  0.00000000000E+00 0. -1.
        -15    1    1    2    0    0 -0.11835724305E+02  0.27651172720E+00  0.26128514957E+02  0.28740526289E+02  0.17770000000E+01 0.  1.
         15    1    1    2    0    0  0.11625643050E+02 -0.32537418642E+00  0.86639960323E+02  0.87435129658E+02  0.17770000000E+01 0.  1.
</event>
<event>
 6    1  0.8353910E-003  0.1859306E+03  0.7546771E-02  0.1065756E+00
        -11   -1    0    0    0    0  0.00000000000E+00  0.00000000000E+00  0.18250000000E+03  0.18250000000E+03  0.00000000000E+00 0.  1.
         11   -1    0    0    0    0 -0.00000000000E+00 -0.00000000000E+00 -0.18250000000E+03  0.18250000000E+03  0.00000000000E+00 0. -1.
        -11    1    1    2    0    0 -0.10401290454E+01 -0.18939388305E+00  0.24896456295E+02  0.24918893926E+02  0.00000000000E+00 0.  1.
         11    1    1    2    0    0  0.39272435136E+01 -0.24044371734E+02 -0.17740427916E+03  0.17906935337E+03  0.00000000000E+00 0. -1.
        -15    1    1    2    0    0 -0.22713809809E+01 -0.13325208052E+02  0.32319506836E+02  0.35077465591E+02  0.17770000000E+01 0. -1.
         15    1    1    2    0    0 -0.61573348730E+00  0.37558973668E+02  0.12018831603E+03  0.12593428711E+03  0.17770000000E+01 0.  1.
</event>
<event>
 6    1  0.8353910E-003  0.1941864E+03  0.7546771E-02  0.1059515E+00
        -11   -1    0    0    0    0  0.00000000000E+00  0.00000000000E+00  0.18250000000E+03  0.18250000000E+03  0.00000000000E+00 0. -1.
         11   -1    0    0    0    0 -0.00000000000E+00 -0.00000000000E+00 -0.18250000000E+03  0.18250000000E+03  0.00000000000E+00 0. -1.
        -11    1    1    2    0    0 -0.55430085765E+01  0.23700349652E+02  0.16907059762E+03  0.17081363675E+03  0.00000000000E+00 0. -1.
         11    1    1    2    0    0 -0.18259400239E+01 -0.36322944870E+01 -0.11343970244E+03  0.11351252667E+03  0.00000000000E+00 0. -1.
        -15    1    1    2    0    0  0.29423931517E+02 -0.19011470316E+02 -0.41763925931E+02  0.54539774364E+02  0.17770000000E+01 0. -1.
         15    1    1    2    0    0 -0.22054982916E+02 -0.10565848495E+01 -0.13866969249E+02  0.26134062220E+02  0.17770000000E+01 0.  1.
</event>
<event>
 6    1  0.8353910E-003  0.1829068E+03  0.7546771E-02  0.1068131E+00
        -11   -1    0    0    0    0  0.00000000000E+00  0.00000000000E+00  0.18250000000E+03  0.18250000000E+03  0.00000000000E+00 0.  1.
         11   -1    0    0    0    0 -0.00000000000E+00 -0.00000000000E+00 -0.18250000000E+03  0.18250000000E+03  0.00000000000E+00 0. -1.
        -11    1    1    2    0    0  0.53364374525E+01  0.10782566582E+02  0.18169535103E+03  0.18209322309E+03  0.00000000000E+00 0.  1.
         11    1    1    2    0    0 -0.76371115075E-01 -0.13077136274E+01 -0.61304792167E+02  0.61318785785E+02  0.00000000000E+00 0. -1.
        -15    1    1    2    0    0 -0.45562008162E+01 -0.26481688029E+01 -0.96692191765E+02  0.96851997611E+02  0.17770000000E+01 0. -1.
         15    1    1    2    0    0 -0.70386552127E+00 -0.68266841515E+01 -0.23698367100E+02  0.24735993519E+02  0.17770000000E+01 0.  1.
</event>
<event>
 6    1  0.8353910E-003  0.1898056E+03  0.7546771E-02  0.1062784E+00
        -11   -1    0    0    0    0  0.00000000000E+00  0.00000000000E+00  0.18250000000E+03  0.18250000000E+03  0.00000000000E+00 0. -1.
         11   -1    0    0    0    0 -0.00000000000E+00 -0.00000000000E+00 -0.18250000000E+03  0.18250000000E+03  0.00000000000E+00 0.  1.
        -11    1    1    2    0    0 -0.39695672768E+00  0.24234861638E+01  0.17517718792E+03  0.17519440068E+03  0.00000000000E+00 0. -1.
         11    1    1    2    0    0 -0.40828529421E+01 -0.18161323847E+01 -0.16892967375E+03  0.16898876501E+03  0.00000000000E+00 0.  1.
        -15    1    1    2    0    0  0.24398034967E+01 -0.44862006667E+01  0.57668346212E+01  0.79052354849E+01  0.17770000000E+01 0. -1.
         15    1    1    2    0    0  0.20400061731E+01  0.38788468876E+01 -0.12014348791E+02  0.12911598826E+02  0.17770000000E+01 0.  1.
</event>
<event>
 6    1  0.8353910E-003  0.1837917E+03  0.7546771E-02  0.1067431E+00
        -11   -1    0    0    0    0  0.00000000000E+00  0.00000000000E+00  0.18250000000E+03  0.18250000000E+03  0.00000000000E+00 0.  1.
         11   -1    0    0    0    0 -0.00000000000E+00 -0.00000000000E+00 -0.18250000000E+03  0.18250000000E+03  0.00000000000E+00 0.  1.
        -11    1    1    2    0    0 -0.10385622554E+01  0.33876337842E+01  0.18117365119E+03  0.18120829606E+03  0.00000000000E+00 0.  1.
         11    1    1    2    0    0 -0.40422319153E+01 -0.11362618299E+01 -0.17174743090E+03  0.17179875073E+03  0.00000000000E+00 0.  1.
        -15    1    1    2    0    0  0.14048126882E+01  0.70071895605E+00 -0.32273241934E+01  0.40047292285E+01  0.17770000000E+01 0. -1.
         15    1    1    2    0    0  0.36759814826E+01 -0.29520909103E+01 -0.61988960964E+01  0.79882239839E+01  0.17770000000E+01 0.  1.
</event>
<event>
 6    1  0.8353910E-003  0.1856349E+03  0.7546771E-02  0.1065986E+00
        -11   -1    0    0    0    0  0.00000000000E+00  0.00000000000E+00  0.18250000000E+03  0.18250000000E+03  0.00000000000E+00 0.  1.
         11   -1    0    0    0    0 -0.00000000000E+00 -0.00000000000E+00 -0.18250000000E+03  0.18250000000E+03  0.00000000000E+00 0.  1.
        -11    1    1    2    0    0  0.10399162837E+01 -0.33725306308E+01  0.17933036537E+03  0.17936508950E+03  0.00000000000E+00 0.  1.
         11    1    1    2    0    0 -0.44882358695E+00  0.37753219334E+01 -0.17888498911E+03  0.17892538620E+03  0.00000000000E+00 0.  1.
        -15    1    1    2    0    0  0.40139133264E+00  0.12823614194E+01  0.20847218718E+01  0.30511243984E+01  0.17770000000E+01 0.  1.
         15    1    1    2    0    0 -0.99248402938E+00 -0.16851527220E+01 -0.25300981326E+01  0.36583998969E+01  0.17770000000E+01 0. -1.
</event>
<event>
 6    1  0.8353910E-003  0.1745397E+03  0.7546771E-02  0.1074974E+00
        -11   -1    0    0    0    0  0.00000000000E+00  0.00000000000E+00  0.18250000000E+03  0.18250000000E+03  0.00000000000E+00 0. -1.
         11   -1    0    0    0    0 -0.00000000000E+00 -0.00000000000E+00 -0.18250000000E+03  0.18250000000E+03  0.00000000000E+00 0.  1.
        -11    1    1    2    0    0 -0.24098099550E+01 -0.99859055677E+01  0.17496186269E+03  0.17526317038E+03  0.00000000000E+00 0. -1.
         11    1    1    2    0    0  0.38524348108E+01 -0.34301791805E+01 -0.17400186043E+03  0.17407830082E+03  0.00000000000E+00 0.  1.
        -15    1    1    2    0    0 -0.27107694985E+01  0.17376968777E+01 -0.86225233805E+00  0.37774422309E+01  0.17770000000E+01 0.  1.
         15    1    1    2    0    0  0.12681446428E+01  0.11678387871E+02 -0.97749925206E-01  0.11881086572E+02  0.17770000000E+01 0. -1.
</event>
<event>
 6    1  0.8353910E-003  0.1740649E+03  0.7546771E-02  0.1075375E+00
        -11   -1    0    0    0    0  0.00000000000E+00  0.00000000000E+00  0.18250000000E+03  0.18250000000E+03  0.00000000000E+00 0. -1.
         11   -1    0    0    0    0 -0.00000000000E+00 -0.00000000000E+00 -0.18250000000E+03  0.18250000000E+03  0.00000000000E+00 0. -1.
        -11    1    1    2    0    0  0.54171040836E+01  0.20371476291E+01  0.17425154908E+03  0.17434763361E+03  0.00000000000E+00 0. -1.
         11    1    1    2    0    0  0.28111064840E+01  0.95211738325E+00 -0.17386710173E+03  0.17389243201E+03  0.00000000000E+00 0. -1.
        -15    1    1    2    0    0 -0.42994447942E+01 -0.28099404553E+01 -0.69993569062E+01  0.88616994420E+01  0.17770000000E+01 0.  1.
         15    1    1    2    0    0 -0.39287657733E+01 -0.17932455712E+00  0.66149095502E+01  0.78982349392E+01  0.17770000000E+01 0.  1.
</event>
<event>
 6    1  0.8353910E-003  0.1829640E+03  0.7546771E-02  0.1068086E+00
        -11   -1    0    0    0    0  0.00000000000E+00  0.00000000000E+00  0.18250000000E+03  0.18250000000E+03  0.00000000000E+00 0. -1.
         11   -1    0    0    0    0 -0.00000000000E+00 -0.00000000000E+00 -0.18250000000E+03  0.18250000000E+03  0.00000000000E+00 0.  1.
        -11    1    1    2    0    0  0.18706687347E+01 -0.33116782261E+01  0.18199625634E+03  0.18203599626E+03  0.00000000000E+00 0. -1.
         11    1    1    2    0    0 -0.23024346577E+01  0.67033289601E-01 -0.10832827425E+03  0.10835276046E+03  0.00000000000E+00 0.  1.
        -15    1    1    2    0    0  0.19514383350E+01 -0.51862747155E-01 -0.38026507428E+01  0.46291125490E+01  0.17770000000E+01 0.  1.
         15    1    1    2    0    0 -0.15196724120E+01  0.32965076837E+01 -0.69865331350E+02  0.69982130724E+02  0.17770000000E+01 0.  1.
</event>
<event>
 6    1  0.8353910E-003  0.1835602E+03  0.7546771E-02  0.1067614E+00
        -11   -1    0    0    0    0  0.00000000000E+00  0.00000000000E+00  0.18250000000E+03  0.18250000000E+03  0.00000000000E+00 0. -1.
         11   -1    0    0    0    0 -0.00000000000E+00 -0.00000000000E+00 -0.18250000000E+03  0.18250000000E+03  0.00000000000E+00 0. -1.
        -11    1    1    2    0    0  0.37773310405E-01  0.49289264567E+01  0.13900186654E+03  0.13908923267E+03  0.00000000000E+00 0. -1.
         11    1    1    2    0    0  0.42828314992E+00 -0.29468290223E+01 -0.18141537615E+03  0.18143981353E+03  0.00000000000E+00 0. -1.
        -15    1    1    2    0    0  0.36930670435E+01  0.38267778588E+01  0.23864397035E+02  0.24514284566E+02  0.17770000000E+01 0.  1.
         15    1    1    2    0    0 -0.41591235039E+01 -0.58088752932E+01  0.18549112579E+02  0.19956669235E+02  0.17770000000E+01 0. -1.
</event>
<event>
 6    1  0.8353910E-003  0.1850783E+03  0.7546771E-02  0.1066421E+00
        -11   -1    0    0    0    0  0.00000000000E+00  0.00000000000E+00  0.18250000000E+03  0.18250000000E+03  0.00000000000E+00 0. -1.
         11   -1    0    0    0    0 -0.00000000000E+00 -0.00000000000E+00 -0.18250000000E+03  0.18250000000E+03  0.00000000000E+00 0. -1.
        -11    1    1    2    0    0  0.29001759239E+00  0.48843909859E+01  0.50588382615E+02  0.50824461051E+02  0.00000000000E+00 0. -1.
         11    1    1    2    0    0 -0.86490442390E+01  0.28763172450E+01 -0.17969069545E+03  0.17992171964E+03  0.00000000000E+00 0. -1.
        -15    1    1    2    0    0  0.49599255732E+01 -0.14455281527E+01  0.55180021391E+00  0.54911406654E+01  0.17770000000E+01 0.  1.
         15    1    1    2    0    0  0.33991010735E+01 -0.63151800782E+01  0.12855051262E+03  0.12876267864E+03  0.17770000000E+01 0. -1.
</event>
<event>
 6    1  0.8353910E-003  0.1832282E+03  0.7546771E-02  0.1067877E+00
        -11   -1    0    0    0    0  0.00000000000E+00  0.00000000000E+00  0.18250000000E+03  0.18250000000E+03  0.00000000000E+00 0. -1.
         11   -1    0    0    0    0 -0.00000000000E+00 -0.00000000000E+00 -0.18250000000E+03  0.18250000000E+03  0.00000000000E+00 0. -1.
        -11    1    1    2    0    0  0.11010671316E+02 -0.73714822040E-01  0.18143795622E+03  0.18177175874E+03  0.00000000000E+00 0. -1.
         11    1    1    2    0    0 -0.24425243276E+00 -0.28014107148E+01 -0.15418235632E+02  0.15672573217E+02  0.00000000000E+00 0. -1.
        -15    1    1    2    0    0 -0.74975766548E+01 -0.60930611444E+01 -0.41035995263E+02  0.42195375173E+02  0.17770000000E+01 0.  1.
         15    1    1    2    0    0 -0.32688422282E+01  0.89681866812E+01 -0.12498372533E+03  0.12536029287E+03  0.17770000000E+01 0. -1.
</event>
<event>
 6    1  0.8353910E-003  0.1859299E+03  0.7546771E-02  0.1065757E+00
        -11   -1    0    0    0    0  0.00000000000E+00  0.00000000000E+00  0.18250000000E+03  0.18250000000E+03  0.00000000000E+00 0.  1.
         11   -1    0    0    0    0 -0.00000000000E+00 -0.00000000000E+00 -0.18250000000E+03  0.18250000000E+03  0.00000000000E+00 0. -1.
        -11    1    1    2    0    0  0.15959433007E+01  0.27023763289E+01  0.17904257116E+03  0.17907007612E+03  0.00000000000E+00 0.  1.
         11    1    1    2    0    0 -0.51185563811E+00 -0.35678262355E+01 -0.96428270562E+02  0.96495609971E+02  0.00000000000E+00 0. -1.
        -15    1    1    2    0    0  0.11181435786E+01 -0.46222736719E+00 -0.85291611748E+02  0.85318700546E+02  0.17770000000E+01 0. -1.
         15    1    1    2    0    0 -0.22022312412E+01  0.13276772738E+01  0.26773111470E+01  0.41156133639E+01  0.17770000000E+01 0.  1.
</event>
<event>
 6    1  0.8353910E-003  0.1827401E+03  0.7546771E-02  0.1068264E+00
        -11   -1    0    0    0    0  0.00000000000E+00  0.00000000000E+00  0.18250000000E+03  0.18250000000E+03  0.00000000000E+00 0. -1.
         11   -1    0    0    0    0 -0.00000000000E+00 -0.00000000000E+00 -0.18250000000E+03  0.18250000000E+03  0.00000000000E+00 0.  1.
        -11    1    1    2    0    0  0.22049970976E+01  0.15728757999E+01  0.83458042534E+02  0.83501980899E+02  0.00000000000E+00 0. -1.
         11    1    1    2    0    0  0.49224196699E+01 -0.28142594297E+01 -0.18217171978E+03  0.18225994009E+03  0.00000000000E+00 0.  1.
        -15    1    1    2    0    0 -0.43202641758E+01 -0.20718256723E+01  0.37785129860E+02  0.38129134683E+02  0.17770000000E+01 0.  1.
         15    1    1    2    0    0 -0.28071525917E+01  0.33132093020E+01  0.60928547389E+02  0.61108944333E+02  0.17770000000E+01 0. -1.
</event>
<event>
 6    1  0.8353910E-003  0.1853315E+03  0.7546771E-02  0.1066223E+00
        -11   -1    0    0    0    0  0.00000000000E+00  0.00000000000E+00  0.18250000000E+03  0.18250000000E+03  0.00000000000E+00 0. -1.
         11   -1    0    0    0    0 -0.00000000000E+00 -0.00000000000E+00 -0.18250000000E+03  0.18250000000E+03  0.00000000000E+00 0.  1.
        -11    1    1    2    0    0 -0.26187505011E+01  0.10496681260E+00  0.17964937370E+03  0.17966849012E+03  0.00000000000E+00 0. -1.
         11    1    1    2    0    0 -0.38700054227E+01  0.73168592819E+00 -0.17069117694E+03  0.17073661058E+03  0.00000000000E+00 0.  1.
        -15    1    1    2    0    0  0.23375237800E+01  0.21438921289E+01 -0.84031800968E+01  0.91559519233E+01  0.17770000000E+01 0. -1.
         15    1    1    2    0    0  0.41512321439E+01 -0.29805448697E+01 -0.55501666163E+00  0.54389473731E+01  0.17770000000E+01 0.  1.
</event>
<event>
 6    1  0.8353910E-003  0.1880376E+03  0.7546771E-02  0.1064130E+00
        -11   -1    0    0    0    0  0.00000000000E+00  0.00000000000E+00  0.18250000000E+03  0.18250000000E+03  0.00000000000E+00 0.  1.
         11   -1    0    0    0    0 -0.00000000000E+00 -0.00000000000E+00 -0.18250000000E+03  0.18250000000E+03  0.00000000000E+00 0. -1.
        -11    1    1    2    0    0 -0.43228545078E+01 -0.28711588466E+01  0.12842643370E+03  0.12853123938E+03  0.00000000000E+00 0.  1.
         11    1    1    2    0    0  0.28070491458E+01  0.19941657646E-01 -0.17694016772E+03  0.17696243352E+03  0.00000000000E+00 0. -1.
        -15    1    1    2    0    0  0.15634656034E+02 -0.61121552817E+01  0.18084344141E+02  0.24738677076E+02  0.17770000000E+01 0. -1.
         15    1    1    2    0    0 -0.14118850671E+02  0.89633724707E+01  0.30429389883E+02  0.34767650021E+02  0.17770000000E+01 0.  1.
</event>
<event>
 6    1  0.8353910E-003  0.1878160E+03  0.7546771E-02  0.1064300E+00
        -11   -1    0    0    0    0  0.00000000000E+00  0.00000000000E+00  0.18250000000E+03  0.18250000000E+03  0.00000000000E+00 0. -1.
         11   -1    0    0    0    0 -0.00000000000E+00 -0.00000000000E+00 -0.18250000000E+03  0.18250000000E+03  0.00000000000E+00 0. -1.
        -11    1    1    2    0    0  0.24891647805E+01  0.20390411425E+01  0.13214248815E+03  0.13218165835E+03  0.00000000000E+00 0. -1.
         11    1    1    2    0    0 -0.73569569097E+00 -0.26042211204E+01 -0.17716328790E+03  0.17718395468E+03  0.00000000000E+00 0. -1.
        -15    1    1    2    0    0  0.75077521449E-01 -0.15153990151E+01 -0.49928602454E+01  0.55125722888E+01  0.17770000000E+01 0.  1.
         15    1    1    2    0    0 -0.18285466110E+01  0.20805789930E+01  0.50013659995E+02  0.50121814680E+02  0.17770000000E+01 0. -1.
</event>
<event>
 6    1  0.9854614E-003  0.1854310E+03  0.7546771E-02  0.1066145E+00
        -11   -1    0    0    0    0  0.00000000000E+00  0.00000000000E+00  0.18250000000E+03  0.18250000000E+03  0.00000000000E+00 0. -1.
         11   -1    0    0    0    0 -0.00000000000E+00 -0.00000000000E+00 -0.18250000000E+03  0.18250000000E+03  0.00000000000E+00 0.  1.
        -11    1    1    2    0    0 -0.25142478162E+01 -0.13087466037E+01  0.17954657935E+03  0.17956895171E+03  0.00000000000E+00 0. -1.
         11    1    1    2    0    0  0.25723470089E+01  0.98156203165E+00 -0.12881893027E+03  0.12884834974E+03  0.00000000000E+00 0.  1.
        -15    1    1    2    0    0  0.73733979570E+00 -0.59816078730E+00  0.25564917277E+01  0.32549723894E+01  0.17770000000E+01 0. -1.
         15    1    1    2    0    0 -0.79543898835E+00  0.92534535936E+00 -0.53284140809E+02  0.53327726165E+02  0.17770000000E+01 0.  1.
</event>
<event>
 6    1  0.8353910E-003  0.1797578E+03  0.7546771E-02  0.1070659E+00
        -11   -1    0    0    0    0  0.00000000000E+00  0.00000000000E+00  0.18250000000E+03  0.18250000000E+03  0.00000000000E+00 0. -1.
         11   -1    0    0    0    0 -0.00000000000E+00 -0.00000000000E+00 -0.18250000000E+03  0.18250000000E+03  0.00000000000E+00 0.  1.
        -11    1    1    2    0    0  0.27890456138E+01  0.25636773758E+01  0.17910012455E+03  0.17914018486E+03  0.00000000000E+00 0. -1.
         11    1    1    2    0    0 -0.41448467049E+01  0.40460967687E+00 -0.18034427941E+03  0.18039235732E+03  0.00000000000E+00 0.  1.
        -15    1    1    2    0    0  0.11967237200E+01 -0.22284707437E+01  0.16348029589E+01  0.34969328321E+01  0.17770000000E+01 0.  1.
         15    1    1    2    0    0  0.15907737106E+00 -0.73981630891E+00 -0.39064809896E+00  0.19705249854E+01  0.17770000000E+01 0. -1.
</event>
<event>
 6    1  0.8353910E-003  0.1826234E+03  0.7546771E-02  0.1068357E+00
        -11   -1    0    0    0    0  0.00000000000E+00  0.00000000000E+00  0.18250000000E+03  0.18250000000E+03  0.00000000000E+00 0.  1.
         11   -1    0    0    0    0 -0.00000000000E+00 -0.00000000000E+00 -0.18250000000E+03  0.18250000000E+03  0.00000000000E+00 0. -1.
        -11    1    1    2    0    0 -0.22895497036E+01 -0.42091664782E+01  0.18231360880E+03  0.18237656393E+03  0.00000000000E+00 0.  1.
         11    1    1    2    0    0 -0.12877622203E+01  0.14604731066E+00 -0.11797160842E+02  0.11868136554E+02  0.00000000000E+00 0. -1.
        -15    1    1    2    0    0  0.12552564693E+01 -0.14294367785E+01 -0.68338756271E+02  0.68388319880E+02  0.17770000000E+01 0. -1.
         15    1    1    2    0    0  0.23220554546E+01  0.54925559461E+01 -0.10217769168E+03  0.10236697963E+03  0.17770000000E+01 0.  1.
</event>
<event>
 6    1  0.8353910E-003  0.1837907E+03  0.7546771E-02  0.1067432E+00
        -11   -1    0    0    0    0  0.00000000000E+00  0.00000000000E+00  0.18250000000E+03  0.18250000000E+03  0.00000000000E+00 0. -1.
         11   -1    0    0    0    0 -0.00000000000E+00 -0.00000000000E+00 -0.18250000000E+03  0.18250000000E+03  0.00000000000E+00 0.  1.
        -11    1    1    2    0    0 -0.10699827990E+01 -0.25572843978E+01  0.17463229985E+03  0.17465430060E+03  0.00000000000E+00 0. -1.
         11    1    1    2    0    0  0.49719026418E+00  0.51407571154E+01 -0.18113572722E+03  0.18120934373E+03  0.00000000000E+00 0.  1.
        -15    1    1    2    0    0  0.22307888042E+01  0.21533867742E-01  0.30114760054E+01  0.41477221614E+01  0.17770000000E+01 0. -1.
         15    1    1    2    0    0 -0.16579962694E+01 -0.26050065854E+01  0.34919513658E+01  0.49886335083E+01  0.17770000000E+01 0.  1.
</event>
<event>
 6    1  0.8353910E-003  0.1662582E+03  0.7546771E-02  0.1082173E+00
        -11   -1    0    0    0    0  0.00000000000E+00  0.00000000000E+00  0.18250000000E+03  0.18250000000E+03  0.00000000000E+00 0.  1.
         11   -1    0    0    0    0 -0.00000000000E+00 -0.00000000000E+00 -0.18250000000E+03  0.18250000000E+03  0.00000000000E+00 0. -1.
        -11    1    1    2    0    0  0.12365626158E+01 -0.33064055227E+01  0.16752893771E+03  0.16756612538E+03  0.00000000000E+00 0.  1.
         11    1    1    2    0    0 -0.71586765239E+01  0.69625199898E+01 -0.16473246771E+03  0.16503487284E+03  0.00000000000E+00 0. -1.
        -15    1    1    2    0    0 -0.12008456618E+01  0.54970084221E+01  0.12084791649E+02  0.13448384665E+02  0.17770000000E+01 0.  1.
         15    1    1    2    0    0  0.71229595698E+01 -0.91531228892E+01 -0.14881261652E+02  0.18950617115E+02  0.17770000000E+01 0. -1.
</event>
<event>
 6    1  0.8353910E-003  0.1826909E+03  0.7546771E-02  0.1068303E+00
        -11   -1    0    0    0    0  0.00000000000E+00  0.00000000000E+00  0.18250000000E+03  0.18250000000E+03  0.00000000000E+00 0. -1.
         11   -1    0    0    0    0 -0.00000000000E+00 -0.00000000000E+00 -0.18250000000E+03  0.18250000000E+03  0.00000000000E+00 0. -1.
        -11    1    1    2    0    0 -0.65937511367E+00 -0.34657255989E+00  0.28523622536E+02  0.28533347695E+02  0.00000000000E+00 0. -1.
         11    1    1    2    0    0  0.37670194848E+01  0.63307742735E+01 -0.18216017149E+03  0.18230907058E+03  0.00000000000E+00 0. -1.
        -15    1    1    2    0    0  0.24600705229E+01 -0.12219530378E+01  0.92517623846E+02  0.92575447973E+02  0.17770000000E+01 0.  1.
         15    1    1    2    0    0 -0.55677148940E+01 -0.47622486758E+01  0.61118925110E+02  0.61582133750E+02  0.17770000000E+01 0. -1.
</event>
<event>
 6    1  0.8353910E-003  0.1841325E+03  0.7546771E-02  0.1067163E+00
        -11   -1    0    0    0    0  0.00000000000E+00  0.00000000000E+00  0.18250000000E+03  0.18250000000E+03  0.00000000000E+00 0. -1.
         11   -1    0    0    0    0 -0.00000000000E+00 -0.00000000000E+00 -0.18250000000E+03  0.18250000000E+03  0.00000000000E+00 0. -1.
        -11    1    1    2    0    0  0.30783133105E+01 -0.24618299137E+00  0.18084115399E+03  0.18086751946E+03  0.00000000000E+00 0. -1.
         11    1    1    2    0    0  0.48868361640E+00 -0.23201998316E+01 -0.94825594942E+02  0.94855234938E+02  0.00000000000E+00 0. -1.
        -15    1    1    2    0    0 -0.80100660903E+01  0.22046082170E+01 -0.83361507566E+02  0.83793317925E+02  0.17770000000E+01 0. -1.
         15    1    1    2    0    0  0.44430691634E+01  0.36177460594E+00 -0.26540514851E+01  0.54839276748E+01  0.17770000000E+01 0. -1.
</event>
<event>
 6    1  0.8353910E-003  0.1834710E+03  0.7546771E-02  0.1067685E+00
        -11   -1    0    0    0    0  0.00000000000E+00  0.00000000000E+00  0.18250000000E+03  0.18250000000E+03  0.00000000000E+00 0. -1.
         11   -1    0    0    0    0 -0.00000000000E+00 -0.00000000000E+00 -0.18250000000E+03  0.18250000000E+03  0.00000000000E+00 0.  1.
        -11    1    1    2    0    0 -0.17039231429E+01 -0.85062636202E+00  0.10347607532E+03  0.10349359924E+03  0.00000000000E+00 0. -1.
         11    1    1    2    0    0 -0.94938192697E+01  0.65381888208E+01 -0.18116261483E+03  0.18152898812E+03  0.00000000000E+00 0.  1.
        -15    1    1    2    0    0  0.10287948213E+02 -0.71128241312E+01  0.34821653664E+02  0.37042400549E+02  0.17770000000E+01 0. -1.
         15    1    1    2    0    0  0.90979419994E+00  0.14252616724E+01  0.42864885842E+02  0.42935012095E+02  0.17770000000E+01 0. -1.
</event>
<event>
 6    1  0.8353910E-003  0.1825882E+03  0.7546771E-02  0.1068385E+00
        -11   -1    0    0    0    0  0.00000000000E+00  0.00000000000E+00  0.18250000000E+03  0.18250000000E+03  0.00000000000E+00 0.  1.
         11   -1    0    0    0    0 -0.00000000000E+00 -0.00000000000E+00 -0.18250000000E+03  0.18250000000E+03  0.00000000000E+00 0. -1.
        -11    1    1    2    0    0 -0.10222551773E+01  0.10614087747E+00  0.18786587263E+02  0.18814678645E+02  0.00000000000E+00 0.  1.
         11    1    1    2    0    0  0.13047915317E+01 -0.21200435405E+01 -0.18239486039E+03  0.18241184765E+03  0.00000000000E+00 0. -1.
        -15    1    1    2    0    0  0.87421285453E+00  0.10117547894E+01  0.16809686762E+02  0.16956155045E+02  0.17770000000E+01 0.  1.
         15    1    1    2    0    0 -0.11567492089E+01  0.10021478736E+01  0.14679858637E+03  0.14681731866E+03  0.17770000000E+01 0.  1.
</event>
<event>
 6    1  0.8353910E-003  0.1826263E+03  0.7546771E-02  0.1068354E+00
        -11   -1    0    0    0    0  0.00000000000E+00  0.00000000000E+00  0.18250000000E+03  0.18250000000E+03  0.00000000000E+00 0.  1.
         11   -1    0    0    0    0 -0.00000000000E+00 -0.00000000000E+00 -0.18250000000E+03  0.18250000000E+03  0.00000000000E+00 0.  1.
        -11    1    1    2    0    0  0.99074602300E+00  0.24427802291E+01  0.99533584854E+02  0.99568485310E+02  0.00000000000E+00 0.  1.
         11    1    1    2    0    0  0.36657691616E+01 -0.33610789492E+00 -0.18233651473E+03  0.18237366980E+03  0.00000000000E+00 0.  1.
        -15    1    1    2    0    0 -0.27428754437E+01 -0.21857404032E+00  0.40225223714E+02  0.40358363349E+02  0.17770000000E+01 0. -1.
         15    1    1    2    0    0 -0.19136397409E+01 -0.18880982939E+01  0.42577706166E+02  0.42699481538E+02  0.17770000000E+01 0.  1.
</event>
<event>
 6    1  0.8353910E-003  0.1841022E+03  0.7546771E-02  0.1067187E+00
        -11   -1    0    0    0    0  0.00000000000E+00  0.00000000000E+00  0.18250000000E+03  0.18250000000E+03  0.00000000000E+00 0.  1.
         11   -1    0    0    0    0 -0.00000000000E+00 -0.00000000000E+00 -0.18250000000E+03  0.18250000000E+03  0.00000000000E+00 0. -1.
        -11    1    1    2    0    0  0.42473347800E+01 -0.15760524919E+01  0.10383271797E+03  0.10393150204E+03  0.00000000000E+00 0.  1.
         11    1    1    2    0    0 -0.33104889935E+01  0.95406050218E+00 -0.18086494546E+03  0.18089775584E+03  0.00000000000E+00 0. -1.
        -15    1    1    2    0    0  0.30560712460E+01 -0.43055757201E+00  0.60606056423E+00  0.36124769468E+01  0.17770000000E+01 0. -1.
         15    1    1    2    0    0 -0.39929170324E+01  0.10525495617E+01  0.76426166929E+02  0.76558265180E+02  0.17770000000E+01 0.  1.
</event>
<event>
 6    1  0.8353910E-003  0.1976886E+03  0.7546771E-02  0.1056969E+00
        -11   -1    0    0    0    0  0.00000000000E+00  0.00000000000E+00  0.18250000000E+03  0.18250000000E+03  0.00000000000E+00 0. -1.
         11   -1    0    0    0    0 -0.00000000000E+00 -0.00000000000E+00 -0.18250000000E+03  0.18250000000E+03  0.00000000000E+00 0. -1.
        -11    1    1    2    0    0 -0.77278769583E+00 -0.56970806281E+01  0.16721260298E+03  0.16731141182E+03  0.00000000000E+00 0. -1.
         11    1    1    2    0    0 -0.52413728748E+01  0.41941152237E+01 -0.14196534987E+03  0.14212397108E+03  0.00000000000E+00 0. -1.
        -15    1    1    2    0    0  0.65646993216E+00  0.73468400868E+01 -0.38923991809E+02  0.39656549010E+02  0.17770000000E+01 0. -1.
         15    1    1    2    0    0  0.53576906385E+01 -0.58438746825E+01  0.13676738692E+02  0.15908068096E+02  0.17770000000E+01 0.  1.
</event>
<event>
 6    1  0.8353910E-003  0.1498498E+03  0.7546771E-02  0.1097895E+00
        -11   -1    0    0    0    0  0.00000000000E+00  0.00000000000E+00  0.18250000000E+03  0.18250000000E+03  0.00000000000E+00 0.  1.
         11   -1    0    0    0    0 -0.00000000000E+00 -0.00000000000E+00 -0.18250000000E+03  0.18250000000E+03  0.00000000000E+00 0. -1.
        -11    1    1    2    0    0  0.38430723661E+02 -0.32223509610E+02  0.15421991169E+03  0.16216983768E+03  0.00000000000E+00 0.  1.
         11    1    1    2    0    0  0.44489519420E+00  0.22071271782E+01 -0.88780334042E+01  0.91590839739E+01  0.00000000000E+00 0. -1.
        -15    1    1    2    0    0 -0.42217625075E+02  0.29102080500E+02 -0.31263429395E+01  0.51402244169E+02  0.17770000000E+01 0.  1.
         15    1    1    2    0    0  0.33420062202E+01  0.91430193164E+00 -0.14221553535E+03  0.14226883417E+03  0.17770000000E+01 0. -1.
</event>
<event>
 6    1  0.8353910E-003  0.1682511E+03  0.7546771E-02  0.1080399E+00
        -11   -1    0    0    0    0  0.00000000000E+00  0.00000000000E+00  0.18250000000E+03  0.18250000000E+03  0.00000000000E+00 0.  1.
         11   -1    0    0    0    0 -0.00000000000E+00 -0.00000000000E+00 -0.18250000000E+03  0.18250000000E+03  0.00000000000E+00 0.  1.
        -11    1    1    2    0    0 -0.59663722259E+01  0.48969018436E+01  0.16810107333E+03  0.16827818665E+03  0.00000000000E+00 0.  1.
         11    1    1    2    0    0  0.47162604171E+01 -0.65888859034E+01 -0.16803527874E+03  0.16823053061E+03  0.00000000000E+00 0.  1.
        -15    1    1    2    0    0 -0.10454094398E+02 -0.36719785666E+01 -0.75200079918E+01  0.13508507152E+02  0.17770000000E+01 0. -1.
         15    1    1    2    0    0  0.11704206207E+02  0.53639626263E+01  0.74542133953E+01  0.14982775588E+02  0.17770000000E+01 0.  1.
</event>
<event>
 6    1  0.8353910E-003  0.1848885E+03  0.7546771E-02  0.1066569E+00
        -11   -1    0    0    0    0  0.00000000000E+00  0.00000000000E+00  0.18250000000E+03  0.18250000000E+03  0.00000000000E+00 0.  1.
         11   -1    0    0    0    0 -0.00000000000E+00 -0.00000000000E+00 -0.18250000000E+03  0.18250000000E+03  0.00000000000E+00 0. -1.
        -11    1    1    2    0    0  0.52393129888E+01 -0.47859487050E+00  0.18003466593E+03  0.18011152209E+03  0.00000000000E+00 0.  1.
         11    1    1    2    0    0 -0.20998615883E+01 -0.69614764410E+01 -0.13009543311E+03  0.13029847769E+03  0.00000000000E+00 0. -1.
        -15    1    1    2    0    0  0.28796891716E+01  0.32008467576E+01 -0.45648352512E+02  0.45885377254E+02  0.17770000000E+01 0. -1.
         15    1    1    2    0    0 -0.60191405721E+01  0.42392245539E+01 -0.42908803107E+01  0.87046229606E+01  0.17770000000E+01 0.  1.
</event>
<event>
 6    1  0.8353910E-003  0.1853663E+03  0.7546771E-02  0.1066196E+00
        -11   -1    0    0    0    0  0.00000000000E+00  0.00000000000E+00  0.18250000000E+03  0.18250000000E+03  0.00000000000E+00 0.  1.
         11   -1    0    0    0    0 -0.00000000000E+00 -0.00000000000E+00 -0.18250000000E+03  0.18250000000E+03  0.00000000000E+00 0.  1.
        -11    1    1    2    0    0 -0.31672193963E+01  0.76444914391E+01  0.11391262349E+03  0.11421276338E+03  0.00000000000E+00 0.  1.
         11    1    1    2    0    0 -0.22501645383E+01 -0.19784365865E+01 -0.17960869153E+03  0.17963368149E+03  0.00000000000E+00 0.  1.
        -15    1    1    2    0    0 -0.13811708500E+01 -0.63793348558E+01  0.63351318871E+02  0.63711465827E+02  0.17770000000E+01 0.  1.
         15    1    1    2    0    0  0.67985547846E+01  0.71328000309E+00  0.23447491686E+01  0.74420893025E+01  0.17770000000E+01 0. -1.
</event>
<event>
 6    1  0.8353910E-003  0.1830542E+03  0.7546771E-02  0.1068015E+00
        -11   -1    0    0    0    0  0.00000000000E+00  0.00000000000E+00  0.18250000000E+03  0.18250000000E+03  0.00000000000E+00 0. -1.
         11   -1    0    0    0    0 -0.00000000000E+00 -0.00000000000E+00 -0.18250000000E+03  0.18250000000E+03  0.00000000000E+00 0.  1.
        -11    1    1    2    0    0  0.13379135380E+01 -0.30345992322E+01  0.15191447237E+03  0.15195066870E+03  0.00000000000E+00 0. -1.
         11    1    1    2    0    0  0.24152305121E+01 -0.56634734907E+00 -0.18192889234E+03  0.18194580500E+03  0.00000000000E+00 0.  1.
        -15    1    1    2    0    0 -0.20393816588E-01  0.32589270724E+01  0.18395790776E+02  0.18766562521E+02  0.17770000000E+01 0.  1.
         15    1    1    2    0    0 -0.37327502335E+01  0.34201950881E+00  0.11618629200E+02  0.12336963773E+02  0.17770000000E+01 0.  1.
</event>
<event>
 6    1  0.8353910E-003  0.1828341E+03  0.7546771E-02  0.1068189E+00
        -11   -1    0    0    0    0  0.00000000000E+00  0.00000000000E+00  0.18250000000E+03  0.18250000000E+03  0.00000000000E+00 0.  1.
         11   -1    0    0    0    0 -0.00000000000E+00 -0.00000000000E+00 -0.18250000000E+03  0.18250000000E+03  0.00000000000E+00 0.  1.
        -11    1    1    2    0    0 -0.31978306545E+01  0.33021599048E+00  0.18213749696E+03  0.18216586662E+03  0.00000000000E+00 0.  1.
         11    1    1    2    0    0  0.50056232034E+00  0.26273397037E+01 -0.11112778112E+03  0.11115996228E+03  0.00000000000E+00 0.  1.
        -15    1    1    2    0    0  0.22865432802E+01 -0.56644018419E+01 -0.41551246431E+02  0.42035431928E+02  0.17770000000E+01 0.  1.
         15    1    1    2    0    0  0.41072505402E+00  0.27068461478E+01 -0.29458469403E+02  0.29638739172E+02  0.17770000000E+01 0. -1.
</event>
<event>
 6    1  0.8353910E-003  0.1891127E+03  0.7546771E-02  0.1063310E+00
        -11   -1    0    0    0    0  0.00000000000E+00  0.00000000000E+00  0.18250000000E+03  0.18250000000E+03  0.00000000000E+00 0.  1.
         11   -1    0    0    0    0 -0.00000000000E+00 -0.00000000000E+00 -0.18250000000E+03  0.18250000000E+03  0.00000000000E+00 0. -1.
        -11    1    1    2    0    0 -0.24602426217E+01 -0.91674633057E-01  0.16956546135E+03  0.16958333314E+03  0.00000000000E+00 0.  1.
         11    1    1    2    0    0  0.57582236881E+01  0.44312147930E+01 -0.17573718111E+03  0.17588732083E+03  0.00000000000E+00 0. -1.
        -15    1    1    2    0    0  0.58299166824E+01 -0.52920418702E+01  0.62055568514E+01  0.10181370267E+02  0.17770000000E+01 0. -1.
         15    1    1    2    0    0 -0.91278977488E+01  0.95250171024E+00 -0.33837085592E-01  0.93479757578E+01  0.17770000000E+01 0.  1.
</event>
<event>
 6    1  0.8353910E-003  0.1738416E+03  0.7546771E-02  0.1075564E+00
        -11   -1    0    0    0    0  0.00000000000E+00  0.00000000000E+00  0.18250000000E+03  0.18250000000E+03  0.00000000000E+00 0.  1.
         11   -1    0    0    0    0 -0.00000000000E+00 -0.00000000000E+00 -0.18250000000E+03  0.18250000000E+03  0.00000000000E+00 0. -1.
        -11    1    1    2    0    0 -0.29174740336E+01 -0.33661213536E+01  0.17086260493E+03  0.17092066052E+03  0.00000000000E+00 0.  1.
         11    1    1    2    0    0 -0.60653546490E+01 -0.25050570112E+01 -0.17685800910E+03  0.17697971415E+03  0.00000000000E+00 0. -1.
        -15    1    1    2    0    0  0.45950808034E-01  0.35192132429E+01  0.65802205871E+01  0.76709846370E+01  0.17770000000E+01 0. -1.
         15    1    1    2    0    0  0.89368778746E+01  0.23519651219E+01 -0.58481641661E+00  0.94286406932E+01  0.17770000000E+01 0.  1.
</event>
<event>
 6    1  0.8353910E-003  0.1830652E+03  0.7546771E-02  0.1068006E+00
        -11   -1    0    0    0    0  0.00000000000E+00  0.00000000000E+00  0.18250000000E+03  0.18250000000E+03  0.00000000000E+00 0.  1.
         11   -1    0    0    0    0 -0.00000000000E+00 -0.00000000000E+00 -0.18250000000E+03  0.18250000000E+03  0.00000000000E+00 0.  1.
        -11    1    1    2    0    0 -0.32637104769E+01 -0.17844211427E+01  0.16874631540E+03  0.16878730677E+03  0.00000000000E+00 0.  1.
         11    1    1    2    0    0  0.22386049052E+01 -0.13716828179E+01 -0.18191587149E+03  0.18193481570E+03  0.00000000000E+00 0.  1.
        -15    1    1    2    0    0 -0.69946473004E+00  0.72282799337E+00  0.46993677956E+01  0.51238186828E+01  0.17770000000E+01 0.  1.
         15    1    1    2    0    0  0.17245703017E+01  0.24332759672E+01  0.84701882937E+01  0.91540588478E+01  0.17770000000E+01 0. -1.
</event>
<event>
 6    1  0.8353910E-003  0.1730251E+03  0.7546771E-02  0.1076257E+00
        -11   -1    0    0    0    0  0.00000000000E+00  0.00000000000E+00  0.18250000000E+03  0.18250000000E+03  0.00000000000E+00 0. -1.
         11   -1    0    0    0    0 -0.00000000000E+00 -0.00000000000E+00 -0.18250000000E+03  0.18250000000E+03  0.00000000000E+00 0. -1.
        -11    1    1    2    0    0  0.10932378607E+02 -0.13781226294E+01  0.17467234902E+03  0.17501955787E+03  0.00000000000E+00 0. -1.
         11    1    1    2    0    0  0.26258847802E+01  0.75049784765E+00 -0.17129148167E+03  0.17131325171E+03  0.00000000000E+00 0. -1.
        -15    1    1    2    0    0 -0.12849811203E+02  0.26282887712E+01  0.12263409132E+01  0.13292373409E+02  0.17770000000E+01 0.  1.
         15    1    1    2    0    0 -0.70845218470E+00 -0.20006639895E+01 -0.46072082675E+01  0.53748170124E+01  0.17770000000E+01 0. -1.
</event>
<event>
 6    1  0.8353910E-003  0.1770334E+03  0.7546771E-02  0.1072891E+00
        -11   -1    0    0    0    0  0.00000000000E+00  0.00000000000E+00  0.18250000000E+03  0.18250000000E+03  0.00000000000E+00 0. -1.
         11   -1    0    0    0    0 -0.00000000000E+00 -0.00000000000E+00 -0.18250000000E+03  0.18250000000E+03  0.00000000000E+00 0.  1.
        -11    1    1    2    0    0 -0.32390297321E+01 -0.38971773765E+01  0.17741142549E+03  0.17748378292E+03  0.00000000000E+00 0. -1.
         11    1    1    2    0    0  0.33056104789E+00 -0.26237632775E+01 -0.17663613053E+03  0.17665592549E+03  0.00000000000E+00 0.  1.
        -15    1    1    2    0    0  0.80670200142E+00  0.36984399104E+01  0.31969826130E+01  0.52638059157E+01  0.17770000000E+01 0. -1.
         15    1    1    2    0    0  0.21017666828E+01  0.28225007436E+01 -0.39722775815E+01  0.55964856670E+01  0.17770000000E+01 0.  1.
</event>
<event>
 6    1  0.8353910E-003  0.1829525E+03  0.7546771E-02  0.1068095E+00
        -11   -1    0    0    0    0  0.00000000000E+00  0.00000000000E+00  0.18250000000E+03  0.18250000000E+03  0.00000000000E+00 0. -1.
         11   -1    0    0    0    0 -0.00000000000E+00 -0.00000000000E+00 -0.18250000000E+03  0.18250000000E+03  0.00000000000E+00 0. -1.
        -11    1    1    2    0    0  0.17291089046E+01 -0.14601547521E+01  0.14721285540E+03  0.14723025051E+03  0.00000000000E+00 0. -1.
         11    1    1    2    0    0  0.29924499711E+01  0.93041824975E+00 -0.18202051864E+03  0.18204749282E+03  0.00000000000E+00 0. -1.
        -15    1    1    2    0    0 -0.52969326171E+01  0.11433295002E+01  0.20438071391E+02  0.21218793290E+02  0.17770000000E+01 0. -1.
         15    1    1    2    0    0  0.57537374135E+00 -0.61359299787E+00  0.14369591845E+02  0.14503463383E+02  0.17770000000E+01 0.  1.
</event>
<event>
 6    1  0.8353910E-003  0.1839752E+03  0.7546771E-02  0.1067287E+00
        -11   -1    0    0    0    0  0.00000000000E+00  0.00000000000E+00  0.18250000000E+03  0.18250000000E+03  0.00000000000E+00 0. -1.
         11   -1    0    0    0    0 -0.00000000000E+00 -0.00000000000E+00 -0.18250000000E+03  0.18250000000E+03  0.00000000000E+00 0.  1.
        -11    1    1    2    0    0  0.80445466267E+00  0.63720295483E+01  0.12584515224E+03  0.12600893718E+03  0.00000000000E+00 0. -1.
         11    1    1    2    0    0  0.52548506549E+01 -0.77932337672E+01 -0.18078062710E+03  0.18102481344E+03  0.00000000000E+00 0.  1.
        -15    1    1    2    0    0 -0.47605716949E+01  0.56845008778E+01  0.90635138213E+01  0.11844053566E+02  0.17770000000E+01 0. -1.
         15    1    1    2    0    0 -0.12987336227E+01 -0.42632966589E+01  0.45871961041E+02  0.46122195809E+02  0.17770000000E+01 0.  1.
</event>
<event>
 6    1  0.8353910E-003  0.1835653E+03  0.7546771E-02  0.1067610E+00
        -11   -1    0    0    0    0  0.00000000000E+00  0.00000000000E+00  0.18250000000E+03  0.18250000000E+03  0.00000000000E+00 0. -1.
         11   -1    0    0    0    0 -0.00000000000E+00 -0.00000000000E+00 -0.18250000000E+03  0.18250000000E+03  0.00000000000E+00 0. -1.
        -11    1    1    2    0    0 -0.98320310811E-01 -0.23506387121E+01  0.15859162151E+02  0.16032722581E+02  0.00000000000E+00 0. -1.
         11    1    1    2    0    0  0.28612740516E+01  0.67855004837E+00 -0.18141082907E+03  0.18143466103E+03  0.00000000000E+00 0. -1.
        -15    1    1    2    0    0 -0.55982644007E+01 -0.55791933573E+01  0.17703721175E+02  0.19469140588E+02  0.17770000000E+01 0.  1.
         15    1    1    2    0    0  0.28353106599E+01  0.72512820211E+01  0.14784794574E+03  0.14806347580E+03  0.17770000000E+01 0. -1.
</event>
<event>
 6    1  0.8353910E-003  0.1852362E+03  0.7546771E-02  0.1066297E+00
        -11   -1    0    0    0    0  0.00000000000E+00  0.00000000000E+00  0.18250000000E+03  0.18250000000E+03  0.00000000000E+00 0. -1.
         11   -1    0    0    0    0 -0.00000000000E+00 -0.00000000000E+00 -0.18250000000E+03  0.18250000000E+03  0.00000000000E+00 0. -1.
        -11    1    1    2    0    0 -0.29910949237E+01  0.12842286723E+01  0.16080940602E+03  0.16084234814E+03  0.00000000000E+00 0. -1.
         11    1    1    2    0    0  0.38262339010E+01 -0.59217158421E+00 -0.17972205591E+03  0.17976375640E+03  0.00000000000E+00 0. -1.
        -15    1    1    2    0    0  0.12535473642E+01 -0.58073705818E+01  0.20041817771E+01  0.65170091042E+01  0.17770000000E+01 0.  1.
         15    1    1    2    0    0 -0.20886863415E+01  0.51153134938E+01  0.16908468117E+02  0.17876886357E+02  0.17770000000E+01 0. -1.
</event>
<event>
 6    1  0.8353910E-003  0.1838132E+03  0.7546771E-02  0.1067414E+00
        -11   -1    0    0    0    0  0.00000000000E+00  0.00000000000E+00  0.18250000000E+03  0.18250000000E+03  0.00000000000E+00 0. -1.
         11   -1    0    0    0    0 -0.00000000000E+00 -0.00000000000E+00 -0.18250000000E+03  0.18250000000E+03  0.00000000000E+00 0.  1.
        -11    1    1    2    0    0  0.44984119765E+01  0.96479084793E+00  0.18112841530E+03  0.18118683550E+03  0.00000000000E+00 0. -1.
         11    1    1    2    0    0 -0.28433373815E+01 -0.14260063262E+01 -0.16933941993E+03  0.16936929238E+03  0.00000000000E+00 0.  1.
        -15    1    1    2    0    0  0.19402377863E+01  0.20627805636E+01 -0.81052658018E+01  0.87677048901E+01  0.17770000000E+01 0. -1.
         15    1    1    2    0    0 -0.35953123812E+01 -0.16015650853E+01 -0.36837295676E+01  0.56761672252E+01  0.17770000000E+01 0.  1.
</event>
<event>
 6    1  0.8353910E-003  0.1983151E+03  0.7546771E-02  0.1056520E+00
        -11   -1    0    0    0    0  0.00000000000E+00  0.00000000000E+00  0.18250000000E+03  0.18250000000E+03  0.00000000000E+00 0. -1.
         11   -1    0    0    0    0 -0.00000000000E+00 -0.00000000000E+00 -0.18250000000E+03  0.18250000000E+03  0.00000000000E+00 0. -1.
        -11    1    1    2    0    0  0.23020340701E+01  0.53637685643E+00  0.15208638703E+03  0.15210475398E+03  0.00000000000E+00 0. -1.
         11    1    1    2    0    0  0.19500896677E+01  0.33380529326E+01 -0.16664007683E+03  0.16668491429E+03  0.00000000000E+00 0. -1.
        -15    1    1    2    0    0 -0.60055175633E+01 -0.46979603707E+01  0.29763013397E+02  0.30775505979E+02  0.17770000000E+01 0. -1.
         15    1    1    2    0    0  0.17533938256E+01  0.82353058170E+00 -0.15209323605E+02  0.15434825754E+02  0.17770000000E+01 0.  1.
</event>
<event>
 6    1  0.8353910E-003  0.1841453E+03  0.7546771E-02  0.1067153E+00
        -11   -1    0    0    0    0  0.00000000000E+00  0.00000000000E+00  0.18250000000E+03  0.18250000000E+03  0.00000000000E+00 0.  1.
         11   -1    0    0    0    0 -0.00000000000E+00 -0.00000000000E+00 -0.18250000000E+03  0.18250000000E+03  0.00000000000E+00 0.  1.
        -11    1    1    2    0    0  0.14462879256E+01  0.64988263696E+01  0.18073206194E+03  0.18085465077E+03  0.00000000000E+00 0.  1.
         11    1    1    2    0    0  0.45640652952E+01 -0.30585576459E+01 -0.16242390627E+03  0.16251680157E+03  0.00000000000E+00 0.  1.
        -15    1    1    2    0    0 -0.50682058932E+01 -0.56945077857E+01 -0.94584426954E+01  0.12277377453E+02  0.17770000000E+01 0. -1.
         15    1    1    2    0    0 -0.94214732764E+00  0.22542390621E+01 -0.88497129786E+01  0.93511702016E+01  0.17770000000E+01 0.  1.
</event>
<event>
 6    1  0.8353910E-003  0.1826471E+03  0.7546771E-02  0.1068338E+00
        -11   -1    0    0    0    0  0.00000000000E+00  0.00000000000E+00  0.18250000000E+03  0.18250000000E+03  0.00000000000E+00 0. -1.
         11   -1    0    0    0    0 -0.00000000000E+00 -0.00000000000E+00 -0.18250000000E+03  0.18250000000E+03  0.00000000000E+00 0.  1.
        -11    1    1    2    0    0 -0.49344908373E-01 -0.31646692679E+01  0.18232541486E+03  0.18235288446E+03  0.00000000000E+00 0. -1.
         11    1    1    2    0    0 -0.18327673608E+01 -0.19956464119E+00 -0.64274217991E+02  0.64300652879E+02  0.00000000000E+00 0.  1.
        -15    1    1    2    0    0  0.24895868331E+01 -0.11957570199E+01 -0.58116091118E+02  0.58208810787E+02  0.17770000000E+01 0.  1.
         15    1    1    2    0    0 -0.60747456394E+00  0.45599909289E+01 -0.59935105751E+02  0.60137651875E+02  0.17770000000E+01 0.  1.
</event>
<event>
 6    1  0.8353910E-003  0.1768301E+03  0.7546771E-02  0.1073060E+00
        -11   -1    0    0    0    0  0.00000000000E+00  0.00000000000E+00  0.18250000000E+03  0.18250000000E+03  0.00000000000E+00 0. -1.
         11   -1    0    0    0    0 -0.00000000000E+00 -0.00000000000E+00 -0.18250000000E+03  0.18250000000E+03  0.00000000000E+00 0. -1.
        -11    1    1    2    0    0 -0.58653315995E+00 -0.24373276322E+01  0.17596278884E+03  0.17598064565E+03  0.00000000000E+00 0. -1.
         11    1    1    2    0    0  0.59513603089E+01 -0.13745698614E+01 -0.17763983145E+03  0.17774481104E+03  0.00000000000E+00 0. -1.
        -15    1    1    2    0    0 -0.14966933511E+01  0.56626600319E+01  0.24046261398E+01  0.65761512678E+01  0.17770000000E+01 0.  1.
         15    1    1    2    0    0 -0.38681337979E+01 -0.18507625384E+01 -0.72758352261E+00  0.46983920478E+01  0.17770000000E+01 0. -1.
</event>
<event>
 6    1  0.8353910E-003  0.1853315E+03  0.7546771E-02  0.1066223E+00
        -11   -1    0    0    0    0  0.00000000000E+00  0.00000000000E+00  0.18250000000E+03  0.18250000000E+03  0.00000000000E+00 0.  1.
         11   -1    0    0    0    0 -0.00000000000E+00 -0.00000000000E+00 -0.18250000000E+03  0.18250000000E+03  0.00000000000E+00 0.  1.
        -11    1    1    2    0    0  0.92140559482E+01 -0.63637122807E+00  0.17943094915E+03  0.17966849838E+03  0.00000000000E+00 0.  1.
         11    1    1    2    0    0 -0.24370605240E+01 -0.69223210695E+00 -0.14830189267E+03  0.14832353090E+03  0.00000000000E+00 0.  1.
        -15    1    1    2    0    0  0.53870565553E+01  0.64208147750E+00 -0.18539717177E+02  0.19398749675E+02  0.17770000000E+01 0.  1.
         15    1    1    2    0    0 -0.12164051980E+02  0.68652185752E+00 -0.12589339305E+02  0.17609221049E+02  0.17770000000E+01 0.  1.
</event>
<event>
 6    1  0.8353910E-003  0.1828710E+03  0.7546771E-02  0.1068160E+00
        -11   -1    0    0    0    0  0.00000000000E+00  0.00000000000E+00  0.18250000000E+03  0.18250000000E+03  0.00000000000E+00 0.  1.
         11   -1    0    0    0    0 -0.00000000000E+00 -0.00000000000E+00 -0.18250000000E+03  0.18250000000E+03  0.00000000000E+00 0. -1.
        -11    1    1    2    0    0  0.14729680788E+01 -0.44096657832E+01  0.18206969044E+03  0.18212903932E+03  0.00000000000E+00 0.  1.
         11    1    1    2    0    0  0.72595319355E+00 -0.27021726260E+01 -0.77974502222E+02  0.78024686745E+02  0.00000000000E+00 0. -1.
        -15    1    1    2    0    0 -0.39017261764E+01  0.76221107602E+01 -0.55374878159E+02  0.56061171052E+02  0.17770000000E+01 0.  1.
         15    1    1    2    0    0  0.17028049041E+01 -0.51027235103E+00 -0.48720310056E+02  0.48785102884E+02  0.17770000000E+01 0. -1.
</event>
<event>
 6    1  0.8353910E-003  0.1863413E+03  0.7546771E-02  0.1065438E+00
        -11   -1    0    0    0    0  0.00000000000E+00  0.00000000000E+00  0.18250000000E+03  0.18250000000E+03  0.00000000000E+00 0. -1.
         11   -1    0    0    0    0 -0.00000000000E+00 -0.00000000000E+00 -0.18250000000E+03  0.18250000000E+03  0.00000000000E+00 0.  1.
        -11    1    1    2    0    0  0.16521753355E+01  0.55954577651E+01  0.17856343440E+03  0.17865872197E+03  0.00000000000E+00 0. -1.
         11    1    1    2    0    0  0.15511777519E+02 -0.11881596689E+02 -0.11283876166E+03  0.11451800607E+03  0.00000000000E+00 0.  1.
        -15    1    1    2    0    0 -0.14938220411E+02  0.79563274668E+01 -0.66319745671E+02  0.68468386652E+02  0.17770000000E+01 0.  1.
         15    1    1    2    0    0 -0.22257324434E+01 -0.16701885427E+01  0.59507292831E+00  0.33548853136E+01  0.17770000000E+01 0. -1.
</event>
<event>
 6    1  0.8353910E-003  0.1827326E+03  0.7546771E-02  0.1068270E+00
        -11   -1    0    0    0    0  0.00000000000E+00  0.00000000000E+00  0.18250000000E+03  0.18250000000E+03  0.00000000000E+00 0. -1.
         11   -1    0    0    0    0 -0.00000000000E+00 -0.00000000000E+00 -0.18250000000E+03  0.18250000000E+03  0.00000000000E+00 0. -1.
        -11    1    1    2    0    0 -0.17874752567E+01  0.20178845046E+01  0.18224746756E+03  0.18226740344E+03  0.00000000000E+00 0. -1.
         11    1    1    2    0    0 -0.18604607201E+01 -0.13766329819E+01 -0.11277446029E+03  0.11279820622E+03  0.00000000000E+00 0. -1.
        -15    1    1    2    0    0 -0.49002721679E+00 -0.25189862148E+01 -0.29513843828E+02  0.29678445456E+02  0.17770000000E+01 0. -1.
         15    1    1    2    0    0  0.41379631937E+01  0.18777346921E+01 -0.39959163442E+02  0.40255944890E+02  0.17770000000E+01 0.  1.
</event>
<event>
 6    1  0.8353910E-003  0.1904405E+03  0.7546771E-02  0.1062304E+00
        -11   -1    0    0    0    0  0.00000000000E+00  0.00000000000E+00  0.18250000000E+03  0.18250000000E+03  0.00000000000E+00 0.  1.
         11   -1    0    0    0    0 -0.00000000000E+00 -0.00000000000E+00 -0.18250000000E+03  0.18250000000E+03  0.00000000000E+00 0.  1.
        -11    1    1    2    0    0 -0.88720941707E+01 -0.13175014905E+01  0.17432891969E+03  0.17455950878E+03  0.00000000000E+00 0.  1.
         11    1    1    2    0    0 -0.63384657653E+01  0.14210342137E+02 -0.15468845139E+03  0.15546905468E+03  0.00000000000E+00 0.  1.
        -15    1    1    2    0    0 -0.26626550757E+01 -0.94311738675E+01 -0.34403371557E+01  0.10537097386E+02  0.17770000000E+01 0.  1.
         15    1    1    2    0    0  0.17873215012E+02 -0.34616667789E+01 -0.16200131145E+02  0.24434339153E+02  0.17770000000E+01 0. -1.
</event>
<event>
 6    1  0.2172490E-002  0.2056695E+03  0.7546771E-02  0.1051375E+00
        -11   -1    0    0    0    0  0.00000000000E+00  0.00000000000E+00  0.18250000000E+03  0.18250000000E+03  0.00000000000E+00 0. -1.
         11   -1    0    0    0    0 -0.00000000000E+00 -0.00000000000E+00 -0.18250000000E+03  0.18250000000E+03  0.00000000000E+00 0.  1.
        -11    1    1    2    0    0  0.55475248160E+01 -0.38409300580E+01  0.10584960643E+03  0.10606444718E+03  0.00000000000E+00 0. -1.
         11    1    1    2    0    0  0.28482992687E+01 -0.12741176066E+01 -0.15929989531E+03  0.15933045167E+03  0.00000000000E+00 0.  1.
        -15    1    1    2    0    0 -0.20150756251E+01  0.27300852212E+01 -0.22755100951E+02  0.23075230083E+02  0.17770000000E+01 0.  1.
         15    1    1    2    0    0 -0.63807484595E+01  0.23849624434E+01  0.76205389833E+02  0.76529871066E+02  0.17770000000E+01 0.  1.
</event>
<event>
 6    1  0.8353910E-003  0.1829483E+03  0.7546771E-02  0.1068099E+00
        -11   -1    0    0    0    0  0.00000000000E+00  0.00000000000E+00  0.18250000000E+03  0.18250000000E+03  0.00000000000E+00 0.  1.
         11   -1    0    0    0    0 -0.00000000000E+00 -0.00000000000E+00 -0.18250000000E+03  0.18250000000E+03  0.00000000000E+00 0. -1.
        -11    1    1    2    0    0 -0.21620353987E+01 -0.14812259670E+01  0.16441338422E+03  0.16443427057E+03  0.00000000000E+00 0.  1.
         11    1    1    2    0    0  0.21392371679E+01  0.20539410325E+01 -0.18202754620E+03  0.18205170305E+03  0.00000000000E+00 0. -1.
        -15    1    1    2    0    0  0.14289152307E+01  0.14179297588E+01  0.84085812058E+01  0.88269071839E+01  0.17770000000E+01 0. -1.
         15    1    1    2    0    0 -0.14061169999E+01 -0.19906448243E+01  0.92055807762E+01  0.96871191931E+01  0.17770000000E+01 0. -1.
</event>
<event>
 6    1  0.8353910E-003  0.1890282E+03  0.7546771E-02  0.1063374E+00
        -11   -1    0    0    0    0  0.00000000000E+00  0.00000000000E+00  0.18250000000E+03  0.18250000000E+03  0.00000000000E+00 0.  1.
         11   -1    0    0    0    0 -0.00000000000E+00 -0.00000000000E+00 -0.18250000000E+03  0.18250000000E+03  0.00000000000E+00 0. -1.
        -11    1    1    2    0    0  0.19567656176E+01  0.15303148067E+02  0.17529418543E+03  0.17597177818E+03  0.00000000000E+00 0.  1.
         11    1    1    2    0    0  0.80694783776E+01 -0.36490354024E+01 -0.99089619955E+02  0.99484595408E+02  0.00000000000E+00 0. -1.
        -15    1    1    2    0    0 -0.28622441685E+01  0.97072225019E+01 -0.62009190521E+02  0.62854753587E+02  0.17770000000E+01 0.  1.
         15    1    1    2    0    0 -0.71639998267E+01 -0.21361335167E+02 -0.14195374949E+02  0.26688872823E+02  0.17770000000E+01 0. -1.
</event>
<event>
 6    1  0.8353910E-003  0.1835984E+03  0.7546771E-02  0.1067584E+00
        -11   -1    0    0    0    0  0.00000000000E+00  0.00000000000E+00  0.18250000000E+03  0.18250000000E+03  0.00000000000E+00 0.  1.
         11   -1    0    0    0    0 -0.00000000000E+00 -0.00000000000E+00 -0.18250000000E+03  0.18250000000E+03  0.00000000000E+00 0.  1.
        -11    1    1    2    0    0 -0.38417214712E+01  0.10856541514E+01  0.18135761655E+03  0.18140155057E+03  0.00000000000E+00 0.  1.
         11    1    1    2    0    0  0.32645916376E+01 -0.36135954274E+00 -0.14427044023E+03  0.14430782398E+03  0.00000000000E+00 0.  1.
        -15    1    1    2    0    0  0.36111364529E+01 -0.18409863652E+01 -0.38996695784E+01  0.58987023234E+01  0.17770000000E+01 0.  1.
         15    1    1    2    0    0 -0.30340066194E+01  0.11166917566E+01 -0.33187506745E+02  0.33391923119E+02  0.17770000000E+01 0. -1.
</event>
<event>
 6    1  0.8353910E-003  0.1908429E+03  0.7546771E-02  0.1062001E+00
        -11   -1    0    0    0    0  0.00000000000E+00  0.00000000000E+00  0.18250000000E+03  0.18250000000E+03  0.00000000000E+00 0.  1.
         11   -1    0    0    0    0 -0.00000000000E+00 -0.00000000000E+00 -0.18250000000E+03  0.18250000000E+03  0.00000000000E+00 0.  1.
        -11    1    1    2    0    0  0.29233849688E+01  0.57343982717E+01  0.16416801886E+03  0.16429415059E+03  0.00000000000E+00 0.  1.
         11    1    1    2    0    0 -0.32215218700E+01  0.40574135883E+00 -0.17412680441E+03  0.17415707520E+03  0.00000000000E+00 0.  1.
        -15    1    1    2    0    0  0.19762286601E+01  0.11538145696E+01 -0.71910038741E+01  0.77527436109E+01  0.17770000000E+01 0. -1.
         15    1    1    2    0    0 -0.16780917589E+01 -0.72939542001E+01  0.17149789423E+02  0.18796030594E+02  0.17770000000E+01 0. -1.
</event>
<event>
 6    1  0.8353910E-003  0.1906671E+03  0.7546771E-02  0.1062133E+00
        -11   -1    0    0    0    0  0.00000000000E+00  0.00000000000E+00  0.18250000000E+03  0.18250000000E+03  0.00000000000E+00 0.  1.
         11   -1    0    0    0    0 -0.00000000000E+00 -0.00000000000E+00 -0.18250000000E+03  0.18250000000E+03  0.00000000000E+00 0. -1.
        -11    1    1    2    0    0  0.83404617274E+01  0.40924405698E+01  0.11480067091E+03  0.11517597585E+03  0.00000000000E+00 0.  1.
         11    1    1    2    0    0 -0.36924816025E+01 -0.40822761151E+01 -0.17424598131E+03  0.17433290395E+03  0.00000000000E+00 0. -1.
        -15    1    1    2    0    0 -0.39356782953E+01 -0.53621430047E+01  0.66260198049E+02  0.66616917639E+02  0.17770000000E+01 0.  1.
         15    1    1    2    0    0 -0.71230182958E+00  0.53519785500E+01 -0.68148876511E+01  0.88742025553E+01  0.17770000000E+01 0. -1.
</event>
<event>
 6    1  0.8353910E-003  0.1834426E+03  0.7546771E-02  0.1067707E+00
        -11   -1    0    0    0    0  0.00000000000E+00  0.00000000000E+00  0.18250000000E+03  0.18250000000E+03  0.00000000000E+00 0. -1.
         11   -1    0    0    0    0 -0.00000000000E+00 -0.00000000000E+00 -0.18250000000E+03  0.18250000000E+03  0.00000000000E+00 0.  1.
        -11    1    1    2    0    0  0.16258598191E+01 -0.25751805607E+01  0.18153186989E+03  0.18155741450E+03  0.00000000000E+00 0. -1.
         11    1    1    2    0    0 -0.29059333223E+01  0.16747708438E+01 -0.16832421846E+03  0.16835763073E+03  0.00000000000E+00 0.  1.
        -15    1    1    2    0    0 -0.18958445175E+01 -0.58892957304E+00 -0.24064032107E+01  0.35902047140E+01  0.17770000000E+01 0. -1.
         15    1    1    2    0    0  0.31759180206E+01  0.14893392900E+01 -0.10801248218E+02  0.11494750056E+02  0.17770000000E+01 0.  1.
</event>
<event>
 6    1  0.8353910E-003  0.1825710E+03  0.7546771E-02  0.1068398E+00
        -11   -1    0    0    0    0  0.00000000000E+00  0.00000000000E+00  0.18250000000E+03  0.18250000000E+03  0.00000000000E+00 0. -1.
         11   -1    0    0    0    0 -0.00000000000E+00 -0.00000000000E+00 -0.18250000000E+03  0.18250000000E+03  0.00000000000E+00 0. -1.
        -11    1    1    2    0    0  0.23105595773E+01 -0.19441973871E+01  0.18240398891E+03  0.18242898278E+03  0.00000000000E+00 0. -1.
         11    1    1    2    0    0 -0.75696861435E+00 -0.13315358927E+00 -0.54482199632E+01  0.55021661306E+01  0.00000000000E+00 0. -1.
        -15    1    1    2    0    0 -0.17612852839E+01 -0.44220413498E+00 -0.41415782274E+02  0.41493643137E+02  0.17770000000E+01 0.  1.
         15    1    1    2    0    0  0.20769432093E+00  0.25195551114E+01 -0.13553998667E+03  0.13557520795E+03  0.17770000000E+01 0. -1.
</event>
<event>
 6    1  0.8353910E-003  0.1826901E+03  0.7546771E-02  0.1068304E+00
        -11   -1    0    0    0    0  0.00000000000E+00  0.00000000000E+00  0.18250000000E+03  0.18250000000E+03  0.00000000000E+00 0.  1.
         11   -1    0    0    0    0 -0.00000000000E+00 -0.00000000000E+00 -0.18250000000E+03  0.18250000000E+03  0.00000000000E+00 0.  1.
        -11    1    1    2    0    0 -0.47926593923E+00  0.92539439348E+00  0.33961914369E+02  0.33977899851E+02  0.00000000000E+00 0.  1.
         11    1    1    2    0    0 -0.21856495152E+01 -0.27175305655E+01 -0.18227658978E+03  0.18230994821E+03  0.00000000000E+00 0.  1.
        -15    1    1    2    0    0  0.27218869228E+01 -0.30839892282E+01  0.10367217453E+03  0.10376896048E+03  0.17770000000E+01 0. -1.
         15    1    1    2    0    0 -0.56971468299E-01  0.48761254002E+01  0.44642500880E+02  0.44943191459E+02  0.17770000000E+01 0.  1.
</event>
<event>
 6    1  0.8353910E-003  0.1827778E+03  0.7546771E-02  0.1068234E+00
        -11   -1    0    0    0    0  0.00000000000E+00  0.00000000000E+00  0.18250000000E+03  0.18250000000E+03  0.00000000000E+00 0. -1.
         11   -1    0    0    0    0 -0.00000000000E+00 -0.00000000000E+00 -0.18250000000E+03  0.18250000000E+03  0.00000000000E+00 0. -1.
        -11    1    1    2    0    0 -0.43010757810E+01  0.50690063385E+00  0.18217070027E+03  0.18222217274E+03  0.00000000000E+00 0. -1.
         11    1    1    2    0    0  0.16562868486E+01 -0.19576785553E+01 -0.15542490209E+03  0.15544605489E+03  0.00000000000E+00 0. -1.
        -15    1    1    2    0    0  0.23312026195E+01  0.16844495966E+00 -0.94697219567E+01  0.99144461416E+01  0.17770000000E+01 0.  1.
         15    1    1    2    0    0  0.31358631291E+00  0.12823329618E+01 -0.17276076228E+02  0.17417326231E+02  0.17770000000E+01 0. -1.
</event>
<event>
 6    1  0.8353910E-003  0.1842601E+03  0.7546771E-02  0.1067062E+00
        -11   -1    0    0    0    0  0.00000000000E+00  0.00000000000E+00  0.18250000000E+03  0.18250000000E+03  0.00000000000E+00 0.  1.
         11   -1    0    0    0    0 -0.00000000000E+00 -0.00000000000E+00 -0.18250000000E+03  0.18250000000E+03  0.00000000000E+00 0.  1.
        -11    1    1    2    0    0  0.38328351604E+01  0.11554609036E+01  0.18069555148E+03  0.18073989056E+03  0.00000000000E+00 0.  1.
         11    1    1    2    0    0 -0.25805344293E+01  0.83365849426E-01 -0.16864152010E+03  0.16866128308E+03  0.00000000000E+00 0.  1.
        -15    1    1    2    0    0  0.32837160099E+01  0.17376538979E+01 -0.41298785395E+01  0.58323115189E+01  0.17770000000E+01 0. -1.
         15    1    1    2    0    0 -0.45360167410E+01 -0.29764806510E+01 -0.79241528372E+01  0.97665148405E+01  0.17770000000E+01 0. -1.
</event>
<event>
 6    1  0.8353910E-003  0.1850929E+03  0.7546771E-02  0.1066409E+00
        -11   -1    0    0    0    0  0.00000000000E+00  0.00000000000E+00  0.18250000000E+03  0.18250000000E+03  0.00000000000E+00 0. -1.
         11   -1    0    0    0    0 -0.00000000000E+00 -0.00000000000E+00 -0.18250000000E+03  0.18250000000E+03  0.00000000000E+00 0.  1.
        -11    1    1    2    0    0  0.69978208074E+01  0.19845810192E+01  0.11737057642E+03  0.11759574935E+03  0.00000000000E+00 0. -1.
         11    1    1    2    0    0  0.17883145591E+01  0.20665180903E+01 -0.17988636050E+03  0.17990711843E+03  0.00000000000E+00 0.  1.
        -15    1    1    2    0    0  0.59416145340E+01  0.37425077315E+01  0.98289227261E+01  0.12209610901E+02  0.17770000000E+01 0. -1.
         15    1    1    2    0    0 -0.14727749901E+02 -0.77936068409E+01  0.52686861360E+02  0.55287521320E+02  0.17770000000E+01 0. -1.
</event>
<event>
 6    1  0.8353910E-003  0.1826266E+03  0.7546771E-02  0.1068354E+00
        -11   -1    0    0    0    0  0.00000000000E+00  0.00000000000E+00  0.18250000000E+03  0.18250000000E+03  0.00000000000E+00 0.  1.
         11   -1    0    0    0    0 -0.00000000000E+00 -0.00000000000E+00 -0.18250000000E+03  0.18250000000E+03  0.00000000000E+00 0.  1.
        -11    1    1    2    0    0 -0.14442857603E+01  0.58522316373E+00  0.83553031249E+02  0.83567562358E+02  0.00000000000E+00 0.  1.
         11    1    1    2    0    0 -0.16114056537E+01 -0.21686106963E+01 -0.18235335774E+03  0.18237337136E+03  0.00000000000E+00 0.  1.
        -15    1    1    2    0    0  0.10068973921E+01 -0.67729145627E+00  0.71371618937E+02  0.71404049499E+02  0.17770000000E+01 0.  1.
         15    1    1    2    0    0  0.20487940219E+01  0.22606789889E+01  0.27428707554E+02  0.27655016787E+02  0.17770000000E+01 0.  1.
</event>
<event>
 6    1  0.8353910E-003  0.1968054E+03  0.7546771E-02  0.1057606E+00
        -11   -1    0    0    0    0  0.00000000000E+00  0.00000000000E+00  0.18250000000E+03  0.18250000000E+03  0.00000000000E+00 0.  1.
         11   -1    0    0    0    0 -0.00000000000E+00 -0.00000000000E+00 -0.18250000000E+03  0.18250000000E+03  0.00000000000E+00 0.  1.
        -11    1    1    2    0    0  0.85483893945E+00  0.38760812997E+01  0.11038896095E+03  0.11046029810E+03  0.00000000000E+00 0.  1.
         11    1    1    2    0    0 -0.18699603701E+01  0.17873496111E+01 -0.16817473031E+03  0.16819462323E+03  0.00000000000E+00 0.  1.
        -15    1    1    2    0    0  0.22836051296E+02 -0.24857854190E+02  0.22535917978E+02  0.40625404390E+02  0.17770000000E+01 0.  1.
         15    1    1    2    0    0 -0.21820929865E+02  0.19194423279E+02  0.35249851377E+02  0.45719674281E+02  0.17770000000E+01 0. -1.
</event>
<event>
 6    1  0.8353910E-003  0.1750360E+03  0.7546771E-02  0.1074556E+00
        -11   -1    0    0    0    0  0.00000000000E+00  0.00000000000E+00  0.18250000000E+03  0.18250000000E+03  0.00000000000E+00 0.  1.
         11   -1    0    0    0    0 -0.00000000000E+00 -0.00000000000E+00 -0.18250000000E+03  0.18250000000E+03  0.00000000000E+00 0. -1.
        -11    1    1    2    0    0 -0.68411623385E-01  0.42244021661E+01  0.17449571898E+03  0.17454685960E+03  0.00000000000E+00 0.  1.
         11    1    1    2    0    0 -0.58948781433E+00  0.45571024900E+01 -0.17557741070E+03  0.17563752966E+03  0.00000000000E+00 0. -1.
        -15    1    1    2    0    0  0.10562404421E+01 -0.67523715481E+01 -0.46591366766E+01  0.84602274772E+01  0.17770000000E+01 0.  1.
         15    1    1    2    0    0 -0.39834100433E+00 -0.20291331080E+01  0.57408283987E+01  0.63553832637E+01  0.17770000000E+01 0.  1.
</event>
<event>
 6    1  0.8353910E-003  0.1840565E+03  0.7546771E-02  0.1067223E+00
        -11   -1    0    0    0    0  0.00000000000E+00  0.00000000000E+00  0.18250000000E+03  0.18250000000E+03  0.00000000000E+00 0.  1.
         11   -1    0    0    0    0 -0.00000000000E+00 -0.00000000000E+00 -0.18250000000E+03  0.18250000000E+03  0.00000000000E+00 0.  1.
        -11    1    1    2    0    0  0.95984015605E+00  0.29005845012E+01  0.18091773856E+03  0.18094353486E+03  0.00000000000E+00 0.  1.
         11    1    1    2    0    0 -0.22831697642E+01  0.22842791659E+01 -0.16671816368E+03  0.16674944347E+03  0.00000000000E+00 0.  1.
        -15    1    1    2    0    0  0.32782002671E+01 -0.57846595548E+01 -0.80747120420E+01  0.10609787308E+02  0.17770000000E+01 0. -1.
         15    1    1    2    0    0 -0.19548706590E+01  0.59979588784E+00 -0.61248628349E+01  0.66972343655E+01  0.17770000000E+01 0.  1.
</event>
<event>
 6    1  0.8353910E-003  0.1654588E+03  0.7546771E-02  0.1082892E+00
        -11   -1    0    0    0    0  0.00000000000E+00  0.00000000000E+00  0.18250000000E+03  0.18250000000E+03  0.00000000000E+00 0.  1.
         11   -1    0    0    0    0 -0.00000000000E+00 -0.00000000000E+00 -0.18250000000E+03  0.18250000000E+03  0.00000000000E+00 0. -1.
        -11    1    1    2    0    0 -0.44685791662E+01  0.38666355923E+01  0.16476025409E+03  0.16486618938E+03  0.00000000000E+00 0.  1.
         11    1    1    2    0    0 -0.53612155660E+01 -0.45511545104E+01 -0.16605173485E+03  0.16620058450E+03  0.00000000000E+00 0. -1.
        -15    1    1    2    0    0 -0.29642211957E+00 -0.47002355348E+01  0.15087363751E+02  0.15904916036E+02  0.17770000000E+01 0.  1.
         15    1    1    2    0    0  0.10126216852E+02  0.53847544528E+01 -0.13795882990E+02  0.18028310090E+02  0.17770000000E+01 0.  1.
</event>
<event>
 6    1  0.8353910E-003  0.1836614E+03  0.7546771E-02  0.1067534E+00
        -11   -1    0    0    0    0  0.00000000000E+00  0.00000000000E+00  0.18250000000E+03  0.18250000000E+03  0.00000000000E+00 0. -1.
         11   -1    0    0    0    0 -0.00000000000E+00 -0.00000000000E+00 -0.18250000000E+03  0.18250000000E+03  0.00000000000E+00 0. -1.
        -11    1    1    2    0    0 -0.87863344458E+00  0.39676554969E+01  0.10388217301E+03  0.10396162828E+03  0.00000000000E+00 0. -1.
         11    1    1    2    0    0  0.94843747990E+01  0.61985616564E+01 -0.18098425687E+03  0.18133856944E+03  0.00000000000E+00 0. -1.
        -15    1    1    2    0    0  0.71585889153E+00 -0.15516479543E+01  0.45925749067E+02  0.45991871257E+02  0.17770000000E+01 0. -1.
         15    1    1    2    0    0 -0.93216002459E+01 -0.86145691990E+01  0.31176334795E+02  0.33707931023E+02  0.17770000000E+01 0. -1.
</event>
<event>
 6    1  0.8353910E-003  0.1898792E+03  0.7546771E-02  0.1062728E+00
        -11   -1    0    0    0    0  0.00000000000E+00  0.00000000000E+00  0.18250000000E+03  0.18250000000E+03  0.00000000000E+00 0.  1.
         11   -1    0    0    0    0 -0.00000000000E+00 -0.00000000000E+00 -0.18250000000E+03  0.18250000000E+03  0.00000000000E+00 0. -1.
        -11    1    1    2    0    0  0.38016131543E+01 -0.42532364763E+01  0.15721640519E+03  0.15731986634E+03  0.00000000000E+00 0.  1.
         11    1    1    2    0    0 -0.27371296023E+01  0.13655707981E+01 -0.17509410432E+03  0.17512082123E+03  0.00000000000E+00 0. -1.
        -15    1    1    2    0    0  0.79998118351E+01 -0.78331834741E+01  0.13745453326E+02  0.17817153782E+02  0.17770000000E+01 0.  1.
         15    1    1    2    0    0 -0.90642953871E+01  0.10720849152E+02  0.41322457987E+01  0.14742158653E+02  0.17770000000E+01 0. -1.
</event>
<event>
 6    1  0.8353910E-003  0.1692322E+03  0.7546771E-02  0.1079536E+00
        -11   -1    0    0    0    0  0.00000000000E+00  0.00000000000E+00  0.18250000000E+03  0.18250000000E+03  0.00000000000E+00 0. -1.
         11   -1    0    0    0    0 -0.00000000000E+00 -0.00000000000E+00 -0.18250000000E+03  0.18250000000E+03  0.00000000000E+00 0.  1.
        -11    1    1    2    0    0  0.23479437907E+01 -0.28444061727E+01  0.16703377123E+03  0.16707448704E+03  0.00000000000E+00 0. -1.
         11    1    1    2    0    0 -0.55512632796E+00 -0.65744487119E+01 -0.17142736096E+03  0.17155428187E+03  0.00000000000E+00 0.  1.
        -15    1    1    2    0    0  0.23909518752E+01  0.14977082162E+02 -0.35353052173E+01  0.15674366110E+02  0.17770000000E+01 0. -1.
         15    1    1    2    0    0 -0.41837693380E+01 -0.55582272776E+01  0.79288949477E+01  0.10696864982E+02  0.17770000000E+01 0.  1.
</event>
<event>
 6    1  0.8353910E-003  0.1844136E+03  0.7546771E-02  0.1066942E+00
        -11   -1    0    0    0    0  0.00000000000E+00  0.00000000000E+00  0.18250000000E+03  0.18250000000E+03  0.00000000000E+00 0. -1.
         11   -1    0    0    0    0 -0.00000000000E+00 -0.00000000000E+00 -0.18250000000E+03  0.18250000000E+03  0.00000000000E+00 0. -1.
        -11    1    1    2    0    0 -0.57893509198E+01 -0.20132116133E+01  0.18048233471E+03  0.18058638583E+03  0.00000000000E+00 0. -1.
         11    1    1    2    0    0  0.23271116678E+01  0.27642844335E+01 -0.17010066293E+03  0.17013903799E+03  0.00000000000E+00 0. -1.
        -15    1    1    2    0    0  0.20936083707E+01 -0.24116195785E+01 -0.13772843110E+00  0.36572945086E+01  0.17770000000E+01 0.  1.
         15    1    1    2    0    0  0.13686308813E+01  0.16605467583E+01 -0.10243943342E+02  0.10617281678E+02  0.17770000000E+01 0. -1.
</event>
<event>
 6    1  0.8353910E-003  0.1829168E+03  0.7546771E-02  0.1068124E+00
        -11   -1    0    0    0    0  0.00000000000E+00  0.00000000000E+00  0.18250000000E+03  0.18250000000E+03  0.00000000000E+00 0. -1.
         11   -1    0    0    0    0 -0.00000000000E+00 -0.00000000000E+00 -0.18250000000E+03  0.18250000000E+03  0.00000000000E+00 0. -1.
        -11    1    1    2    0    0  0.56058535411E+00  0.26652012153E+01  0.18206284372E+03  0.18208321344E+03  0.00000000000E+00 0. -1.
         11    1    1    2    0    0  0.23038853571E+01 -0.23688227236E+01 -0.13813050842E+03  0.13817002774E+03  0.00000000000E+00 0. -1.
        -15    1    1    2    0    0 -0.29358999041E+01  0.31255184258E+01 -0.23866122289E+02  0.24313327534E+02  0.17770000000E+01 0. -1.
         15    1    1    2    0    0  0.71429192965E-01 -0.34218969175E+01 -0.20066213012E+02  0.20433431290E+02  0.17770000000E+01 0.  1.
</event>
<event>
 6    1  0.8353910E-003  0.1851863E+03  0.7546771E-02  0.1066336E+00
        -11   -1    0    0    0    0  0.00000000000E+00  0.00000000000E+00  0.18250000000E+03  0.18250000000E+03  0.00000000000E+00 0. -1.
         11   -1    0    0    0    0 -0.00000000000E+00 -0.00000000000E+00 -0.18250000000E+03  0.18250000000E+03  0.00000000000E+00 0.  1.
        -11    1    1    2    0    0  0.62577130043E+00  0.28695389714E+01  0.17978968942E+03  0.17981367653E+03  0.00000000000E+00 0. -1.
         11    1    1    2    0    0  0.81865102790E+00  0.19331404752E+01 -0.15431467915E+03  0.15432895847E+03  0.00000000000E+00 0.  1.
        -15    1    1    2    0    0  0.29542409792E+01  0.32761003239E+00  0.89537656467E+00  0.35769115573E+01  0.17770000000E+01 0. -1.
         15    1    1    2    0    0 -0.43986633075E+01 -0.51302894790E+01 -0.26370386841E+02  0.27280453445E+02  0.17770000000E+01 0.  1.
</event>
<event>
 6    1  0.8353910E-003  0.1853609E+03  0.7546771E-02  0.1066200E+00
        -11   -1    0    0    0    0  0.00000000000E+00  0.00000000000E+00  0.18250000000E+03  0.18250000000E+03  0.00000000000E+00 0.  1.
         11   -1    0    0    0    0 -0.00000000000E+00 -0.00000000000E+00 -0.18250000000E+03  0.18250000000E+03  0.00000000000E+00 0.  1.
        -11    1    1    2    0    0 -0.24888264358E+01 -0.16093270255E+02  0.11119722879E+03  0.11238332303E+03  0.00000000000E+00 0.  1.
         11    1    1    2    0    0 -0.12864689210E+01  0.31187315075E+01 -0.17960738164E+03  0.17963906320E+03  0.00000000000E+00 0.  1.
        -15    1    1    2    0    0  0.25297405938E+01  0.10390590458E+02  0.68737833084E+02  0.69587436966E+02  0.17770000000E+01 0. -1.
         15    1    1    2    0    0  0.12455547631E+01  0.25839482895E+01 -0.32768023541E+00  0.33901768047E+01  0.17770000000E+01 0.  1.
</event>
<event>
 6    1  0.8353910E-003  0.1832783E+03  0.7546771E-02  0.1067837E+00
        -11   -1    0    0    0    0  0.00000000000E+00  0.00000000000E+00  0.18250000000E+03  0.18250000000E+03  0.00000000000E+00 0. -1.
         11   -1    0    0    0    0 -0.00000000000E+00 -0.00000000000E+00 -0.18250000000E+03  0.18250000000E+03  0.00000000000E+00 0.  1.
        -11    1    1    2    0    0 -0.83011839103E+00  0.27159195334E+01  0.18169945781E+03  0.18172165056E+03  0.00000000000E+00 0. -1.
         11    1    1    2    0    0 -0.63966278771E+00  0.22401032552E+01 -0.16428758419E+03  0.16430410083E+03  0.00000000000E+00 0.  1.
        -15    1    1    2    0    0 -0.79427817626E+00 -0.54092986749E+00 -0.28942962376E+01  0.35296122526E+01  0.17770000000E+01 0. -1.
         15    1    1    2    0    0  0.22640593550E+01 -0.44150929211E+01 -0.14517577377E+02  0.15444636355E+02  0.17770000000E+01 0. -1.
</event>
<event>
 6    1  0.8353910E-003  0.1920244E+03  0.7546771E-02  0.1061116E+00
        -11   -1    0    0    0    0  0.00000000000E+00  0.00000000000E+00  0.18250000000E+03  0.18250000000E+03  0.00000000000E+00 0.  1.
         11   -1    0    0    0    0 -0.00000000000E+00 -0.00000000000E+00 -0.18250000000E+03  0.18250000000E+03  0.00000000000E+00 0. -1.
        -11    1    1    2    0    0 -0.30024925251E+01 -0.10377293165E+01  0.17294641222E+03  0.17297558598E+03  0.00000000000E+00 0.  1.
         11    1    1    2    0    0  0.19430910736E+00 -0.20891670241E+02 -0.10763257859E+03  0.10964155971E+03  0.00000000000E+00 0. -1.
        -15    1    1    2    0    0 -0.16046961719E+02  0.24171306701E+02 -0.27414999760E+02  0.39956188367E+02  0.17770000000E+01 0.  1.
         15    1    1    2    0    0  0.18855145136E+02 -0.22419071426E+01 -0.37898833869E+02  0.42426665947E+02  0.17770000000E+01 0. -1.
</event>
<event>
 6    1  0.8353910E-003  0.1830640E+03  0.7546771E-02  0.1068007E+00
        -11   -1    0    0    0    0  0.00000000000E+00  0.00000000000E+00  0.18250000000E+03  0.18250000000E+03  0.00000000000E+00 0. -1.
         11   -1    0    0    0    0 -0.00000000000E+00 -0.00000000000E+00 -0.18250000000E+03  0.18250000000E+03  0.00000000000E+00 0. -1.
        -11    1    1    2    0    0  0.32016703408E+01  0.12274286660E+01  0.18190371816E+03  0.18193603259E+03  0.00000000000E+00 0. -1.
         11    1    1    2    0    0  0.25584871523E+01 -0.47520727505E+00 -0.15088525879E+03  0.15090769695E+03  0.00000000000E+00 0. -1.
        -15    1    1    2    0    0 -0.34215061677E+01  0.14319090677E+01 -0.98571661465E+01  0.10680754724E+02  0.17770000000E+01 0. -1.
         15    1    1    2    0    0 -0.23386513254E+01 -0.21841304587E+01 -0.21161293228E+02  0.21475515733E+02  0.17770000000E+01 0.  1.
</event>
<event>
 6    1  0.1080429E-002  0.1872672E+03  0.7546771E-02  0.1064722E+00
        -11   -1    0    0    0    0  0.00000000000E+00  0.00000000000E+00  0.18250000000E+03  0.18250000000E+03  0.00000000000E+00 0.  1.
         11   -1    0    0    0    0 -0.00000000000E+00 -0.00000000000E+00 -0.18250000000E+03  0.18250000000E+03  0.00000000000E+00 0. -1.
        -11    1    1    2    0    0  0.18127865677E+01  0.20437952917E+01  0.17771182074E+03  0.17773281781E+03  0.00000000000E+00 0.  1.
         11    1    1    2    0    0 -0.27523821985E+01 -0.27281228102E+01 -0.17232397015E+03  0.17236754030E+03  0.00000000000E+00 0. -1.
        -15    1    1    2    0    0 -0.97066209334E+00 -0.23354622105E+01  0.37906246297E+01  0.48911279598E+01  0.17770000000E+01 0.  1.
         15    1    1    2    0    0  0.19102577241E+01  0.30197897289E+01 -0.91784752246E+01  0.10008513927E+02  0.17770000000E+01 0.  1.
</event>
<event>
 6    1  0.8353910E-003  0.1831464E+03  0.7546771E-02  0.1067941E+00
        -11   -1    0    0    0    0  0.00000000000E+00  0.00000000000E+00  0.18250000000E+03  0.18250000000E+03  0.00000000000E+00 0.  1.
         11   -1    0    0    0    0 -0.00000000000E+00 -0.00000000000E+00 -0.18250000000E+03  0.18250000000E+03  0.00000000000E+00 0. -1.
        -11    1    1    2    0    0  0.15261861075E+01 -0.12943007986E+01  0.11218642228E+03  0.11220426820E+03  0.00000000000E+00 0.  1.
         11    1    1    2    0    0  0.19883628031E+01 -0.15372069711E+01 -0.18183625623E+03  0.18185362431E+03  0.00000000000E+00 0. -1.
        -15    1    1    2    0    0  0.18129490455E+01  0.13731708276E+01  0.56444640675E+02  0.56518382605E+02  0.17770000000E+01 0. -1.
         15    1    1    2    0    0 -0.53274979561E+01  0.14583369420E+01  0.13205193277E+02  0.14423724886E+02  0.17770000000E+01 0.  1.
</event>
<event>
 6    1  0.8353910E-003  0.1850940E+03  0.7546771E-02  0.1066409E+00
        -11   -1    0    0    0    0  0.00000000000E+00  0.00000000000E+00  0.18250000000E+03  0.18250000000E+03  0.00000000000E+00 0.  1.
         11   -1    0    0    0    0 -0.00000000000E+00 -0.00000000000E+00 -0.18250000000E+03  0.18250000000E+03  0.00000000000E+00 0. -1.
        -11    1    1    2    0    0 -0.23662556819E+01  0.28637158252E+01  0.17986768606E+03  0.17990604360E+03  0.00000000000E+00 0.  1.
         11    1    1    2    0    0  0.34968019422E+01 -0.42250037814E+00 -0.12309641946E+03  0.12314680107E+03  0.00000000000E+00 0. -1.
        -15    1    1    2    0    0  0.18531876182E+01 -0.31130018723E+01  0.92721260602E+00  0.41403547218E+01  0.17770000000E+01 0. -1.
         15    1    1    2    0    0 -0.29837338786E+01  0.67178642526E+00 -0.57698479209E+02  0.57806800611E+02  0.17770000000E+01 0. -1.
</event>
<event>
 6    1  0.8353910E-003  0.1880264E+03  0.7546771E-02  0.1064139E+00
        -11   -1    0    0    0    0  0.00000000000E+00  0.00000000000E+00  0.18250000000E+03  0.18250000000E+03  0.00000000000E+00 0.  1.
         11   -1    0    0    0    0 -0.00000000000E+00 -0.00000000000E+00 -0.18250000000E+03  0.18250000000E+03  0.00000000000E+00 0.  1.
        -11    1    1    2    0    0 -0.22317672588E+00 -0.35930013706E+01  0.17693701810E+03  0.17697363601E+03  0.00000000000E+00 0.  1.
         11    1    1    2    0    0  0.69281595226E+00 -0.50507768494E+01 -0.15002975236E+03  0.15011634466E+03  0.00000000000E+00 0.  1.
        -15    1    1    2    0    0 -0.67369258106E+01 -0.43502962579E+01 -0.10952193343E+01  0.82866447552E+01  0.17770000000E+01 0.  1.
         15    1    1    2    0    0  0.62672865842E+01  0.12994074478E+02 -0.25812046412E+02  0.29623374582E+02  0.17770000000E+01 0. -1.
</event>
<event>
 6    1  0.8353910E-003  0.1925265E+03  0.7546771E-02  0.1060743E+00
        -11   -1    0    0    0    0  0.00000000000E+00  0.00000000000E+00  0.18250000000E+03  0.18250000000E+03  0.00000000000E+00 0.  1.
         11   -1    0    0    0    0 -0.00000000000E+00 -0.00000000000E+00 -0.18250000000E+03  0.18250000000E+03  0.00000000000E+00 0.  1.
        -11    1    1    2    0    0 -0.33045914087E+01 -0.22304291811E+01  0.17242744545E+03  0.17247353154E+03  0.00000000000E+00 0.  1.
         11    1    1    2    0    0  0.39681921015E+01 -0.66472345077E+01 -0.16668047593E+03  0.16686016101E+03  0.00000000000E+00 0.  1.
        -15    1    1    2    0    0  0.37944943059E+01 -0.47832623607E+00  0.75899000936E+01  0.86828161017E+01  0.17770000000E+01 0.  1.
         15    1    1    2    0    0 -0.44580949986E+01  0.93559899249E+01 -0.13336869610E+02  0.16983491351E+02  0.17770000000E+01 0. -1.
</event>
<event>
 6    1  0.8353910E-003  0.1883193E+03  0.7546771E-02  0.1063915E+00
        -11   -1    0    0    0    0  0.00000000000E+00  0.00000000000E+00  0.18250000000E+03  0.18250000000E+03  0.00000000000E+00 0. -1.
         11   -1    0    0    0    0 -0.00000000000E+00 -0.00000000000E+00 -0.18250000000E+03  0.18250000000E+03  0.00000000000E+00 0.  1.
        -11    1    1    2    0    0 -0.58585114186E+01 -0.14948815842E+02  0.17594962976E+03  0.17668067654E+03  0.00000000000E+00 0. -1.
         11    1    1    2    0    0 -0.32477029620E+01  0.10395671293E+01 -0.14014074936E+03  0.14018223106E+03  0.00000000000E+00 0.  1.
        -15    1    1    2    0    0  0.77906997847E+01  0.18048058896E+02 -0.10422510257E+02  0.22320705234E+02  0.17770000000E+01 0.  1.
         15    1    1    2    0    0  0.13155145959E+01 -0.41388101838E+01 -0.25386370137E+02  0.25816387162E+02  0.17770000000E+01 0. -1.
</event>
<event>
 6    1  0.8353910E-003  0.1830307E+03  0.7546771E-02  0.1068033E+00
        -11   -1    0    0    0    0  0.00000000000E+00  0.00000000000E+00  0.18250000000E+03  0.18250000000E+03  0.00000000000E+00 0.  1.
         11   -1    0    0    0    0 -0.00000000000E+00 -0.00000000000E+00 -0.18250000000E+03  0.18250000000E+03  0.00000000000E+00 0.  1.
        -11    1    1    2    0    0 -0.14860306873E+01  0.23136549278E+01  0.18194849264E+03  0.18196927010E+03  0.00000000000E+00 0.  1.
         11    1    1    2    0    0 -0.28451265422E+01  0.55347098711E-01 -0.16143943239E+03  0.16146451046E+03  0.00000000000E+00 0.  1.
        -15    1    1    2    0    0  0.15550862077E+01 -0.12695154697E+01 -0.13248770933E+02  0.13517308270E+02  0.17770000000E+01 0. -1.
         15    1    1    2    0    0  0.27760710218E+01 -0.10994865569E+01 -0.72602893171E+01  0.80489111670E+01  0.17770000000E+01 0.  1.
</event>
<event>
 6    1  0.8353910E-003  0.1898318E+03  0.7546771E-02  0.1062764E+00
        -11   -1    0    0    0    0  0.00000000000E+00  0.00000000000E+00  0.18250000000E+03  0.18250000000E+03  0.00000000000E+00 0.  1.
         11   -1    0    0    0    0 -0.00000000000E+00 -0.00000000000E+00 -0.18250000000E+03  0.18250000000E+03  0.00000000000E+00 0.  1.
        -11    1    1    2    0    0  0.47421092333E+01  0.12102352439E+02  0.17468525709E+03  0.17516818655E+03  0.00000000000E+00 0.  1.
         11    1    1    2    0    0 -0.10772413134E+01  0.85061824453E-01 -0.64196650066E+02  0.64205744012E+02  0.00000000000E+00 0.  1.
        -15    1    1    2    0    0 -0.25131813807E+01 -0.26188395076E+02 -0.10809533835E+03  0.11126503502E+03  0.17770000000E+01 0.  1.
         15    1    1    2    0    0 -0.11516865392E+01  0.14000980813E+02 -0.23932686745E+01  0.14361034418E+02  0.17770000000E+01 0. -1.
</event>
<event>
 6    1  0.8353910E-003  0.2029745E+03  0.7546771E-02  0.1053233E+00
        -11   -1    0    0    0    0  0.00000000000E+00  0.00000000000E+00  0.18250000000E+03  0.18250000000E+03  0.00000000000E+00 0.  1.
         11   -1    0    0    0    0 -0.00000000000E+00 -0.00000000000E+00 -0.18250000000E+03  0.18250000000E+03  0.00000000000E+00 0.  1.
        -11    1    1    2    0    0  0.25231910255E+02  0.59157729762E+01  0.15993945409E+03  0.16202553700E+03  0.00000000000E+00 0.  1.
         11    1    1    2    0    0  0.43810674345E+01  0.21847516028E+01 -0.13773604184E+03  0.13782301735E+03  0.00000000000E+00 0.  1.
        -15    1    1    2    0    0  0.62703418568E+01 -0.15145471225E+02  0.73964252198E+01  0.18071173749E+02  0.17770000000E+01 0. -1.
         15    1    1    2    0    0 -0.35883319546E+02  0.70449466464E+01 -0.29599837473E+02  0.47080271902E+02  0.17770000000E+01 0.  1.
</event>
<event>
 6    1  0.8353910E-003  0.1844727E+03  0.7546771E-02  0.1066895E+00
        -11   -1    0    0    0    0  0.00000000000E+00  0.00000000000E+00  0.18250000000E+03  0.18250000000E+03  0.00000000000E+00 0. -1.
         11   -1    0    0    0    0 -0.00000000000E+00 -0.00000000000E+00 -0.18250000000E+03  0.18250000000E+03  0.00000000000E+00 0.  1.
        -11    1    1    2    0    0 -0.23945225673E+01 -0.21745498977E+01  0.16619881217E+03  0.16623028476E+03  0.00000000000E+00 0. -1.
         11    1    1    2    0    0  0.28394592127E+01  0.46922042864E+01 -0.18044400697E+03  0.18052733578E+03  0.00000000000E+00 0.  1.
        -15    1    1    2    0    0  0.94672422403E+00 -0.64622843005E+01  0.95748240815E+01  0.11725714918E+02  0.17770000000E+01 0.  1.
         15    1    1    2    0    0 -0.13916608695E+01  0.39446299118E+01  0.46703707224E+01  0.65166645457E+01  0.17770000000E+01 0. -1.
</event>
<event>
 6    1  0.8353910E-003  0.1836516E+03  0.7546771E-02  0.1067542E+00
        -11   -1    0    0    0    0  0.00000000000E+00  0.00000000000E+00  0.18250000000E+03  0.18250000000E+03  0.00000000000E+00 0. -1.
         11   -1    0    0    0    0 -0.00000000000E+00 -0.00000000000E+00 -0.18250000000E+03  0.18250000000E+03  0.00000000000E+00 0. -1.
        -11    1    1    2    0    0  0.26600923388E+01 -0.45899456847E+01  0.12818179841E+03  0.12829153182E+03  0.00000000000E+00 0. -1.
         11    1    1    2    0    0  0.46669821500E+01  0.20800485507E+01 -0.18127637859E+03  0.18134837401E+03  0.00000000000E+00 0. -1.
        -15    1    1    2    0    0 -0.10324228033E+02 -0.65977453241E+00  0.29816646077E+02  0.31610363794E+02  0.17770000000E+01 0.  1.
         15    1    1    2    0    0  0.29971535440E+01  0.31696716664E+01  0.23277934095E+02  0.23749730368E+02  0.17770000000E+01 0.  1.
</event>
<event>
 6    1  0.8353910E-003  0.1843939E+03  0.7546771E-02  0.1066957E+00
        -11   -1    0    0    0    0  0.00000000000E+00  0.00000000000E+00  0.18250000000E+03  0.18250000000E+03  0.00000000000E+00 0. -1.
         11   -1    0    0    0    0 -0.00000000000E+00 -0.00000000000E+00 -0.18250000000E+03  0.18250000000E+03  0.00000000000E+00 0. -1.
        -11    1    1    2    0    0  0.22219330329E+01  0.37928503590E+01  0.18055257898E+03  0.18060608095E+03  0.00000000000E+00 0. -1.
         11    1    1    2    0    0  0.31590361477E+01 -0.22997599648E-01 -0.15226246251E+03  0.15229523147E+03  0.00000000000E+00 0. -1.
        -15    1    1    2    0    0 -0.12128753738E+01 -0.52105651664E+01 -0.26378557678E+02  0.26974193041E+02  0.17770000000E+01 0.  1.
         15    1    1    2    0    0 -0.41680938068E+01  0.14407124070E+01 -0.19115587914E+01  0.51244945346E+01  0.17770000000E+01 0. -1.
</event>
<event>
 6    1  0.8353910E-003  0.1874474E+03  0.7546771E-02  0.1064584E+00
        -11   -1    0    0    0    0  0.00000000000E+00  0.00000000000E+00  0.18250000000E+03  0.18250000000E+03  0.00000000000E+00 0. -1.
         11   -1    0    0    0    0 -0.00000000000E+00 -0.00000000000E+00 -0.18250000000E+03  0.18250000000E+03  0.00000000000E+00 0.  1.
        -11    1    1    2    0    0 -0.30546953335E+00 -0.29030985496E+01  0.14845635375E+03  0.14848505063E+03  0.00000000000E+00 0. -1.
         11    1    1    2    0    0 -0.22738643437E+01  0.96307855488E+01 -0.17727664249E+03  0.17755261322E+03  0.00000000000E+00 0.  1.
        -15    1    1    2    0    0 -0.18479522097E+01  0.23937759190E+01  0.28446448716E+02  0.28661878237E+02  0.17770000000E+01 0. -1.
         15    1    1    2    0    0  0.44272860867E+01 -0.91214629182E+01  0.37384002442E+00  0.10300457913E+02  0.17770000000E+01 0.  1.
</event>
<event>
 6    1  0.8353910E-003  0.1845029E+03  0.7546771E-02  0.1066872E+00
        -11   -1    0    0    0    0  0.00000000000E+00  0.00000000000E+00  0.18250000000E+03  0.18250000000E+03  0.00000000000E+00 0.  1.
         11   -1    0    0    0    0 -0.00000000000E+00 -0.00000000000E+00 -0.18250000000E+03  0.18250000000E+03  0.00000000000E+00 0. -1.
        -11    1    1    2    0    0 -0.63470523812E+00  0.29954747641E+01  0.18047110020E+03  0.18049707401E+03  0.00000000000E+00 0.  1.
         11    1    1    2    0    0 -0.19477927945E+01  0.18394052509E+01 -0.16999619296E+03  0.17001730185E+03  0.00000000000E+00 0. -1.
        -15    1    1    2    0    0  0.50940268211E+01 -0.38939782917E+01 -0.81242154343E+01  0.10501084783E+02  0.17770000000E+01 0.  1.
         15    1    1    2    0    0 -0.25115287885E+01 -0.94090172327E+00 -0.23506918083E+01  0.39845393568E+01  0.17770000000E+01 0. -1.
</event>
<event>
 6    1  0.8353910E-003  0.1868475E+03  0.7546771E-02  0.1065046E+00
        -11   -1    0    0    0    0  0.00000000000E+00  0.00000000000E+00  0.18250000000E+03  0.18250000000E+03  0.00000000000E+00 0.  1.
         11   -1    0    0    0    0 -0.00000000000E+00 -0.00000000000E+00 -0.18250000000E+03  0.18250000000E+03  0.00000000000E+00 0. -1.
        -11    1    1    2    0    0 -0.11681879681E+01 -0.23363919877E+01  0.16606909960E+03  0.16608964216E+03  0.00000000000E+00 0.  1.
         11    1    1    2    0    0  0.13840951937E+01 -0.78802975139E+01 -0.17797278069E+03  0.17815253429E+03  0.00000000000E+00 0. -1.
        -15    1    1    2    0    0 -0.15578859313E+01  0.72962535423E+01 -0.63183553786E+00  0.76954057382E+01  0.17770000000E+01 0. -1.
         15    1    1    2    0    0  0.13419787057E+01  0.29204359594E+01  0.12535516625E+02  0.13062417812E+02  0.17770000000E+01 0. -1.
</event>
<event>
 6    1  0.8353910E-003  0.1849333E+03  0.7546771E-02  0.1066534E+00
        -11   -1    0    0    0    0  0.00000000000E+00  0.00000000000E+00  0.18250000000E+03  0.18250000000E+03  0.00000000000E+00 0. -1.
         11   -1    0    0    0    0 -0.00000000000E+00 -0.00000000000E+00 -0.18250000000E+03  0.18250000000E+03  0.00000000000E+00 0. -1.
        -11    1    1    2    0    0 -0.34787500833E+01 -0.28642410484E+01  0.18001028381E+03  0.18006667614E+03  0.00000000000E+00 0. -1.
         11    1    1    2    0    0  0.42915295273E+01 -0.24919112003E+01 -0.17378706031E+03  0.17385789938E+03  0.00000000000E+00 0. -1.
        -15    1    1    2    0    0  0.16068673826E+01  0.22111157846E+01  0.25862513429E+00  0.32704237888E+01  0.17770000000E+01 0.  1.
         15    1    1    2    0    0 -0.24196468266E+01  0.31450364641E+01 -0.64818486292E+01  0.78050006904E+01  0.17770000000E+01 0. -1.
</event>
<event>
 6    1  0.8353910E-003  0.1861873E+03  0.7546771E-02  0.1065557E+00
        -11   -1    0    0    0    0  0.00000000000E+00  0.00000000000E+00  0.18250000000E+03  0.18250000000E+03  0.00000000000E+00 0.  1.
         11   -1    0    0    0    0 -0.00000000000E+00 -0.00000000000E+00 -0.18250000000E+03  0.18250000000E+03  0.00000000000E+00 0. -1.
        -11    1    1    2    0    0 -0.10609554384E+02 -0.17589359935E+02  0.17762891367E+03  0.17881269306E+03  0.00000000000E+00 0.  1.
         11    1    1    2    0    0 -0.98631862328E+01  0.11321933590E+02 -0.64599413505E+02  0.66321586592E+02  0.00000000000E+00 0. -1.
        -15    1    1    2    0    0  0.10075587968E+02 -0.57991384313E+01 -0.95071138827E+02  0.95795754845E+02  0.17770000000E+01 0. -1.
         15    1    1    2    0    0  0.10397152649E+02  0.12066564776E+02 -0.17958361335E+02  0.24069965508E+02  0.17770000000E+01 0.  1.
</event>
<event>
 6    1  0.8353910E-003  0.1930164E+03  0.7546771E-02  0.1060379E+00
        -11   -1    0    0    0    0  0.00000000000E+00  0.00000000000E+00  0.18250000000E+03  0.18250000000E+03  0.00000000000E+00 0.  1.
         11   -1    0    0    0    0 -0.00000000000E+00 -0.00000000000E+00 -0.18250000000E+03  0.18250000000E+03  0.00000000000E+00 0.  1.
        -11    1    1    2    0    0 -0.72938816043E+01  0.95352465919E+01  0.15687769694E+03  0.15733637035E+03  0.00000000000E+00 0.  1.
         11    1    1    2    0    0  0.37958447541E+01 -0.33484858094E+01 -0.17190911458E+03  0.17198361687E+03  0.00000000000E+00 0.  1.
        -15    1    1    2    0    0  0.79511598079E+01 -0.52933597245E+01  0.23766420362E+02  0.25675690162E+02  0.17770000000E+01 0.  1.
         15    1    1    2    0    0 -0.44531229576E+01 -0.89340105797E+00 -0.87350027204E+01  0.10004322618E+02  0.17770000000E+01 0. -1.
</event>
<event>
 6    1  0.8353910E-003  0.1831055E+03  0.7546771E-02  0.1067974E+00
        -11   -1    0    0    0    0  0.00000000000E+00  0.00000000000E+00  0.18250000000E+03  0.18250000000E+03  0.00000000000E+00 0. -1.
         11   -1    0    0    0    0 -0.00000000000E+00 -0.00000000000E+00 -0.18250000000E+03  0.18250000000E+03  0.00000000000E+00 0. -1.
        -11    1    1    2    0    0 -0.23483532957E+01  0.22096723947E+00  0.14708952514E+03  0.14710843618E+03  0.00000000000E+00 0. -1.
         11    1    1    2    0    0  0.28274572842E+01  0.37844741221E+01 -0.18183313874E+03  0.18189449442E+03  0.00000000000E+00 0. -1.
        -15    1    1    2    0    0  0.19493916790E+01 -0.24653293478E+01  0.29741313005E+02  0.29959662965E+02  0.17770000000E+01 0.  1.
         15    1    1    2    0    0 -0.24284956676E+01 -0.15401120139E+01  0.50023005929E+01  0.60374064336E+01  0.17770000000E+01 0. -1.
</event>
<event>
 6    1  0.8353910E-003  0.1596659E+03  0.7546771E-02  0.1088240E+00
        -11   -1    0    0    0    0  0.00000000000E+00  0.00000000000E+00  0.18250000000E+03  0.18250000000E+03  0.00000000000E+00 0.  1.
         11   -1    0    0    0    0 -0.00000000000E+00 -0.00000000000E+00 -0.18250000000E+03  0.18250000000E+03  0.00000000000E+00 0.  1.
        -11    1    1    2    0    0  0.54667204668E+01 -0.51874301637E+01  0.15274662743E+03  0.15293242513E+03  0.00000000000E+00 0.  1.
         11    1    1    2    0    0  0.16488691161E+01 -0.19010654008E+02 -0.16660435012E+03  0.16769356939E+03  0.00000000000E+00 0.  1.
        -15    1    1    2    0    0 -0.13924468108E+02 -0.23077833838E+01  0.80365496107E+01  0.16338926981E+02  0.17770000000E+01 0.  1.
         15    1    1    2    0    0  0.68088785249E+01  0.26505867556E+02  0.58211730778E+01  0.28035078503E+02  0.17770000000E+01 0. -1.
</event>
<event>
 6    1  0.8353910E-003  0.1830242E+03  0.7546771E-02  0.1068038E+00
        -11   -1    0    0    0    0  0.00000000000E+00  0.00000000000E+00  0.18250000000E+03  0.18250000000E+03  0.00000000000E+00 0. -1.
         11   -1    0    0    0    0 -0.00000000000E+00 -0.00000000000E+00 -0.18250000000E+03  0.18250000000E+03  0.00000000000E+00 0.  1.
        -11    1    1    2    0    0  0.39021846621E+01 -0.10063346637E+01  0.18193119775E+03  0.18197582386E+03  0.00000000000E+00 0. -1.
         11    1    1    2    0    0  0.20169547967E+01  0.76634823696E+00 -0.13740712292E+03  0.13742406203E+03  0.00000000000E+00 0.  1.
        -15    1    1    2    0    0 -0.57945508978E+01  0.19561821352E+01 -0.20951017989E+02  0.21897633489E+02  0.17770000000E+01 0.  1.
         15    1    1    2    0    0 -0.12458856100E+00 -0.17161957084E+01 -0.23573056836E+02  0.23702480621E+02  0.17770000000E+01 0.  1.
</event>
<event>
 6    1  0.8353910E-003  0.1854187E+03  0.7546771E-02  0.1066155E+00
        -11   -1    0    0    0    0  0.00000000000E+00  0.00000000000E+00  0.18250000000E+03  0.18250000000E+03  0.00000000000E+00 0. -1.
         11   -1    0    0    0    0 -0.00000000000E+00 -0.00000000000E+00 -0.18250000000E+03  0.18250000000E+03  0.00000000000E+00 0. -1.
        -11    1    1    2    0    0  0.26745217385E+01  0.96643714144E+01  0.15650452391E+03  0.15682544164E+03  0.00000000000E+00 0. -1.
         11    1    1    2    0    0 -0.58895036459E+00  0.30446087556E+01 -0.17955456252E+03  0.17958133931E+03  0.00000000000E+00 0. -1.
        -15    1    1    2    0    0 -0.43921458371E+01 -0.10105263391E+02  0.10049536793E+02  0.15018595540E+02  0.17770000000E+01 0. -1.
         15    1    1    2    0    0  0.23065744632E+01 -0.26037167791E+01  0.13000501823E+02  0.13574623511E+02  0.17770000000E+01 0.  1.
</event>
<event>
 6    1  0.8353910E-003  0.1745319E+03  0.7546771E-02  0.1074980E+00
        -11   -1    0    0    0    0  0.00000000000E+00  0.00000000000E+00  0.18250000000E+03  0.18250000000E+03  0.00000000000E+00 0. -1.
         11   -1    0    0    0    0 -0.00000000000E+00 -0.00000000000E+00 -0.18250000000E+03  0.18250000000E+03  0.00000000000E+00 0.  1.
        -11    1    1    2    0    0  0.60793766081E+01 -0.61520101741E+00  0.17298248749E+03  0.17309037602E+03  0.00000000000E+00 0. -1.
         11    1    1    2    0    0 -0.20910922503E+01  0.45220733143E+01 -0.17596033199E+03  0.17603085027E+03  0.00000000000E+00 0.  1.
        -15    1    1    2    0    0 -0.73465570495E+01  0.47574777676E+00 -0.24248497680E+01  0.79520979513E+01  0.17770000000E+01 0.  1.
         15    1    1    2    0    0  0.33582726918E+01 -0.43826200736E+01  0.54026942657E+01  0.79266757541E+01  0.17770000000E+01 0. -1.
</event>
<event>
 6    1  0.8353910E-003  0.1842250E+03  0.7546771E-02  0.1067090E+00
        -11   -1    0    0    0    0  0.00000000000E+00  0.00000000000E+00  0.18250000000E+03  0.18250000000E+03  0.00000000000E+00 0. -1.
         11   -1    0    0    0    0 -0.00000000000E+00 -0.00000000000E+00 -0.18250000000E+03  0.18250000000E+03  0.00000000000E+00 0. -1.
        -11    1    1    2    0    0  0.67695147487E+01  0.44751955686E+01  0.13770647872E+03  0.13794538045E+03  0.00000000000E+00 0. -1.
         11    1    1    2    0    0 -0.15581089166E+01 -0.58360372667E+01 -0.18067404037E+03  0.18077498693E+03  0.00000000000E+00 0. -1.
        -15    1    1    2    0    0 -0.16756114518E+00 -0.14105026765E+01  0.39001895960E+02  0.39068186700E+02  0.17770000000E+01 0. -1.
         15    1    1    2    0    0 -0.50438446870E+01  0.27713443747E+01  0.39656656906E+01  0.72114459188E+01  0.17770000000E+01 0.  1.
</event>
<event>
 6    1  0.8353910E-003  0.1835011E+03  0.7546771E-02  0.1067661E+00
        -11   -1    0    0    0    0  0.00000000000E+00  0.00000000000E+00  0.18250000000E+03  0.18250000000E+03  0.00000000000E+00 0.  1.
         11   -1    0    0    0    0 -0.00000000000E+00 -0.00000000000E+00 -0.18250000000E+03  0.18250000000E+03  0.00000000000E+00 0. -1.
        -11    1    1    2    0    0 -0.32065943625E+00 -0.33528624654E+01  0.18146765673E+03  0.18149891170E+03  0.00000000000E+00 0.  1.
         11    1    1    2    0    0 -0.34109408328E+01 -0.30481886164E+01 -0.10423071066E+03  0.10433104531E+03  0.00000000000E+00 0. -1.
        -15    1    1    2    0    0 -0.35613154712E+01  0.19815870802E+01 -0.63607122197E+01  0.77605440649E+01  0.17770000000E+01 0.  1.
         15    1    1    2    0    0  0.72929157403E+01  0.44194640016E+01 -0.70876233856E+02  0.71409498925E+02  0.17770000000E+01 0. -1.
</event>
<event>
 6    1  0.8353910E-003  0.1924688E+03  0.7546771E-02  0.1060785E+00
        -11   -1    0    0    0    0  0.00000000000E+00  0.00000000000E+00  0.18250000000E+03  0.18250000000E+03  0.00000000000E+00 0. -1.
         11   -1    0    0    0    0 -0.00000000000E+00 -0.00000000000E+00 -0.18250000000E+03  0.18250000000E+03  0.00000000000E+00 0. -1.
        -11    1    1    2    0    0 -0.42487270873E+01  0.24632334302E+01  0.17246125452E+03  0.17253116678E+03  0.00000000000E+00 0. -1.
         11    1    1    2    0    0  0.24888342669E+02  0.11333651991E+02 -0.12550041177E+03  0.12844545388E+03  0.00000000000E+00 0. -1.
        -15    1    1    2    0    0 -0.18262161034E+02 -0.40901777636E+00 -0.38076803067E+01  0.18743798427E+02  0.17770000000E+01 0.  1.
         15    1    1    2    0    0 -0.23774545473E+01 -0.13387867645E+02 -0.43153162441E+02  0.45279580915E+02  0.17770000000E+01 0. -1.
</event>
<event>
 6    1  0.8353910E-003  0.1842465E+03  0.7546771E-02  0.1067073E+00
        -11   -1    0    0    0    0  0.00000000000E+00  0.00000000000E+00  0.18250000000E+03  0.18250000000E+03  0.00000000000E+00 0. -1.
         11   -1    0    0    0    0 -0.00000000000E+00 -0.00000000000E+00 -0.18250000000E+03  0.18250000000E+03  0.00000000000E+00 0.  1.
        -11    1    1    2    0    0 -0.58764031567E+01 -0.81913166036E+01  0.12855651220E+03  0.12895117917E+03  0.00000000000E+00 0. -1.
         11    1    1    2    0    0  0.89023674449E+00 -0.59402616315E+01 -0.18065366417E+03  0.18075349404E+03  0.00000000000E+00 0.  1.
        -15    1    1    2    0    0  0.27711168069E+01  0.64508283748E+00  0.37935623418E+01  0.50639968865E+01  0.17770000000E+01 0. -1.
         15    1    1    2    0    0  0.22150496052E+01  0.13486495398E+02  0.48303589634E+02  0.50231329899E+02  0.17770000000E+01 0.  1.
</event>
<event>
 6    1  0.8353910E-003  0.1872483E+03  0.7546771E-02  0.1064737E+00
        -11   -1    0    0    0    0  0.00000000000E+00  0.00000000000E+00  0.18250000000E+03  0.18250000000E+03  0.00000000000E+00 0. -1.
         11   -1    0    0    0    0 -0.00000000000E+00 -0.00000000000E+00 -0.18250000000E+03  0.18250000000E+03  0.00000000000E+00 0. -1.
        -11    1    1    2    0    0  0.41513969859E+01 -0.28051877957E+01  0.17768102788E+03  0.17775165497E+03  0.00000000000E+00 0. -1.
         11    1    1    2    0    0  0.36811125029E+01 -0.12321461682E+01 -0.17192499232E+03  0.17196881042E+03  0.00000000000E+00 0. -1.
        -15    1    1    2    0    0 -0.39504881940E+00 -0.19126263926E+01 -0.48832001124E+01  0.55513579983E+01  0.17770000000E+01 0. -1.
         15    1    1    2    0    0 -0.74374606694E+01  0.59499603565E+01 -0.87283545175E+00  0.97281766112E+01  0.17770000000E+01 0.  1.
</event>
<event>
 6    1  0.8353910E-003  0.1825838E+03  0.7546771E-02  0.1068388E+00
        -11   -1    0    0    0    0  0.00000000000E+00  0.00000000000E+00  0.18250000000E+03  0.18250000000E+03  0.00000000000E+00 0. -1.
         11   -1    0    0    0    0 -0.00000000000E+00 -0.00000000000E+00 -0.18250000000E+03  0.18250000000E+03  0.00000000000E+00 0.  1.
        -11    1    1    2    0    0 -0.12155770200E+01 -0.25953324039E+00  0.52577632637E+02  0.52592323002E+02  0.00000000000E+00 0. -1.
         11    1    1    2    0    0  0.23780199445E+01 -0.37416338727E+01 -0.18236232709E+03  0.18241620856E+03  0.00000000000E+00 0.  1.
        -15    1    1    2    0    0 -0.20319108341E+01  0.15737749817E+01  0.30982121120E+02  0.31139283669E+02  0.17770000000E+01 0. -1.
         15    1    1    2    0    0  0.86946790953E+00  0.24273921313E+01  0.98802573335E+02  0.98852184769E+02  0.17770000000E+01 0. -1.
</event>
<event>
 6    1  0.8353910E-003  0.1835749E+03  0.7546771E-02  0.1067602E+00
        -11   -1    0    0    0    0  0.00000000000E+00  0.00000000000E+00  0.18250000000E+03  0.18250000000E+03  0.00000000000E+00 0.  1.
         11   -1    0    0    0    0 -0.00000000000E+00 -0.00000000000E+00 -0.18250000000E+03  0.18250000000E+03  0.00000000000E+00 0. -1.
        -11    1    1    2    0    0 -0.33425788002E+01 -0.17601530131E+00  0.16921669749E+03  0.16924979918E+03  0.00000000000E+00 0.  1.
         11    1    1    2    0    0  0.14344235906E+01 -0.24090187109E+01 -0.18140342069E+03  0.18142508642E+03  0.00000000000E+00 0. -1.
        -15    1    1    2    0    0  0.34443026091E+01 -0.20426449139E+00  0.64392458070E+01  0.75184147271E+01  0.17770000000E+01 0.  1.
         15    1    1    2    0    0 -0.15361473996E+01  0.27892985036E+01  0.57474773975E+01  0.68066996709E+01  0.17770000000E+01 0.  1.
</event>
<event>
 6    1  0.8353910E-003  0.1846987E+03  0.7546771E-02  0.1066718E+00
        -11   -1    0    0    0    0  0.00000000000E+00  0.00000000000E+00  0.18250000000E+03  0.18250000000E+03  0.00000000000E+00 0.  1.
         11   -1    0    0    0    0 -0.00000000000E+00 -0.00000000000E+00 -0.18250000000E+03  0.18250000000E+03  0.00000000000E+00 0. -1.
        -11    1    1    2    0    0 -0.51973336932E+01  0.21700743378E+01  0.17036058360E+03  0.17045365923E+03  0.00000000000E+00 0.  1.
         11    1    1    2    0    0  0.26479919469E+01  0.22077070809E+00 -0.18028175842E+03  0.18030133949E+03  0.00000000000E+00 0. -1.
        -15    1    1    2    0    0  0.54235961182E-01  0.24483146225E+01  0.28992374481E+00  0.30395675363E+01  0.17770000000E+01 0.  1.
         15    1    1    2    0    0  0.24951057851E+01 -0.48391596684E+01  0.96312510790E+01  0.11205433750E+02  0.17770000000E+01 0.  1.
</event>
<event>
 6    1  0.8353910E-003  0.1862133E+03  0.7546771E-02  0.1065537E+00
        -11   -1    0    0    0    0  0.00000000000E+00  0.00000000000E+00  0.18250000000E+03  0.18250000000E+03  0.00000000000E+00 0. -1.
         11   -1    0    0    0    0 -0.00000000000E+00 -0.00000000000E+00 -0.18250000000E+03  0.18250000000E+03  0.00000000000E+00 0.  1.
        -11    1    1    2    0    0  0.32070693335E+01  0.41222481234E+00  0.17875747550E+03  0.17878671726E+03  0.00000000000E+00 0. -1.
         11    1    1    2    0    0 -0.42661484028E+00 -0.35599352165E+01 -0.17352224091E+03  0.17355927872E+03  0.00000000000E+00 0.  1.
        -15    1    1    2    0    0 -0.25634117604E+01 -0.30227530023E+01  0.35710724394E-01  0.43436297980E+01  0.17770000000E+01 0. -1.
         15    1    1    2    0    0 -0.21704273284E+00  0.61704634064E+01 -0.52709453091E+01  0.83103742183E+01  0.17770000000E+01 0.  1.
</event>
<event>
 6    1  0.8353910E-003  0.1859687E+03  0.7546771E-02  0.1065727E+00
        -11   -1    0    0    0    0  0.00000000000E+00  0.00000000000E+00  0.18250000000E+03  0.18250000000E+03  0.00000000000E+00 0.  1.
         11   -1    0    0    0    0 -0.00000000000E+00 -0.00000000000E+00 -0.18250000000E+03  0.18250000000E+03  0.00000000000E+00 0. -1.
        -11    1    1    2    0    0  0.15363758357E+01  0.38722651281E+01  0.17898283395E+03  0.17903130938E+03  0.00000000000E+00 0.  1.
         11    1    1    2    0    0 -0.64731739206E+00 -0.23546608697E+01 -0.16023666080E+03  0.16025526797E+03  0.00000000000E+00 0. -1.
        -15    1    1    2    0    0 -0.63768951077E+01 -0.21938869998E+01 -0.10052272904E+01  0.70460018654E+01  0.17770000000E+01 0. -1.
         15    1    1    2    0    0  0.54878366640E+01  0.67628274139E+00 -0.17740945864E+02  0.18667420785E+02  0.17770000000E+01 0.  1.
</event>
<event>
 6    1  0.8353910E-003  0.1730358E+03  0.7546771E-02  0.1076248E+00
        -11   -1    0    0    0    0  0.00000000000E+00  0.00000000000E+00  0.18250000000E+03  0.18250000000E+03  0.00000000000E+00 0.  1.
         11   -1    0    0    0    0 -0.00000000000E+00 -0.00000000000E+00 -0.18250000000E+03  0.18250000000E+03  0.00000000000E+00 0.  1.
        -11    1    1    2    0    0  0.13728597569E+00 -0.12756487104E+01  0.37545055722E+02  0.37566971348E+02  0.00000000000E+00 0.  1.
         11    1    1    2    0    0  0.24253260851E+01  0.38506608198E+00 -0.17079695177E+03  0.17081460481E+03  0.00000000000E+00 0.  1.
        -15    1    1    2    0    0  0.39093782996E+02  0.68844126399E+01  0.72803528527E+02  0.82941126718E+02  0.17770000000E+01 0.  1.
         15    1    1    2    0    0 -0.41656395056E+02 -0.59938300115E+01  0.60448367518E+02  0.73677297126E+02  0.17770000000E+01 0. -1.
</event>
<event>
 6    1  0.8353910E-003  0.1866014E+03  0.7546771E-02  0.1065236E+00
        -11   -1    0    0    0    0  0.00000000000E+00  0.00000000000E+00  0.18250000000E+03  0.18250000000E+03  0.00000000000E+00 0.  1.
         11   -1    0    0    0    0 -0.00000000000E+00 -0.00000000000E+00 -0.18250000000E+03  0.18250000000E+03  0.00000000000E+00 0. -1.
        -11    1    1    2    0    0 -0.13573961536E+02 -0.46219441899E+01  0.17782135428E+03  0.17839856737E+03  0.00000000000E+00 0.  1.
         11    1    1    2    0    0 -0.21027453047E+01  0.23173453468E+01 -0.15258007812E+03  0.15261216159E+03  0.00000000000E+00 0. -1.
        -15    1    1    2    0    0  0.10882004681E+02  0.90094293659E+01 -0.14352646272E+02  0.20217418910E+02  0.17770000000E+01 0.  1.
         15    1    1    2    0    0  0.47947021596E+01 -0.67048305227E+01 -0.10888629896E+02  0.13771852132E+02  0.17770000000E+01 0. -1.
</event>
<event>
 6    1  0.8353910E-003  0.1877478E+03  0.7546771E-02  0.1064353E+00
        -11   -1    0    0    0    0  0.00000000000E+00  0.00000000000E+00  0.18250000000E+03  0.18250000000E+03  0.00000000000E+00 0. -1.
         11   -1    0    0    0    0 -0.00000000000E+00 -0.00000000000E+00 -0.18250000000E+03  0.18250000000E+03  0.00000000000E+00 0.  1.
        -11    1    1    2    0    0 -0.92163751345E+00 -0.28076411550E+01  0.17722757008E+03  0.17725220411E+03  0.00000000000E+00 0. -1.
         11    1    1    2    0    0  0.36120755950E+01  0.10783674863E+01 -0.17426831563E+03  0.17430908123E+03  0.00000000000E+00 0.  1.
        -15    1    1    2    0    0 -0.25745595404E+01 -0.25836609639E+00 -0.75232159512E+01  0.81517861304E+01  0.17770000000E+01 0.  1.
         15    1    1    2    0    0 -0.11587854120E+00  0.19876397651E+01  0.45639614998E+01  0.52869285265E+01  0.17770000000E+01 0. -1.
</event>
<event>
 6    1  0.8353910E-003  0.1926555E+03  0.7546771E-02  0.1060647E+00
        -11   -1    0    0    0    0  0.00000000000E+00  0.00000000000E+00  0.18250000000E+03  0.18250000000E+03  0.00000000000E+00 0.  1.
         11   -1    0    0    0    0 -0.00000000000E+00 -0.00000000000E+00 -0.18250000000E+03  0.18250000000E+03  0.00000000000E+00 0.  1.
        -11    1    1    2    0    0 -0.12953663087E+02  0.80096442529E+01  0.51741547568E+02  0.53936439753E+02  0.00000000000E+00 0.  1.
         11    1    1    2    0    0 -0.10941292267E+02  0.21905447265E-01 -0.17199682247E+03  0.17234447857E+03  0.00000000000E+00 0.  1.
        -15    1    1    2    0    0  0.31938519348E+02 -0.13257266742E+02  0.24378486003E+02  0.42347283838E+02  0.17770000000E+01 0.  1.
         15    1    1    2    0    0 -0.80435639937E+01  0.52257170419E+01  0.95876788895E+02  0.96371797836E+02  0.17770000000E+01 0. -1.
</event>
<event>
 6    1  0.8353910E-003  0.2078923E+03  0.7546771E-02  0.1049867E+00
        -11   -1    0    0    0    0  0.00000000000E+00  0.00000000000E+00  0.18250000000E+03  0.18250000000E+03  0.00000000000E+00 0.  1.
         11   -1    0    0    0    0 -0.00000000000E+00 -0.00000000000E+00 -0.18250000000E+03  0.18250000000E+03  0.00000000000E+00 0.  1.
        -11    1    1    2    0    0 -0.35243838128E+01  0.30041962721E+01  0.12527710938E+03  0.12536267631E+03  0.00000000000E+00 0.  1.
         11    1    1    2    0    0  0.42769790245E+01  0.16552372756E+01 -0.15704079085E+03  0.15710774122E+03  0.00000000000E+00 0.  1.
        -15    1    1    2    0    0  0.78855002124E+01 -0.62190957463E+01  0.55880494861E+02  0.56803571194E+02  0.17770000000E+01 0.  1.
         15    1    1    2    0    0 -0.86380954241E+01  0.15596621986E+01 -0.24116813394E+02  0.25726011273E+02  0.17770000000E+01 0. -1.
</event>
<event>
 6    1  0.8353910E-003  0.1850845E+03  0.7546771E-02  0.1066416E+00
        -11   -1    0    0    0    0  0.00000000000E+00  0.00000000000E+00  0.18250000000E+03  0.18250000000E+03  0.00000000000E+00 0. -1.
         11   -1    0    0    0    0 -0.00000000000E+00 -0.00000000000E+00 -0.18250000000E+03  0.18250000000E+03  0.00000000000E+00 0.  1.
        -11    1    1    2    0    0 -0.26334191728E+01 -0.19144513823E+01  0.15038423531E+03  0.15041947430E+03  0.00000000000E+00 0. -1.
         11    1    1    2    0    0 -0.27963457950E+01 -0.12620751753E+01 -0.17988933272E+03  0.17991549241E+03  0.00000000000E+00 0.  1.
        -15    1    1    2    0    0  0.68825272746E+00  0.17519320377E+01 -0.16495276955E+01  0.30694671036E+01  0.17770000000E+01 0. -1.
         15    1    1    2    0    0  0.47415122404E+01  0.14245945199E+01  0.31154625105E+02  0.31595566181E+02  0.17770000000E+01 0. -1.
</event>
<event>
 6    1  0.8353910E-003  0.1749520E+03  0.7546771E-02  0.1074627E+00
        -11   -1    0    0    0    0  0.00000000000E+00  0.00000000000E+00  0.18250000000E+03  0.18250000000E+03  0.00000000000E+00 0. -1.
         11   -1    0    0    0    0 -0.00000000000E+00 -0.00000000000E+00 -0.18250000000E+03  0.18250000000E+03  0.00000000000E+00 0.  1.
        -11    1    1    2    0    0  0.46222605464E+01 -0.13925296081E+01  0.17677269774E+03  0.17683860183E+03  0.00000000000E+00 0. -1.
         11    1    1    2    0    0  0.15724471751E+01 -0.20404436689E+01 -0.17313688338E+03  0.17315604635E+03  0.00000000000E+00 0.  1.
        -15    1    1    2    0    0 -0.77019294584E+01  0.55076999494E+01  0.70496878589E+00  0.96596680121E+01  0.17770000000E+01 0. -1.
         15    1    1    2    0    0  0.15072217369E+01 -0.20747266723E+01 -0.43407831405E+01  0.53456838105E+01  0.17770000000E+01 0. -1.
</event>
<event>
 6    1  0.8353910E-003  0.1840585E+03  0.7546771E-02  0.1067221E+00
        -11   -1    0    0    0    0  0.00000000000E+00  0.00000000000E+00  0.18250000000E+03  0.18250000000E+03  0.00000000000E+00 0.  1.
         11   -1    0    0    0    0 -0.00000000000E+00 -0.00000000000E+00 -0.18250000000E+03  0.18250000000E+03  0.00000000000E+00 0. -1.
        -11    1    1    2    0    0 -0.30844629707E+01 -0.85983695564E+00  0.17442032811E+03  0.17444971794E+03  0.00000000000E+00 0.  1.
         11    1    1    2    0    0  0.76879274722E+00 -0.33259143150E+01 -0.18090930773E+03  0.18094151091E+03  0.00000000000E+00 0. -1.
        -15    1    1    2    0    0  0.30795612648E+01  0.36076470414E+01  0.45186321118E+01  0.67878258611E+01  0.17770000000E+01 0. -1.
         15    1    1    2    0    0 -0.76389104129E+00  0.57810422928E+00  0.19703475026E+01  0.28209452855E+01  0.17770000000E+01 0.  1.
</event>
<event>
 6    1  0.8353910E-003  0.1849131E+03  0.7546771E-02  0.1066550E+00
        -11   -1    0    0    0    0  0.00000000000E+00  0.00000000000E+00  0.18250000000E+03  0.18250000000E+03  0.00000000000E+00 0. -1.
         11   -1    0    0    0    0 -0.00000000000E+00 -0.00000000000E+00 -0.18250000000E+03  0.18250000000E+03  0.00000000000E+00 0.  1.
        -11    1    1    2    0    0  0.21841753154E-01  0.24400711611E+01  0.17357457944E+03  0.17359173095E+03  0.00000000000E+00 0. -1.
         11    1    1    2    0    0 -0.20832873213E+01 -0.13039603146E+01 -0.18007016931E+03  0.18008694088E+03  0.00000000000E+00 0.  1.
        -15    1    1    2    0    0 -0.20397020011E+01  0.12891986440E+01  0.53139056189E+01  0.61006343378E+01  0.17770000000E+01 0.  1.
         15    1    1    2    0    0  0.41011475692E+01 -0.24253094905E+01  0.11816842494E+01  0.52206938403E+01  0.17770000000E+01 0. -1.
</event>
<event>
 6    1  0.8353910E-003  0.1841120E+03  0.7546771E-02  0.1067179E+00
        -11   -1    0    0    0    0  0.00000000000E+00  0.00000000000E+00  0.18250000000E+03  0.18250000000E+03  0.00000000000E+00 0.  1.
         11   -1    0    0    0    0 -0.00000000000E+00 -0.00000000000E+00 -0.18250000000E+03  0.18250000000E+03  0.00000000000E+00 0.  1.
        -11    1    1    2    0    0  0.55956223386E+01 -0.10340200636E+02  0.12471479826E+03  0.12526775980E+03  0.00000000000E+00 0.  1.
         11    1    1    2    0    0 -0.11544511129E+02  0.99351169923E+00 -0.18051652523E+03  0.18088802803E+03  0.00000000000E+00 0.  1.
        -15    1    1    2    0    0  0.35354505627E+00  0.37528464257E+01  0.45703586170E+02  0.45893184333E+02  0.17770000000E+01 0.  1.
         15    1    1    2    0    0  0.55953437346E+01  0.55938425114E+01  0.10098140800E+02  0.12951027842E+02  0.17770000000E+01 0. -1.
</event>
<event>
 6    1  0.8353910E-003  0.1846037E+03  0.7546771E-02  0.1066792E+00
        -11   -1    0    0    0    0  0.00000000000E+00  0.00000000000E+00  0.18250000000E+03  0.18250000000E+03  0.00000000000E+00 0. -1.
         11   -1    0    0    0    0 -0.00000000000E+00 -0.00000000000E+00 -0.18250000000E+03  0.18250000000E+03  0.00000000000E+00 0. -1.
        -11    1    1    2    0    0 -0.32703653157E+01 -0.16673374303E+01  0.18035895835E+03  0.18039631138E+03  0.00000000000E+00 0. -1.
         11    1    1    2    0    0 -0.26911912524E+01  0.17178119249E+01 -0.16259002727E+03  0.16262137115E+03  0.00000000000E+00 0. -1.
        -15    1    1    2    0    0  0.22878441800E+01  0.18536711464E+01 -0.17084599499E+02  0.17427323281E+02  0.17770000000E+01 0.  1.
         15    1    1    2    0    0  0.36737123881E+01 -0.19041456410E+01 -0.68433157548E+00  0.45549941863E+01  0.17770000000E+01 0. -1.
</event>
<event>
 6    1  0.8353910E-003  0.1838740E+03  0.7546771E-02  0.1067366E+00
        -11   -1    0    0    0    0  0.00000000000E+00  0.00000000000E+00  0.18250000000E+03  0.18250000000E+03  0.00000000000E+00 0.  1.
         11   -1    0    0    0    0 -0.00000000000E+00 -0.00000000000E+00 -0.18250000000E+03  0.18250000000E+03  0.00000000000E+00 0.  1.
        -11    1    1    2    0    0  0.19690745576E+01 -0.12282753803E+01  0.16454333223E+03  0.16455969767E+03  0.00000000000E+00 0.  1.
         11    1    1    2    0    0  0.49873282222E+01 -0.24750978224E+01 -0.18104037095E+03  0.18112596574E+03  0.00000000000E+00 0.  1.
        -15    1    1    2    0    0 -0.11005149495E+01  0.30392756418E+00  0.81555730745E+01  0.84246427991E+01  0.17770000000E+01 0. -1.
         15    1    1    2    0    0 -0.58558878303E+01  0.33994456385E+01  0.83414656370E+01  0.10889693793E+02  0.17770000000E+01 0. -1.
</event>
<event>
 6    1  0.8353910E-003  0.1862165E+03  0.7546771E-02  0.1065534E+00
        -11   -1    0    0    0    0  0.00000000000E+00  0.00000000000E+00  0.18250000000E+03  0.18250000000E+03  0.00000000000E+00 0. -1.
         11   -1    0    0    0    0 -0.00000000000E+00 -0.00000000000E+00 -0.18250000000E+03  0.18250000000E+03  0.00000000000E+00 0.  1.
        -11    1    1    2    0    0  0.14655852695E+01 -0.35176700659E+01  0.17874290094E+03  0.17878351876E+03  0.00000000000E+00 0. -1.
         11    1    1    2    0    0 -0.32796529241E+01  0.78029034537E+01 -0.16954002270E+03  0.16975117296E+03  0.00000000000E+00 0.  1.
        -15    1    1    2    0    0  0.58053656501E+01 -0.57332682492E+01 -0.83022585560E+01  0.11775307269E+02  0.17770000000E+01 0. -1.
         15    1    1    2    0    0 -0.39912979956E+01  0.14480348614E+01 -0.90061968331E+00  0.46900010089E+01  0.17770000000E+01 0.  1.
</event>
<event>
 6    1  0.8353910E-003  0.2097431E+03  0.7546771E-02  0.1048626E+00
        -11   -1    0    0    0    0  0.00000000000E+00  0.00000000000E+00  0.18250000000E+03  0.18250000000E+03  0.00000000000E+00 0.  1.
         11   -1    0    0    0    0 -0.00000000000E+00 -0.00000000000E+00 -0.18250000000E+03  0.18250000000E+03  0.00000000000E+00 0.  1.
        -11    1    1    2    0    0  0.75060554862E+00 -0.16894816351E+02  0.15433310262E+03  0.15525689934E+03  0.00000000000E+00 0.  1.
         11    1    1    2    0    0 -0.17052653608E+01  0.76698347533E+00 -0.11435618620E+03  0.11437147160E+03  0.00000000000E+00 0.  1.
        -15    1    1    2    0    0 -0.30323860666E+02  0.54972998067E+01  0.12526626314E+02  0.33314125033E+02  0.17770000000E+01 0.  1.
         15    1    1    2    0    0  0.31278520479E+02  0.10630533069E+02 -0.52503542741E+02  0.62057504027E+02  0.17770000000E+01 0. -1.
</event>
<event>
 6    1  0.8353910E-003  0.1880689E+03  0.7546771E-02  0.1064106E+00
        -11   -1    0    0    0    0  0.00000000000E+00  0.00000000000E+00  0.18250000000E+03  0.18250000000E+03  0.00000000000E+00 0.  1.
         11   -1    0    0    0    0 -0.00000000000E+00 -0.00000000000E+00 -0.18250000000E+03  0.18250000000E+03  0.00000000000E+00 0. -1.
        -11    1    1    2    0    0  0.22545547875E+01 -0.80675880393E+01  0.17673267400E+03  0.17693107995E+03  0.00000000000E+00 0.  1.
         11    1    1    2    0    0  0.42013120567E+01  0.10651712688E+01 -0.15616824146E+03  0.15622837532E+03  0.00000000000E+00 0. -1.
        -15    1    1    2    0    0 -0.25976508224E+01  0.12232498612E+02 -0.21601668134E+02  0.25023421174E+02  0.17770000000E+01 0.  1.
         15    1    1    2    0    0 -0.38582160218E+01 -0.52300818413E+01  0.10372355950E+01  0.68171235589E+01  0.17770000000E+01 0. -1.
</event>
<event>
 6    1  0.8353910E-003  0.1748833E+03  0.7546771E-02  0.1074685E+00
        -11   -1    0    0    0    0  0.00000000000E+00  0.00000000000E+00  0.18250000000E+03  0.18250000000E+03  0.00000000000E+00 0. -1.
         11   -1    0    0    0    0 -0.00000000000E+00 -0.00000000000E+00 -0.18250000000E+03  0.18250000000E+03  0.00000000000E+00 0.  1.
        -11    1    1    2    0    0  0.48782878444E+00 -0.11098624898E+00  0.24625070200E+02  0.24630151791E+02  0.00000000000E+00 0. -1.
         11    1    1    2    0    0  0.28240550151E+02 -0.16907815862E+02 -0.17358183943E+03  0.17667500641E+03  0.00000000000E+00 0.  1.
        -15    1    1    2    0    0 -0.31695722306E+02  0.20700918485E+02  0.41814927712E+02  0.56433968026E+02  0.17770000000E+01 0.  1.
         15    1    1    2    0    0  0.29673433703E+01 -0.36821163740E+01  0.10714184152E+03  0.10726087377E+03  0.17770000000E+01 0. -1.
</event>
<event>
 6    1  0.8353910E-003  0.1846526E+03  0.7546771E-02  0.1066754E+00
        -11   -1    0    0    0    0  0.00000000000E+00  0.00000000000E+00  0.18250000000E+03  0.18250000000E+03  0.00000000000E+00 0. -1.
         11   -1    0    0    0    0 -0.00000000000E+00 -0.00000000000E+00 -0.18250000000E+03  0.18250000000E+03  0.00000000000E+00 0. -1.
        -11    1    1    2    0    0  0.18710406782E+00 -0.28673528811E+01  0.18032447280E+03  0.18034736541E+03  0.00000000000E+00 0. -1.
         11    1    1    2    0    0 -0.39251592396E+01  0.14703011512E+01 -0.16959591152E+03  0.16964769926E+03  0.00000000000E+00 0. -1.
        -15    1    1    2    0    0 -0.82650318825E+00 -0.54722458708E+00  0.90986850784E+00  0.22289351652E+01  0.17770000000E+01 0.  1.
         15    1    1    2    0    0  0.45645583601E+01  0.19442763171E+01 -0.11638429782E+02  0.12776000165E+02  0.17770000000E+01 0.  1.
</event>
<event>
 6    1  0.8353910E-003  0.1914951E+03  0.7546771E-02  0.1061512E+00
        -11   -1    0    0    0    0  0.00000000000E+00  0.00000000000E+00  0.18250000000E+03  0.18250000000E+03  0.00000000000E+00 0. -1.
         11   -1    0    0    0    0 -0.00000000000E+00 -0.00000000000E+00 -0.18250000000E+03  0.18250000000E+03  0.00000000000E+00 0.  1.
        -11    1    1    2    0    0 -0.19311911857E+01 -0.88759103283E+00  0.14193380146E+03  0.14194971403E+03  0.00000000000E+00 0. -1.
         11    1    1    2    0    0 -0.28205236536E+02  0.21229490945E+01 -0.17118387672E+03  0.17350493345E+03  0.00000000000E+00 0.  1.
        -15    1    1    2    0    0  0.25424429824E+02  0.72963091214E+01  0.10844034557E+02  0.28642426105E+02  0.17770000000E+01 0.  1.
         15    1    1    2    0    0  0.47119978977E+01 -0.85316671830E+01  0.18406040708E+02  0.20902926414E+02  0.17770000000E+01 0. -1.
</event>
<event>
 6    1  0.8353910E-003  0.1858985E+03  0.7546771E-02  0.1065781E+00
        -11   -1    0    0    0    0  0.00000000000E+00  0.00000000000E+00  0.18250000000E+03  0.18250000000E+03  0.00000000000E+00 0.  1.
         11   -1    0    0    0    0 -0.00000000000E+00 -0.00000000000E+00 -0.18250000000E+03  0.18250000000E+03  0.00000000000E+00 0. -1.
        -11    1    1    2    0    0  0.25257784707E+01 -0.81734819398E-01  0.17584569545E+03  0.17586385315E+03  0.00000000000E+00 0.  1.
         11    1    1    2    0    0  0.24910634181E+01  0.20062265866E+01 -0.17907291331E+03  0.17910147577E+03  0.00000000000E+00 0. -1.
        -15    1    1    2    0    0 -0.63801966697E+00  0.67586208511E+00 -0.17751680650E+01  0.26782100949E+01  0.17770000000E+01 0. -1.
         15    1    1    2    0    0 -0.43788222218E+01 -0.26003538523E+01  0.50023859269E+01  0.73564609813E+01  0.17770000000E+01 0.  1.
</event>
<event>
 6    1  0.8353910E-003  0.1080923E+03  0.7546771E-02  0.1150511E+00
        -11   -1    0    0    0    0  0.00000000000E+00  0.00000000000E+00  0.18250000000E+03  0.18250000000E+03  0.00000000000E+00 0.  1.
         11   -1    0    0    0    0 -0.00000000000E+00 -0.00000000000E+00 -0.18250000000E+03  0.18250000000E+03  0.00000000000E+00 0. -1.
        -11    1    1    2    0    0 -0.12083888892E+02 -0.21865230282E+02  0.58681372973E+02  0.63777834708E+02  0.00000000000E+00 0.  1.
         11    1    1    2    0    0 -0.25944972053E+02 -0.18361712679E+02 -0.92903680104E+02  0.98190569019E+02  0.00000000000E+00 0. -1.
        -15    1    1    2    0    0  0.23979845666E+02  0.21152837003E+02  0.11471758900E+03  0.11910398174E+03  0.17770000000E+01 0.  1.
         15    1    1    2    0    0  0.14049015280E+02  0.19074105958E+02 -0.80495281871E+02  0.83927614531E+02  0.17770000000E+01 0. -1.
</event>
<event>
 6    1  0.8353910E-003  0.1868748E+03  0.7546771E-02  0.1065025E+00
        -11   -1    0    0    0    0  0.00000000000E+00  0.00000000000E+00  0.18250000000E+03  0.18250000000E+03  0.00000000000E+00 0. -1.
         11   -1    0    0    0    0 -0.00000000000E+00 -0.00000000000E+00 -0.18250000000E+03  0.18250000000E+03  0.00000000000E+00 0. -1.
        -11    1    1    2    0    0  0.35032702538E+01  0.29128717953E+01  0.15575117488E+03  0.15581779809E+03  0.00000000000E+00 0. -1.
         11    1    1    2    0    0  0.70251035612E+01  0.26522059991E+01 -0.17796685350E+03  0.17812520097E+03  0.00000000000E+00 0. -1.
        -15    1    1    2    0    0 -0.57314732119E+01 -0.47435911867E+01 -0.58844550701E+00  0.76717298988E+01  0.17770000000E+01 0. -1.
         15    1    1    2    0    0 -0.47969006032E+01 -0.82148660767E+00  0.22804124127E+02  0.23385271045E+02  0.17770000000E+01 0.  1.
</event>
<event>
 6    1  0.8353910E-003  0.1745100E+03  0.7546771E-02  0.1074999E+00
        -11   -1    0    0    0    0  0.00000000000E+00  0.00000000000E+00  0.18250000000E+03  0.18250000000E+03  0.00000000000E+00 0.  1.
         11   -1    0    0    0    0 -0.00000000000E+00 -0.00000000000E+00 -0.18250000000E+03  0.18250000000E+03  0.00000000000E+00 0.  1.
        -11    1    1    2    0    0 -0.32003905678E+01  0.16165150155E+01  0.17353802203E+03  0.17357505785E+03  0.00000000000E+00 0.  1.
         11    1    1    2    0    0 -0.25647928128E+01 -0.23739129507E+01 -0.17546381417E+03  0.17549861455E+03  0.00000000000E+00 0.  1.
        -15    1    1    2    0    0 -0.35975330216E+01  0.10945111791E+01 -0.30621523560E+01  0.51647560072E+01  0.17770000000E+01 0.  1.
         15    1    1    2    0    0  0.93627164022E+01 -0.33711324383E+00  0.49879445014E+01  0.10761571591E+02  0.17770000000E+01 0. -1.
</event>
<event>
 6    1  0.8353910E-003  0.1844950E+03  0.7546771E-02  0.1066878E+00
        -11   -1    0    0    0    0  0.00000000000E+00  0.00000000000E+00  0.18250000000E+03  0.18250000000E+03  0.00000000000E+00 0. -1.
         11   -1    0    0    0    0 -0.00000000000E+00 -0.00000000000E+00 -0.18250000000E+03  0.18250000000E+03  0.00000000000E+00 0. -1.
        -11    1    1    2    0    0  0.60878500207E+01  0.40929437943E+01  0.18035584893E+03  0.18050497597E+03  0.00000000000E+00 0. -1.
         11    1    1    2    0    0 -0.25136696887E+01  0.12161122082E+01 -0.11062756522E+03  0.11066280156E+03  0.00000000000E+00 0. -1.
        -15    1    1    2    0    0 -0.77479926346E+01 -0.77612596646E+01 -0.14031294779E+02  0.17897024993E+02  0.17770000000E+01 0. -1.
         15    1    1    2    0    0  0.41738123026E+01  0.24522036622E+01 -0.55696988931E+02  0.55935197478E+02  0.17770000000E+01 0.  1.
</event>
<event>
 6    1  0.8353910E-003  0.1826768E+03  0.7546771E-02  0.1068314E+00
        -11   -1    0    0    0    0  0.00000000000E+00  0.00000000000E+00  0.18250000000E+03  0.18250000000E+03  0.00000000000E+00 0.  1.
         11   -1    0    0    0    0 -0.00000000000E+00 -0.00000000000E+00 -0.18250000000E+03  0.18250000000E+03  0.00000000000E+00 0.  1.
        -11    1    1    2    0    0  0.75589646892E+00 -0.20171850015E+01  0.10606500449E+03  0.10608687757E+03  0.00000000000E+00 0.  1.
         11    1    1    2    0    0  0.19964432486E+01 -0.28634244254E+01 -0.18228982023E+03  0.18232323918E+03  0.00000000000E+00 0.  1.
        -15    1    1    2    0    0  0.36487894424E+00  0.13200887660E+01  0.31635594825E+02  0.31715049423E+02  0.17770000000E+01 0. -1.
         15    1    1    2    0    0 -0.31172186618E+01  0.35605206609E+01  0.44589220916E+02  0.44874833821E+02  0.17770000000E+01 0.  1.
</event>
<event>
 6    1  0.8353910E-003  0.2356852E+03  0.7546771E-02  0.1032575E+00
        -11   -1    0    0    0    0  0.00000000000E+00  0.00000000000E+00  0.18250000000E+03  0.18250000000E+03  0.00000000000E+00 0. -1.
         11   -1    0    0    0    0 -0.00000000000E+00 -0.00000000000E+00 -0.18250000000E+03  0.18250000000E+03  0.00000000000E+00 0.  1.
        -11    1    1    2    0    0 -0.35277319422E+01 -0.14290851699E+01  0.12122446405E+03  0.12128420285E+03  0.00000000000E+00 0. -1.
         11    1    1    2    0    0 -0.54935014061E+01 -0.25521816358E+01 -0.12917287697E+03  0.12931482642E+03  0.00000000000E+00 0.  1.
        -15    1    1    2    0    0 -0.10234954490E+02 -0.16433852012E+02  0.55694065250E+02  0.58989934891E+02  0.17770000000E+01 0. -1.
         15    1    1    2    0    0  0.19256187838E+02  0.20415118818E+02 -0.47745652334E+02  0.55411035834E+02  0.17770000000E+01 0.  1.
</event>
<event>
 6    1  0.8353910E-003  0.1853000E+03  0.7546771E-02  0.1066248E+00
        -11   -1    0    0    0    0  0.00000000000E+00  0.00000000000E+00  0.18250000000E+03  0.18250000000E+03  0.00000000000E+00 0. -1.
         11   -1    0    0    0    0 -0.00000000000E+00 -0.00000000000E+00 -0.18250000000E+03  0.18250000000E+03  0.00000000000E+00 0.  1.
        -11    1    1    2    0    0  0.45834437124E+00  0.26150848503E+01  0.17968038481E+03  0.17969999842E+03  0.00000000000E+00 0. -1.
         11    1    1    2    0    0 -0.23164573334E+01  0.58730013404E+01 -0.14101336601E+03  0.14115462271E+03  0.00000000000E+00 0.  1.
        -15    1    1    2    0    0  0.45182268708E+01 -0.48564586098E+01 -0.38701034145E+02  0.39305563693E+02  0.17770000000E+01 0.  1.
         15    1    1    2    0    0 -0.26601139086E+01 -0.36316275810E+01  0.34015342061E-01  0.48398151759E+01  0.17770000000E+01 0. -1.
</event>
<event>
 6    1  0.8353910E-003  0.1898395E+03  0.7546771E-02  0.1062758E+00
        -11   -1    0    0    0    0  0.00000000000E+00  0.00000000000E+00  0.18250000000E+03  0.18250000000E+03  0.00000000000E+00 0.  1.
         11   -1    0    0    0    0 -0.00000000000E+00 -0.00000000000E+00 -0.18250000000E+03  0.18250000000E+03  0.00000000000E+00 0.  1.
        -11    1    1    2    0    0  0.32764044216E+01  0.14288316221E+01  0.16367567021E+03  0.16371469514E+03  0.00000000000E+00 0.  1.
         11    1    1    2    0    0  0.28157613916E+00  0.27776054835E+01 -0.17513826982E+03  0.17516052047E+03  0.00000000000E+00 0.  1.
        -15    1    1    2    0    0  0.50811173369E+00 -0.74621165357E+00 -0.67628381349E+01  0.70504409795E+01  0.17770000000E+01 0. -1.
         15    1    1    2    0    0 -0.40660922945E+01 -0.34602254520E+01  0.18225437736E+02  0.19074343407E+02  0.17770000000E+01 0.  1.
</event>
<event>
 6    1  0.8353910E-003  0.1840689E+03  0.7546771E-02  0.1067213E+00
        -11   -1    0    0    0    0  0.00000000000E+00  0.00000000000E+00  0.18250000000E+03  0.18250000000E+03  0.00000000000E+00 0.  1.
         11   -1    0    0    0    0 -0.00000000000E+00 -0.00000000000E+00 -0.18250000000E+03  0.18250000000E+03  0.00000000000E+00 0. -1.
        -11    1    1    2    0    0 -0.40443597359E+01 -0.49830320162E+01  0.10001738162E+03  0.10022307159E+03  0.00000000000E+00 0.  1.
         11    1    1    2    0    0 -0.14725305400E+01 -0.42277909783E+01 -0.18087566404E+03  0.18093105981E+03  0.00000000000E+00 0. -1.
        -15    1    1    2    0    0  0.25738515308E+01 -0.14304620795E+01  0.15836547952E+01  0.37863735914E+01  0.17770000000E+01 0. -1.
         15    1    1    2    0    0  0.29430387451E+01  0.10641285074E+02  0.79274627629E+02  0.80059495001E+02  0.17770000000E+01 0.  1.
</event>
<event>
 6    1  0.8353910E-003  0.1865810E+03  0.7546771E-02  0.1065252E+00
        -11   -1    0    0    0    0  0.00000000000E+00  0.00000000000E+00  0.18250000000E+03  0.18250000000E+03  0.00000000000E+00 0.  1.
         11   -1    0    0    0    0 -0.00000000000E+00 -0.00000000000E+00 -0.18250000000E+03  0.18250000000E+03  0.00000000000E+00 0.  1.
        -11    1    1    2    0    0 -0.32276110587E+01 -0.24367014187E+02  0.17671773365E+03  0.17841896267E+03  0.00000000000E+00 0.  1.
         11    1    1    2    0    0 -0.97023899464E+01  0.26374841013E+01 -0.10814398542E+03  0.10861037830E+03  0.00000000000E+00 0.  1.
        -15    1    1    2    0    0  0.14483848414E+02  0.99492092480E+01 -0.15325148049E+02  0.23383466836E+02  0.17770000000E+01 0. -1.
         15    1    1    2    0    0 -0.15538474090E+01  0.11780320838E+02 -0.53248600184E+02  0.54587192191E+02  0.17770000000E+01 0.  1.
</event>
<event>
 6    1  0.8353910E-003  0.1848723E+03  0.7546771E-02  0.1066582E+00
        -11   -1    0    0    0    0  0.00000000000E+00  0.00000000000E+00  0.18250000000E+03  0.18250000000E+03  0.00000000000E+00 0.  1.
         11   -1    0    0    0    0 -0.00000000000E+00 -0.00000000000E+00 -0.18250000000E+03  0.18250000000E+03  0.00000000000E+00 0.  1.
        -11    1    1    2    0    0  0.16274747941E+01 -0.28386501654E+01  0.18009795873E+03  0.18012768068E+03  0.00000000000E+00 0.  1.
         11    1    1    2    0    0 -0.20833492818E+01 -0.18582297599E+01 -0.17415827359E+03  0.17418064652E+03  0.00000000000E+00 0.  1.
        -15    1    1    2    0    0 -0.33578381068E+00  0.20552899626E+01  0.10801978334E+01  0.29430467134E+01  0.17770000000E+01 0.  1.
         15    1    1    2    0    0  0.79165829837E+00  0.26415899628E+01 -0.70198829684E+01  0.77486260900E+01  0.17770000000E+01 0.  1.
</event>
<event>
 6    1  0.8353910E-003  0.1838633E+03  0.7546771E-02  0.1067375E+00
        -11   -1    0    0    0    0  0.00000000000E+00  0.00000000000E+00  0.18250000000E+03  0.18250000000E+03  0.00000000000E+00 0. -1.
         11   -1    0    0    0    0 -0.00000000000E+00 -0.00000000000E+00 -0.18250000000E+03  0.18250000000E+03  0.00000000000E+00 0.  1.
        -11    1    1    2    0    0  0.47601676811E+01  0.26643163573E+01  0.16907769544E+03  0.16916567286E+03  0.00000000000E+00 0. -1.
         11    1    1    2    0    0 -0.21158496434E+01 -0.24277881759E+01 -0.18110811200E+03  0.18113674173E+03  0.00000000000E+00 0.  1.
        -15    1    1    2    0    0 -0.43823244286E+01 -0.97654267369E+00  0.10793274780E+02  0.11824166460E+02  0.17770000000E+01 0.  1.
         15    1    1    2    0    0  0.17380063910E+01  0.74001449230E+00  0.12371417743E+01  0.28734189450E+01  0.17770000000E+01 0.  1.
</event>
<event>
 6    1  0.8353910E-003  0.1564612E+03  0.7546771E-02  0.1091306E+00
        -11   -1    0    0    0    0  0.00000000000E+00  0.00000000000E+00  0.18250000000E+03  0.18250000000E+03  0.00000000000E+00 0.  1.
         11   -1    0    0    0    0 -0.00000000000E+00 -0.00000000000E+00 -0.18250000000E+03  0.18250000000E+03  0.00000000000E+00 0. -1.
        -11    1    1    2    0    0  0.21901228311E+02 -0.10881342132E+02  0.15196383587E+03  0.15391905282E+03  0.00000000000E+00 0.  1.
         11    1    1    2    0    0 -0.52722014335E+01 -0.12330190337E+02 -0.15984047852E+03  0.16040202080E+03  0.00000000000E+00 0. -1.
        -15    1    1    2    0    0  0.91035507590E+01 -0.34978707899E+01 -0.53474001129E+01  0.11263310058E+02  0.17770000000E+01 0.  1.
         15    1    1    2    0    0 -0.25732577637E+02  0.26709403259E+02  0.13224042768E+02  0.39415616327E+02  0.17770000000E+01 0. -1.
</event>
<event>
 6    1  0.8353910E-003  0.1861032E+03  0.7546771E-02  0.1065622E+00
        -11   -1    0    0    0    0  0.00000000000E+00  0.00000000000E+00  0.18250000000E+03  0.18250000000E+03  0.00000000000E+00 0. -1.
         11   -1    0    0    0    0 -0.00000000000E+00 -0.00000000000E+00 -0.18250000000E+03  0.18250000000E+03  0.00000000000E+00 0. -1.
        -11    1    1    2    0    0  0.25552599059E+01 -0.76857517178E+01  0.14824152164E+03  0.14846261775E+03  0.00000000000E+00 0. -1.
         11    1    1    2    0    0  0.22639835369E+00  0.51584395264E+01 -0.17882227523E+03  0.17889680509E+03  0.00000000000E+00 0. -1.
        -15    1    1    2    0    0 -0.97565616211E+00  0.16756938734E+00 -0.31406765135E+01  0.37418661666E+01  0.17770000000E+01 0. -1.
         15    1    1    2    0    0 -0.18060020975E+01  0.23597428041E+01  0.33721430102E+02  0.33898710990E+02  0.17770000000E+01 0.  1.
</event>
<event>
 6    1  0.8353910E-003  0.1828061E+03  0.7546771E-02  0.1068211E+00
        -11   -1    0    0    0    0  0.00000000000E+00  0.00000000000E+00  0.18250000000E+03  0.18250000000E+03  0.00000000000E+00 0. -1.
         11   -1    0    0    0    0 -0.00000000000E+00 -0.00000000000E+00 -0.18250000000E+03  0.18250000000E+03  0.00000000000E+00 0. -1.
        -11    1    1    2    0    0 -0.67046759196E+00  0.32258115370E+01  0.18216413614E+03  0.18219392932E+03  0.00000000000E+00 0. -1.
         11    1    1    2    0    0  0.98638372530E+00 -0.12529746362E+01 -0.28317277384E+02  0.28362141963E+02  0.00000000000E+00 0. -1.
        -15    1    1    2    0    0 -0.22989774957E+01 -0.50166502365E+00 -0.14597366464E+03  0.14600344332E+03  0.17770000000E+01 0. -1.
         15    1    1    2    0    0  0.19830613624E+01 -0.14711718771E+01 -0.78731941168E+01  0.84404853924E+01  0.17770000000E+01 0.  1.
</event>
<event>
 6    1  0.8353910E-003  0.1834300E+03  0.7546771E-02  0.1067717E+00
        -11   -1    0    0    0    0  0.00000000000E+00  0.00000000000E+00  0.18250000000E+03  0.18250000000E+03  0.00000000000E+00 0.  1.
         11   -1    0    0    0    0 -0.00000000000E+00 -0.00000000000E+00 -0.18250000000E+03  0.18250000000E+03  0.00000000000E+00 0. -1.
        -11    1    1    2    0    0  0.25817478687E+01 -0.40141930425E+01  0.18150723876E+03  0.18156997795E+03  0.00000000000E+00 0.  1.
         11    1    1    2    0    0  0.42961516582E+01  0.28045016742E+01 -0.15672749972E+03  0.15681145149E+03  0.00000000000E+00 0. -1.
        -15    1    1    2    0    0 -0.41246148601E+01 -0.14612292408E+01 -0.77821449011E+01  0.91031393981E+01  0.17770000000E+01 0.  1.
         15    1    1    2    0    0 -0.27532846668E+01  0.26709206091E+01 -0.16997594143E+02  0.17515431168E+02  0.17770000000E+01 0. -1.
</event>
<event>
 6    1  0.8353910E-003  0.1925609E+03  0.7546771E-02  0.1060717E+00
        -11   -1    0    0    0    0  0.00000000000E+00  0.00000000000E+00  0.18250000000E+03  0.18250000000E+03  0.00000000000E+00 0.  1.
         11   -1    0    0    0    0 -0.00000000000E+00 -0.00000000000E+00 -0.18250000000E+03  0.18250000000E+03  0.00000000000E+00 0. -1.
        -11    1    1    2    0    0 -0.32394658842E+01 -0.93320283080E+00  0.15451346809E+03  0.15455024047E+03  0.00000000000E+00 0.  1.
         11    1    1    2    0    0  0.28706848713E+01 -0.48766707469E+01 -0.17234617471E+03  0.17243905209E+03  0.00000000000E+00 0. -1.
        -15    1    1    2    0    0 -0.40144574234E+01  0.47194494974E+01  0.26934793906E+02  0.27695305084E+02  0.17770000000E+01 0.  1.
         15    1    1    2    0    0  0.43832384363E+01  0.10904240803E+01 -0.91020872899E+01  0.10315402362E+02  0.17770000000E+01 0. -1.
</event>
<event>
 6    1  0.8353910E-003  0.1720905E+03  0.7546771E-02  0.1077057E+00
        -11   -1    0    0    0    0  0.00000000000E+00  0.00000000000E+00  0.18250000000E+03  0.18250000000E+03  0.00000000000E+00 0.  1.
         11   -1    0    0    0    0 -0.00000000000E+00 -0.00000000000E+00 -0.18250000000E+03  0.18250000000E+03  0.00000000000E+00 0. -1.
        -11    1    1    2    0    0  0.31132900951E+01 -0.86455148480E+01  0.16842806452E+03  0.16867854167E+03  0.00000000000E+00 0.  1.
         11    1    1    2    0    0  0.17585556226E+01 -0.19806795298E+01 -0.17575888316E+03  0.17577884007E+03  0.00000000000E+00 0. -1.
        -15    1    1    2    0    0 -0.23212101846E+01  0.24936442836E+00 -0.39385457956E+01  0.49112189244E+01  0.17770000000E+01 0.  1.
         15    1    1    2    0    0 -0.25506355331E+01  0.10376829949E+02  0.11269364435E+02  0.15631399336E+02  0.17770000000E+01 0.  1.
</event>
<event>
 6    1  0.8353910E-003  0.1829763E+03  0.7546771E-02  0.1068076E+00
        -11   -1    0    0    0    0  0.00000000000E+00  0.00000000000E+00  0.18250000000E+03  0.18250000000E+03  0.00000000000E+00 0.  1.
         11   -1    0    0    0    0 -0.00000000000E+00 -0.00000000000E+00 -0.18250000000E+03  0.18250000000E+03  0.00000000000E+00 0. -1.
        -11    1    1    2    0    0 -0.25491934241E+01 -0.46800927645E+01  0.11966096902E+03  0.11977958575E+03  0.00000000000E+00 0.  1.
         11    1    1    2    0    0  0.18123669290E+01  0.20137167830E+01 -0.18200354366E+03  0.18202370624E+03  0.00000000000E+00 0. -1.
        -15    1    1    2    0    0  0.10050575450E+01 -0.27620414115E+00  0.55464914133E+02  0.55503160794E+02  0.17770000000E+01 0.  1.
         15    1    1    2    0    0 -0.26823104987E+00  0.29425801227E+01  0.68776605035E+01  0.76935472102E+01  0.17770000000E+01 0. -1.
</event>
<event>
 6    1  0.8353910E-003  0.1762077E+03  0.7546771E-02  0.1073577E+00
        -11   -1    0    0    0    0  0.00000000000E+00  0.00000000000E+00  0.18250000000E+03  0.18250000000E+03  0.00000000000E+00 0. -1.
         11   -1    0    0    0    0 -0.00000000000E+00 -0.00000000000E+00 -0.18250000000E+03  0.18250000000E+03  0.00000000000E+00 0. -1.
        -11    1    1    2    0    0 -0.30274226454E+01 -0.12317428957E+01  0.17666160421E+03  0.17669183592E+03  0.00000000000E+00 0. -1.
         11    1    1    2    0    0  0.58164494054E+01 -0.35317431034E+01 -0.17563658822E+03  0.17576835726E+03  0.00000000000E+00 0. -1.
        -15    1    1    2    0    0 -0.13252758432E+01  0.43488166452E+01 -0.55833883712E+01  0.74162333416E+01  0.17770000000E+01 0.  1.
         15    1    1    2    0    0 -0.14637509167E+01  0.41466935389E+00  0.45583723770E+01  0.51235734743E+01  0.17770000000E+01 0. -1.
</event>
<event>
 6    1  0.8353910E-003  0.1837071E+03  0.7546771E-02  0.1067498E+00
        -11   -1    0    0    0    0  0.00000000000E+00  0.00000000000E+00  0.18250000000E+03  0.18250000000E+03  0.00000000000E+00 0. -1.
         11   -1    0    0    0    0 -0.00000000000E+00 -0.00000000000E+00 -0.18250000000E+03  0.18250000000E+03  0.00000000000E+00 0. -1.
        -11    1    1    2    0    0 -0.25493426926E+01  0.83327144621E+00  0.18127310165E+03  0.18129294214E+03  0.00000000000E+00 0. -1.
         11    1    1    2    0    0  0.11417041335E+01 -0.15995837613E+01 -0.68626583254E+02  0.68654716413E+02  0.00000000000E+00 0. -1.
        -15    1    1    2    0    0  0.91481840923E+00  0.36106273515E+01 -0.11134471403E+03  0.11142116762E+03  0.17770000000E+01 0.  1.
         15    1    1    2    0    0  0.49282014988E+00 -0.28443150364E+01 -0.13018043615E+01  0.36311738215E+01  0.17770000000E+01 0. -1.
</event>
<event>
 6    1  0.8353910E-003  0.1856263E+03  0.7546771E-02  0.1065993E+00
        -11   -1    0    0    0    0  0.00000000000E+00  0.00000000000E+00  0.18250000000E+03  0.18250000000E+03  0.00000000000E+00 0.  1.
         11   -1    0    0    0    0 -0.00000000000E+00 -0.00000000000E+00 -0.18250000000E+03  0.18250000000E+03  0.00000000000E+00 0. -1.
        -11    1    1    2    0    0  0.22572087136E+01  0.25316609156E+01  0.17934160768E+03  0.17937367852E+03  0.00000000000E+00 0.  1.
         11    1    1    2    0    0  0.11482590952E+01  0.53256955516E+00 -0.84003611460E+02  0.84013146993E+02  0.00000000000E+00 0. -1.
        -15    1    1    2    0    0  0.15107543369E+02 -0.55125900429E+01 -0.49816408703E+02  0.52378037580E+02  0.17770000000E+01 0. -1.
         15    1    1    2    0    0 -0.18513011178E+02  0.24483595722E+01 -0.45521587520E+02  0.49235136912E+02  0.17770000000E+01 0.  1.
</event>
<event>
 6    1  0.8353910E-003  0.1833921E+03  0.7546771E-02  0.1067747E+00
        -11   -1    0    0    0    0  0.00000000000E+00  0.00000000000E+00  0.18250000000E+03  0.18250000000E+03  0.00000000000E+00 0.  1.
         11   -1    0    0    0    0 -0.00000000000E+00 -0.00000000000E+00 -0.18250000000E+03  0.18250000000E+03  0.00000000000E+00 0.  1.
        -11    1    1    2    0    0  0.12194390885E+01  0.28802444853E+01  0.18158099438E+03  0.18160793034E+03  0.00000000000E+00 0.  1.
         11    1    1    2    0    0 -0.17728561982E+01  0.19127139539E+01 -0.14414822818E+03  0.14417181826E+03  0.00000000000E+00 0.  1.
        -15    1    1    2    0    0  0.34647658876E+01 -0.39456558338E+00 -0.27965564037E+02  0.28238108746E+02  0.17770000000E+01 0.  1.
         15    1    1    2    0    0 -0.29113487779E+01 -0.43983928558E+01 -0.94672021654E+01  0.10982142654E+02  0.17770000000E+01 0. -1.
</event>
<event>
 6    1  0.8353910E-003  0.1854171E+03  0.7546771E-02  0.1066156E+00
        -11   -1    0    0    0    0  0.00000000000E+00  0.00000000000E+00  0.18250000000E+03  0.18250000000E+03  0.00000000000E+00 0.  1.
         11   -1    0    0    0    0 -0.00000000000E+00 -0.00000000000E+00 -0.18250000000E+03  0.18250000000E+03  0.00000000000E+00 0.  1.
        -11    1    1    2    0    0  0.27815345739E+01  0.30579864817E+01  0.15648482825E+03  0.15653941896E+03  0.00000000000E+00 0.  1.
         11    1    1    2    0    0  0.28196174684E+01  0.48809880485E+00 -0.17956014463E+03  0.17958294469E+03  0.00000000000E+00 0.  1.
        -15    1    1    2    0    0 -0.10850327887E+02 -0.56633599819E+00  0.13500603865E+02  0.17420516222E+02  0.17770000000E+01 0.  1.
         15    1    1    2    0    0  0.52491758449E+01 -0.29797492884E+01  0.95747125193E+01  0.11457120131E+02  0.17770000000E+01 0. -1.
</event>
<event>
 6    1  0.8353910E-003  0.1828657E+03  0.7546771E-02  0.1068164E+00
        -11   -1    0    0    0    0  0.00000000000E+00  0.00000000000E+00  0.18250000000E+03  0.18250000000E+03  0.00000000000E+00 0.  1.
         11   -1    0    0    0    0 -0.00000000000E+00 -0.00000000000E+00 -0.18250000000E+03  0.18250000000E+03  0.00000000000E+00 0. -1.
        -11    1    1    2    0    0  0.41638000997E+01 -0.48355820126E+01  0.18202252240E+03  0.18213434258E+03  0.00000000000E+00 0.  1.
         11    1    1    2    0    0  0.16622567541E+01  0.68343077007E+00 -0.10939571912E+03  0.10941048184E+03  0.00000000000E+00 0. -1.
        -15    1    1    2    0    0 -0.60788568458E+01 -0.15239790040E+00 -0.42448182574E+02  0.42918313789E+02  0.17770000000E+01 0. -1.
         15    1    1    2    0    0  0.25279999209E+00  0.43045491429E+01 -0.30178620707E+02  0.30536861789E+02  0.17770000000E+01 0.  1.
</event>
<event>
 6    1  0.8353910E-003  0.1512277E+03  0.7546771E-02  0.1096492E+00
        -11   -1    0    0    0    0  0.00000000000E+00  0.00000000000E+00  0.18250000000E+03  0.18250000000E+03  0.00000000000E+00 0. -1.
         11   -1    0    0    0    0 -0.00000000000E+00 -0.00000000000E+00 -0.18250000000E+03  0.18250000000E+03  0.00000000000E+00 0.  1.
        -11    1    1    2    0    0  0.34950466518E+01 -0.12948175399E+01  0.15192303770E+03  0.15196875102E+03  0.00000000000E+00 0. -1.
         11    1    1    2    0    0 -0.20955189723E+01 -0.20076497756E+01 -0.15048332296E+03  0.15051130305E+03  0.00000000000E+00 0.  1.
        -15    1    1    2    0    0 -0.54885880594E+01 -0.53386172656E+01 -0.30697955116E+02  0.31688288223E+02  0.17770000000E+01 0.  1.
         15    1    1    2    0    0  0.40890603799E+01  0.86410845811E+01  0.29258240377E+02  0.30831657699E+02  0.17770000000E+01 0. -1.
</event>
<event>
 6    1  0.8353910E-003  0.1776758E+03  0.7546771E-02  0.1072361E+00
        -11   -1    0    0    0    0  0.00000000000E+00  0.00000000000E+00  0.18250000000E+03  0.18250000000E+03  0.00000000000E+00 0.  1.
         11   -1    0    0    0    0 -0.00000000000E+00 -0.00000000000E+00 -0.18250000000E+03  0.18250000000E+03  0.00000000000E+00 0.  1.
        -11    1    1    2    0    0  0.13445494219E+01 -0.52420827789E+01  0.17762184917E+03  0.17770427274E+03  0.00000000000E+00 0.  1.
         11    1    1    2    0    0  0.39087363868E+01  0.90428717286E+00 -0.17766730967E+03  0.17771260192E+03  0.00000000000E+00 0.  1.
        -15    1    1    2    0    0  0.31118270840E+00 -0.56783227261E+00 -0.43270820054E+00  0.19401632804E+01  0.17770000000E+01 0.  1.
         15    1    1    2    0    0 -0.55644685171E+01  0.49056278786E+01  0.47816869876E+00  0.76429620610E+01  0.17770000000E+01 0.  1.
</event>
<event>
 6    1  0.8353910E-003  0.1826081E+03  0.7546771E-02  0.1068369E+00
        -11   -1    0    0    0    0  0.00000000000E+00  0.00000000000E+00  0.18250000000E+03  0.18250000000E+03  0.00000000000E+00 0.  1.
         11   -1    0    0    0    0 -0.00000000000E+00 -0.00000000000E+00 -0.18250000000E+03  0.18250000000E+03  0.00000000000E+00 0. -1.
        -11    1    1    2    0    0 -0.89226385530E+00 -0.28451006108E+01  0.18236755049E+03  0.18239192472E+03  0.00000000000E+00 0.  1.
         11    1    1    2    0    0 -0.77495126373E+00 -0.11850115598E+01 -0.74933047413E+02  0.74946423507E+02  0.00000000000E+00 0. -1.
        -15    1    1    2    0    0 -0.90204310840E+00  0.31463747163E+01 -0.61337903653E+02  0.61450870695E+02  0.17770000000E+01 0. -1.
         15    1    1    2    0    0  0.25692582274E+01  0.88373745430E+00 -0.46096599427E+02  0.46210781074E+02  0.17770000000E+01 0.  1.
</event>
<event>
 6    1  0.8353910E-003  0.1775439E+03  0.7546771E-02  0.1072470E+00
        -11   -1    0    0    0    0  0.00000000000E+00  0.00000000000E+00  0.18250000000E+03  0.18250000000E+03  0.00000000000E+00 0. -1.
         11   -1    0    0    0    0 -0.00000000000E+00 -0.00000000000E+00 -0.18250000000E+03  0.18250000000E+03  0.00000000000E+00 0. -1.
        -11    1    1    2    0    0  0.22206305094E+01 -0.12889030243E+01  0.17796870924E+03  0.17798722971E+03  0.00000000000E+00 0. -1.
         11    1    1    2    0    0 -0.88465526396E+00  0.31834562366E+01 -0.17707846222E+03  0.17710928488E+03  0.00000000000E+00 0. -1.
        -15    1    1    2    0    0  0.37070647438E+01 -0.59008708015E+00  0.61301641166E+00  0.41981007489E+01  0.17770000000E+01 0. -1.
         15    1    1    2    0    0 -0.50430399893E+01 -0.13044661321E+01 -0.15032634331E+01  0.57053846647E+01  0.17770000000E+01 0.  1.
</event>
<event>
 6    1  0.8353910E-003  0.1842896E+03  0.7546771E-02  0.1067039E+00
        -11   -1    0    0    0    0  0.00000000000E+00  0.00000000000E+00  0.18250000000E+03  0.18250000000E+03  0.00000000000E+00 0. -1.
         11   -1    0    0    0    0 -0.00000000000E+00 -0.00000000000E+00 -0.18250000000E+03  0.18250000000E+03  0.00000000000E+00 0.  1.
        -11    1    1    2    0    0  0.13540653398E+01  0.19348541390E+01  0.16651383947E+03  0.16653058545E+03  0.00000000000E+00 0. -1.
         11    1    1    2    0    0 -0.19732091361E+01  0.19464369913E+01 -0.18068917467E+03  0.18071043140E+03  0.00000000000E+00 0.  1.
        -15    1    1    2    0    0  0.11213755219E+01 -0.17531379275E+01  0.14648487210E+02  0.14901908676E+02  0.17770000000E+01 0. -1.
         15    1    1    2    0    0 -0.50223172553E+00 -0.21281532029E+01 -0.47315200787E+00  0.28570744799E+01  0.17770000000E+01 0. -1.
</event>
<event>
 6    1  0.8353910E-003  0.1845164E+03  0.7546771E-02  0.1066861E+00
        -11   -1    0    0    0    0  0.00000000000E+00  0.00000000000E+00  0.18250000000E+03  0.18250000000E+03  0.00000000000E+00 0. -1.
         11   -1    0    0    0    0 -0.00000000000E+00 -0.00000000000E+00 -0.18250000000E+03  0.18250000000E+03  0.00000000000E+00 0.  1.
        -11    1    1    2    0    0  0.36469027732E+01 -0.57028435325E+00  0.18044580330E+03  0.18048355342E+03  0.00000000000E+00 0. -1.
         11    1    1    2    0    0 -0.12711160927E+01  0.24580865783E+01 -0.17572495799E+03  0.17574674616E+03  0.00000000000E+00 0.  1.
        -15    1    1    2    0    0  0.12632369866E+01  0.73960639777E+00 -0.49701164315E+00  0.23553205475E+01  0.17770000000E+01 0. -1.
         15    1    1    2    0    0 -0.36390236672E+01 -0.26274086228E+01 -0.42238336665E+01  0.64143798737E+01  0.17770000000E+01 0. -1.
</event>
<event>
 6    1  0.8353910E-003  0.1826316E+03  0.7546771E-02  0.1068350E+00
        -11   -1    0    0    0    0  0.00000000000E+00  0.00000000000E+00  0.18250000000E+03  0.18250000000E+03  0.00000000000E+00 0.  1.
         11   -1    0    0    0    0 -0.00000000000E+00 -0.00000000000E+00 -0.18250000000E+03  0.18250000000E+03  0.00000000000E+00 0.  1.
        -11    1    1    2    0    0 -0.15617029165E+01  0.46508322394E+00  0.87617779651E+02  0.87632930621E+02  0.00000000000E+00 0.  1.
         11    1    1    2    0    0 -0.48976284983E-01  0.28030870954E+01 -0.18234680573E+03  0.18236835596E+03  0.00000000000E+00 0.  1.
        -15    1    1    2    0    0  0.12895965150E+01 -0.43286146741E+01  0.75537402362E+02  0.75693175709E+02  0.17770000000E+01 0. -1.
         15    1    1    2    0    0  0.32108268644E+00  0.10604443548E+01  0.19191623717E+02  0.19305537709E+02  0.17770000000E+01 0. -1.
</event>
<event>
 6    1  0.8353910E-003  0.1883010E+03  0.7546771E-02  0.1063929E+00
        -11   -1    0    0    0    0  0.00000000000E+00  0.00000000000E+00  0.18250000000E+03  0.18250000000E+03  0.00000000000E+00 0. -1.
         11   -1    0    0    0    0 -0.00000000000E+00 -0.00000000000E+00 -0.18250000000E+03  0.18250000000E+03  0.00000000000E+00 0.  1.
        -11    1    1    2    0    0 -0.30105343706E+01 -0.28193484026E+01  0.16108877987E+03  0.16114157453E+03  0.00000000000E+00 0. -1.
         11    1    1    2    0    0  0.90792431180E+00  0.34425229638E+01 -0.17666309724E+03  0.17669896779E+03  0.00000000000E+00 0.  1.
        -15    1    1    2    0    0  0.15057814730E+01  0.28210099701E+01  0.20522443857E+02  0.20845956585E+02  0.17770000000E+01 0. -1.
         15    1    1    2    0    0  0.59682858579E+00 -0.34441845313E+01 -0.49481264814E+01  0.63135010986E+01  0.17770000000E+01 0. -1.
</event>
<event>
 6    1  0.8353910E-003  0.1795901E+03  0.7546771E-02  0.1070795E+00
        -11   -1    0    0    0    0  0.00000000000E+00  0.00000000000E+00  0.18250000000E+03  0.18250000000E+03  0.00000000000E+00 0. -1.
         11   -1    0    0    0    0 -0.00000000000E+00 -0.00000000000E+00 -0.18250000000E+03  0.18250000000E+03  0.00000000000E+00 0. -1.
        -11    1    1    2    0    0  0.18698574804E+01  0.22951026538E+01  0.17914241667E+03  0.17916687561E+03  0.00000000000E+00 0. -1.
         11    1    1    2    0    0 -0.33313426699E+01 -0.81873953861E+00 -0.17998762390E+03  0.18002031256E+03  0.00000000000E+00 0. -1.
        -15    1    1    2    0    0 -0.42721738458E+00 -0.66623622628E+00  0.20630162831E+01  0.28355159296E+01  0.17770000000E+01 0.  1.
         15    1    1    2    0    0  0.18887025741E+01 -0.81012688891E+00 -0.12178090560E+01  0.29772959017E+01  0.17770000000E+01 0. -1.
</event>
<event>
 6    1  0.8353910E-003  0.1833038E+03  0.7546771E-02  0.1067817E+00
        -11   -1    0    0    0    0  0.00000000000E+00  0.00000000000E+00  0.18250000000E+03  0.18250000000E+03  0.00000000000E+00 0.  1.
         11   -1    0    0    0    0 -0.00000000000E+00 -0.00000000000E+00 -0.18250000000E+03  0.18250000000E+03  0.00000000000E+00 0. -1.
        -11    1    1    2    0    0 -0.24404835209E+01  0.26121596650E+01  0.17101714451E+03  0.17105450317E+03  0.00000000000E+00 0.  1.
         11    1    1    2    0    0  0.32631349361E+00 -0.33205044565E+01 -0.18166553325E+03  0.18169617002E+03  0.00000000000E+00 0. -1.
        -15    1    1    2    0    0  0.18153392259E+00  0.20195741963E+01  0.28799145040E+01  0.39450311849E+01  0.17770000000E+01 0.  1.
         15    1    1    2    0    0  0.19326361047E+01 -0.13112294048E+01  0.77684742349E+01  0.83042956236E+01  0.17770000000E+01 0. -1.
</event>
<event>
 6    1  0.8353910E-003  0.1831135E+03  0.7546771E-02  0.1067968E+00
        -11   -1    0    0    0    0  0.00000000000E+00  0.00000000000E+00  0.18250000000E+03  0.18250000000E+03  0.00000000000E+00 0.  1.
         11   -1    0    0    0    0 -0.00000000000E+00 -0.00000000000E+00 -0.18250000000E+03  0.18250000000E+03  0.00000000000E+00 0.  1.
        -11    1    1    2    0    0 -0.15528368353E+01  0.30996580371E+01  0.18185350037E+03  0.18188654370E+03  0.00000000000E+00 0.  1.
         11    1    1    2    0    0  0.33151131565E+01  0.33062444151E+01 -0.14159607354E+03  0.14167346001E+03  0.00000000000E+00 0.  1.
        -15    1    1    2    0    0 -0.29106515333E+01 -0.38530437293E+01 -0.33714786691E+02  0.34105166895E+02  0.17770000000E+01 0.  1.
         15    1    1    2    0    0  0.11483752122E+01 -0.25528587228E+01 -0.65426401366E+01  0.73348293943E+01  0.17770000000E+01 0. -1.
</event>
<event>
 6    1  0.8353910E-003  0.1780553E+03  0.7546771E-02  0.1072049E+00
        -11   -1    0    0    0    0  0.00000000000E+00  0.00000000000E+00  0.18250000000E+03  0.18250000000E+03  0.00000000000E+00 0. -1.
         11   -1    0    0    0    0 -0.00000000000E+00 -0.00000000000E+00 -0.18250000000E+03  0.18250000000E+03  0.00000000000E+00 0.  1.
        -11    1    1    2    0    0  0.22516315041E+01  0.35292201966E+01  0.17871475004E+03  0.17876377463E+03  0.00000000000E+00 0. -1.
         11    1    1    2    0    0  0.84825742431E+00 -0.26590544157E+01 -0.17734208223E+03  0.17736404438E+03  0.00000000000E+00 0.  1.
        -15    1    1    2    0    0 -0.44758814458E+00 -0.37808961780E+01  0.36095424495E+00  0.42170520536E+01  0.17770000000E+01 0. -1.
         15    1    1    2    0    0 -0.26523007839E+01  0.29107303971E+01 -0.17336220564E+01  0.46551289270E+01  0.17770000000E+01 0.  1.
</event>
<event>
 6    1  0.8353910E-003  0.1827912E+03  0.7546771E-02  0.1068223E+00
        -11   -1    0    0    0    0  0.00000000000E+00  0.00000000000E+00  0.18250000000E+03  0.18250000000E+03  0.00000000000E+00 0. -1.
         11   -1    0    0    0    0 -0.00000000000E+00 -0.00000000000E+00 -0.18250000000E+03  0.18250000000E+03  0.00000000000E+00 0. -1.
        -11    1    1    2    0    0  0.25300461926E+00 -0.87229091235E+00  0.53110236983E+02  0.53118002365E+02  0.00000000000E+00 0. -1.
         11    1    1    2    0    0  0.57565115718E+00  0.76689437936E+01 -0.18204642879E+03  0.18220879866E+03  0.00000000000E+00 0. -1.
        -15    1    1    2    0    0 -0.17019922539E+01 -0.65791594957E+01  0.34092721187E+02  0.34808813313E+02  0.17770000000E+01 0. -1.
         15    1    1    2    0    0  0.87333647744E+00 -0.21749338555E+00  0.94843470618E+02  0.94864385666E+02  0.17770000000E+01 0. -1.
</event>
<event>
 6    1  0.8353910E-003  0.1713210E+03  0.7546771E-02  0.1077719E+00
        -11   -1    0    0    0    0  0.00000000000E+00  0.00000000000E+00  0.18250000000E+03  0.18250000000E+03  0.00000000000E+00 0.  1.
         11   -1    0    0    0    0 -0.00000000000E+00 -0.00000000000E+00 -0.18250000000E+03  0.18250000000E+03  0.00000000000E+00 0.  1.
        -11    1    1    2    0    0 -0.65349409014E+00 -0.83547114352E+01  0.17425016427E+03  0.17445156349E+03  0.00000000000E+00 0.  1.
         11    1    1    2    0    0  0.24977932082E+01 -0.25812564392E+01 -0.16838169826E+03  0.16842000524E+03  0.00000000000E+00 0.  1.
        -15    1    1    2    0    0  0.38402909353E+01 -0.25724929390E+01 -0.54437146282E+01  0.73591651933E+01  0.17770000000E+01 0. -1.
         15    1    1    2    0    0 -0.56845900534E+01  0.13508460813E+02 -0.42475137398E+00  0.14769266074E+02  0.17770000000E+01 0.  1.
</event>
<event>
 6    1  0.8353910E-003  0.1827939E+03  0.7546771E-02  0.1068221E+00
        -11   -1    0    0    0    0  0.00000000000E+00  0.00000000000E+00  0.18250000000E+03  0.18250000000E+03  0.00000000000E+00 0. -1.
         11   -1    0    0    0    0 -0.00000000000E+00 -0.00000000000E+00 -0.18250000000E+03  0.18250000000E+03  0.00000000000E+00 0. -1.
        -11    1    1    2    0    0  0.31464121143E+00  0.29965275343E+01  0.18218114432E+03  0.18220605787E+03  0.00000000000E+00 0. -1.
         11    1    1    2    0    0  0.34248964774E+01 -0.18183725033E+01 -0.14827714244E+03  0.14832783745E+03  0.00000000000E+00 0. -1.
        -15    1    1    2    0    0 -0.81127084233E+00  0.35137303455E+00 -0.62170533017E+01  0.65261860336E+01  0.17770000000E+01 0. -1.
         15    1    1    2    0    0 -0.29282668465E+01 -0.15295280655E+01 -0.27686948588E+02  0.27939918646E+02  0.17770000000E+01 0. -1.
</event>
<event>
 6    1  0.8353910E-003  0.1728747E+03  0.7546771E-02  0.1076386E+00
        -11   -1    0    0    0    0  0.00000000000E+00  0.00000000000E+00  0.18250000000E+03  0.18250000000E+03  0.00000000000E+00 0.  1.
         11   -1    0    0    0    0 -0.00000000000E+00 -0.00000000000E+00 -0.18250000000E+03  0.18250000000E+03  0.00000000000E+00 0.  1.
        -11    1    1    2    0    0  0.19690635177E+01  0.24120090736E+01  0.17261633779E+03  0.17264441801E+03  0.00000000000E+00 0.  1.
         11    1    1    2    0    0  0.50009283650E+01  0.42440671482E+01 -0.17311539158E+03  0.17323960342E+03  0.00000000000E+00 0.  1.
        -15    1    1    2    0    0 -0.46618643470E+01 -0.10016877764E+02 -0.48183569693E+01  0.12183805326E+02  0.17770000000E+01 0. -1.
         15    1    1    2    0    0 -0.23081275357E+01  0.33608015421E+01  0.53174107602E+01  0.69321732465E+01  0.17770000000E+01 0.  1.
</event>
<event>
 6    1  0.8353910E-003  0.1891413E+03  0.7546771E-02  0.1063288E+00
        -11   -1    0    0    0    0  0.00000000000E+00  0.00000000000E+00  0.18250000000E+03  0.18250000000E+03  0.00000000000E+00 0. -1.
         11   -1    0    0    0    0 -0.00000000000E+00 -0.00000000000E+00 -0.18250000000E+03  0.18250000000E+03  0.00000000000E+00 0.  1.
        -11    1    1    2    0    0 -0.13407236117E+02  0.13876738667E+02  0.17479693824E+03  0.17585871453E+03  0.00000000000E+00 0. -1.
         11    1    1    2    0    0  0.75029346190E+01 -0.49231510171E+00 -0.13909755263E+03  0.13930063011E+03  0.00000000000E+00 0.  1.
        -15    1    1    2    0    0 -0.67774417945E+01 -0.16398758980E+01 -0.31022922404E+02  0.31846543827E+02  0.17770000000E+01 0. -1.
         15    1    1    2    0    0  0.12681743293E+02 -0.11744547667E+02 -0.46764632104E+01  0.17994111537E+02  0.17770000000E+01 0. -1.
</event>
<event>
 6    1  0.8353910E-003  0.1828721E+03  0.7546771E-02  0.1068159E+00
        -11   -1    0    0    0    0  0.00000000000E+00  0.00000000000E+00  0.18250000000E+03  0.18250000000E+03  0.00000000000E+00 0. -1.
         11   -1    0    0    0    0 -0.00000000000E+00 -0.00000000000E+00 -0.18250000000E+03  0.18250000000E+03  0.00000000000E+00 0.  1.
        -11    1    1    2    0    0 -0.15098370114E+01  0.13655834648E-01  0.63346174503E+02  0.63364166675E+02  0.00000000000E+00 0. -1.
         11    1    1    2    0    0  0.27474178714E-01 -0.33908659112E+01 -0.18209632118E+03  0.18212789164E+03  0.00000000000E+00 0.  1.
        -15    1    1    2    0    0  0.26303083063E+01 -0.33410449909E+01  0.79310937771E+02  0.79444720923E+02  0.17770000000E+01 0. -1.
         15    1    1    2    0    0 -0.11479454736E+01  0.67182550675E+01  0.39439208903E+02  0.40063220763E+02  0.17770000000E+01 0. -1.
</event>
<event>
 6    1  0.8353910E-003  0.1755399E+03  0.7546771E-02  0.1074134E+00
        -11   -1    0    0    0    0  0.00000000000E+00  0.00000000000E+00  0.18250000000E+03  0.18250000000E+03  0.00000000000E+00 0. -1.
         11   -1    0    0    0    0 -0.00000000000E+00 -0.00000000000E+00 -0.18250000000E+03  0.18250000000E+03  0.00000000000E+00 0.  1.
        -11    1    1    2    0    0 -0.57906789029E+01  0.50085455887E+00  0.22707688928E+02  0.23439751575E+02  0.00000000000E+00 0. -1.
         11    1    1    2    0    0 -0.16923209107E+01 -0.26847945836E+01 -0.17650688025E+03  0.17653540962E+03  0.00000000000E+00 0.  1.
        -15    1    1    2    0    0 -0.12057195637E+02 -0.18578719199E+02  0.26609365962E+02  0.34666422654E+02  0.17770000000E+01 0. -1.
         15    1    1    2    0    0  0.19540195450E+02  0.20762659224E+02  0.12718982537E+03  0.13035841615E+03  0.17770000000E+01 0.  1.
</event>
<event>
 6    1  0.8353910E-003  0.1762417E+03  0.7546771E-02  0.1073549E+00
        -11   -1    0    0    0    0  0.00000000000E+00  0.00000000000E+00  0.18250000000E+03  0.18250000000E+03  0.00000000000E+00 0. -1.
         11   -1    0    0    0    0 -0.00000000000E+00 -0.00000000000E+00 -0.18250000000E+03  0.18250000000E+03  0.00000000000E+00 0.  1.
        -11    1    1    2    0    0 -0.27432989372E+01 -0.77848405797E+00  0.17467241857E+03  0.17469569410E+03  0.00000000000E+00 0. -1.
         11    1    1    2    0    0 -0.30851114706E+01 -0.27740511709E+01 -0.17781937573E+03  0.17786777015E+03  0.00000000000E+00 0.  1.
        -15    1    1    2    0    0 -0.22340286283E+01  0.42639243215E+00 -0.41713068728E+00  0.29162341176E+01  0.17770000000E+01 0. -1.
         15    1    1    2    0    0  0.80624390360E+01  0.31261427967E+01  0.35640878493E+01  0.95203016335E+01  0.17770000000E+01 0. -1.
</event>
<event>
 6    1  0.8353910E-003  0.1882152E+03  0.7546771E-02  0.1063994E+00
        -11   -1    0    0    0    0  0.00000000000E+00  0.00000000000E+00  0.18250000000E+03  0.18250000000E+03  0.00000000000E+00 0.  1.
         11   -1    0    0    0    0 -0.00000000000E+00 -0.00000000000E+00 -0.18250000000E+03  0.18250000000E+03  0.00000000000E+00 0.  1.
        -11    1    1    2    0    0 -0.10609827718E+01 -0.43640852852E+01  0.16980951734E+03  0.16986889975E+03  0.00000000000E+00 0.  1.
         11    1    1    2    0    0  0.10605225118E+02 -0.61504537355E+00 -0.17646537553E+03  0.17678483487E+03  0.00000000000E+00 0.  1.
        -15    1    1    2    0    0 -0.75889874274E+00  0.88183331075E+00 -0.35638172566E+01  0.41487443556E+01  0.17770000000E+01 0. -1.
         15    1    1    2    0    0 -0.87853436037E+01  0.40972973480E+01  0.10219675450E+02  0.14197521019E+02  0.17770000000E+01 0.  1.
</event>
<event>
 6    1  0.8353910E-003  0.1849011E+03  0.7546771E-02  0.1066559E+00
        -11   -1    0    0    0    0  0.00000000000E+00  0.00000000000E+00  0.18250000000E+03  0.18250000000E+03  0.00000000000E+00 0.  1.
         11   -1    0    0    0    0 -0.00000000000E+00 -0.00000000000E+00 -0.18250000000E+03  0.18250000000E+03  0.00000000000E+00 0. -1.
        -11    1    1    2    0    0  0.39694848922E+00 -0.23926707247E+01  0.13896622345E+03  0.13898738685E+03  0.00000000000E+00 0.  1.
         11    1    1    2    0    0 -0.38538454044E+01 -0.18019830177E+00 -0.18005757515E+03  0.18009890329E+03  0.00000000000E+00 0. -1.
        -15    1    1    2    0    0  0.30685459643E+01  0.30732674737E+01 -0.85972217740E-01  0.46931937443E+01  0.17770000000E+01 0. -1.
         15    1    1    2    0    0  0.38835095093E+00 -0.50039844722E+00  0.41177323917E+02  0.41220516118E+02  0.17770000000E+01 0.  1.
</event>
<event>
 6    1  0.8353910E-003  0.1997355E+03  0.7546771E-02  0.1055507E+00
        -11   -1    0    0    0    0  0.00000000000E+00  0.00000000000E+00  0.18250000000E+03  0.18250000000E+03  0.00000000000E+00 0. -1.
         11   -1    0    0    0    0 -0.00000000000E+00 -0.00000000000E+00 -0.18250000000E+03  0.18250000000E+03  0.00000000000E+00 0.  1.
        -11    1    1    2    0    0  0.24213511492E+02 -0.23349123519E+01  0.16346441446E+03  0.16526451752E+03  0.00000000000E+00 0. -1.
         11    1    1    2    0    0  0.21600414639E+01  0.16783273897E+01 -0.85618311782E+02  0.85661997843E+02  0.00000000000E+00 0.  1.
        -15    1    1    2    0    0 -0.15644839262E+01 -0.30562953974E+01 -0.87167591211E+02  0.87253282105E+02  0.17770000000E+01 0.  1.
         15    1    1    2    0    0 -0.24809069029E+02  0.37128803596E+01  0.93214885316E+01  0.26820202537E+02  0.17770000000E+01 0. -1.
</event>
<event>
 6    1  0.8353910E-003  0.1731421E+03  0.7546771E-02  0.1076158E+00
        -11   -1    0    0    0    0  0.00000000000E+00  0.00000000000E+00  0.18250000000E+03  0.18250000000E+03  0.00000000000E+00 0.  1.
         11   -1    0    0    0    0 -0.00000000000E+00 -0.00000000000E+00 -0.18250000000E+03  0.18250000000E+03  0.00000000000E+00 0. -1.
        -11    1    1    2    0    0  0.53418814908E+01  0.12955104192E+02  0.16980183676E+03  0.17037908965E+03  0.00000000000E+00 0.  1.
         11    1    1    2    0    0 -0.34133343450E+01  0.45476779800E+00 -0.17619527103E+03  0.17622891703E+03  0.00000000000E+00 0. -1.
        -15    1    1    2    0    0  0.12930272453E+01 -0.11687410879E+02  0.76492836635E+01  0.14139899649E+02  0.17770000000E+01 0. -1.
         15    1    1    2    0    0 -0.32215743911E+01 -0.17224611109E+01 -0.12558493963E+01  0.42520936657E+01  0.17770000000E+01 0.  1.
</event>
<event>
 6    1  0.8353910E-003  0.1928508E+03  0.7546771E-02  0.1060502E+00
        -11   -1    0    0    0    0  0.00000000000E+00  0.00000000000E+00  0.18250000000E+03  0.18250000000E+03  0.00000000000E+00 0. -1.
         11   -1    0    0    0    0 -0.00000000000E+00 -0.00000000000E+00 -0.18250000000E+03  0.18250000000E+03  0.00000000000E+00 0.  1.
        -11    1    1    2    0    0 -0.20903544066E+01 -0.10174237266E+01  0.16082601348E+03  0.16084281564E+03  0.00000000000E+00 0. -1.
         11    1    1    2    0    0 -0.13193533228E+01 -0.54268750264E+01 -0.17205854995E+03  0.17214916868E+03  0.00000000000E+00 0.  1.
        -15    1    1    2    0    0  0.59104918939E+00  0.67539298482E+01 -0.90526165838E+01  0.11448690037E+02  0.17770000000E+01 0. -1.
         15    1    1    2    0    0  0.28186585400E+01 -0.30963109523E+00  0.20285153054E+02  0.20559325640E+02  0.17770000000E+01 0. -1.
</event>
<event>
 6    1  0.8353910E-003  0.1907382E+03  0.7546771E-02  0.1062080E+00
        -11   -1    0    0    0    0  0.00000000000E+00  0.00000000000E+00  0.18250000000E+03  0.18250000000E+03  0.00000000000E+00 0. -1.
         11   -1    0    0    0    0 -0.00000000000E+00 -0.00000000000E+00 -0.18250000000E+03  0.18250000000E+03  0.00000000000E+00 0. -1.
        -11    1    1    2    0    0 -0.42561195605E+01  0.18221196734E+00  0.17420974523E+03  0.17426182338E+03  0.00000000000E+00 0. -1.
         11    1    1    2    0    0 -0.31713216160E+01  0.19770484914E+00 -0.12257655630E+03  0.12261773331E+03  0.00000000000E+00 0. -1.
        -15    1    1    2    0    0 -0.66100362762E+01  0.11537907739E+02 -0.15210834076E+00  0.13416287136E+02  0.17770000000E+01 0.  1.
         15    1    1    2    0    0  0.14037477453E+02 -0.11917824556E+02 -0.51481080591E+02  0.54704156178E+02  0.17770000000E+01 0. -1.
</event>
<event>
 6    1  0.8353910E-003  0.1827923E+03  0.7546771E-02  0.1068222E+00
        -11   -1    0    0    0    0  0.00000000000E+00  0.00000000000E+00  0.18250000000E+03  0.18250000000E+03  0.00000000000E+00 0. -1.
         11   -1    0    0    0    0 -0.00000000000E+00 -0.00000000000E+00 -0.18250000000E+03  0.18250000000E+03  0.00000000000E+00 0. -1.
        -11    1    1    2    0    0 -0.94018810887E+00 -0.36888102712E+01  0.18216795172E+03  0.18220772187E+03  0.00000000000E+00 0. -1.
         11    1    1    2    0    0 -0.14100967411E+01 -0.12422864297E+01 -0.85291668436E+02  0.85312369285E+02  0.00000000000E+00 0. -1.
        -15    1    1    2    0    0  0.39155572660E+01  0.22340784171E+01 -0.22443476418E+02  0.22960619718E+02  0.17770000000E+01 0. -1.
         15    1    1    2    0    0 -0.15652724160E+01  0.26970182838E+01 -0.74432806865E+02  0.74519289128E+02  0.17770000000E+01 0.  1.
</event>
<event>
 6    1  0.8353910E-003  0.1826447E+03  0.7546771E-02  0.1068340E+00
        -11   -1    0    0    0    0  0.00000000000E+00  0.00000000000E+00  0.18250000000E+03  0.18250000000E+03  0.00000000000E+00 0.  1.
         11   -1    0    0    0    0 -0.00000000000E+00 -0.00000000000E+00 -0.18250000000E+03  0.18250000000E+03  0.00000000000E+00 0. -1.
        -11    1    1    2    0    0 -0.24403662897E+01 -0.12059371186E+01  0.18233498808E+03  0.18235530579E+03  0.00000000000E+00 0.  1.
         11    1    1    2    0    0 -0.97947055902E+00  0.22006647819E+01 -0.79926461405E+02  0.79962750833E+02  0.00000000000E+00 0. -1.
        -15    1    1    2    0    0  0.35006705357E+00 -0.22313051145E+01 -0.22163318841E+02  0.22348863518E+02  0.17770000000E+01 0.  1.
         15    1    1    2    0    0  0.30697697952E+01  0.12365774512E+01 -0.80245207833E+02  0.80333079859E+02  0.17770000000E+01 0. -1.
</event>
<event>
 6    1  0.8353910E-003  0.1841760E+03  0.7546771E-02  0.1067128E+00
        -11   -1    0    0    0    0  0.00000000000E+00  0.00000000000E+00  0.18250000000E+03  0.18250000000E+03  0.00000000000E+00 0.  1.
         11   -1    0    0    0    0 -0.00000000000E+00 -0.00000000000E+00 -0.18250000000E+03  0.18250000000E+03  0.00000000000E+00 0.  1.
        -11    1    1    2    0    0  0.16677490499E+01 -0.36383286267E+00  0.12213125911E+03  0.12214318734E+03  0.00000000000E+00 0.  1.
         11    1    1    2    0    0  0.58796214601E+01  0.42692560742E+01 -0.18067795251E+03  0.18082400012E+03  0.00000000000E+00 0.  1.
        -15    1    1    2    0    0 -0.14097565817E+01 -0.17574766722E+01  0.53587084065E+02  0.53663856043E+02  0.17770000000E+01 0.  1.
         15    1    1    2    0    0 -0.61376139283E+01 -0.21479465394E+01  0.49596093359E+01  0.83689564961E+01  0.17770000000E+01 0. -1.
</event>
<event>
 6    1  0.8353910E-003  0.1873435E+03  0.7546771E-02  0.1064663E+00
        -11   -1    0    0    0    0  0.00000000000E+00  0.00000000000E+00  0.18250000000E+03  0.18250000000E+03  0.00000000000E+00 0. -1.
         11   -1    0    0    0    0 -0.00000000000E+00 -0.00000000000E+00 -0.18250000000E+03  0.18250000000E+03  0.00000000000E+00 0. -1.
        -11    1    1    2    0    0  0.49061408873E+01 -0.32311706122E+01  0.17755936709E+03  0.17765652119E+03  0.00000000000E+00 0. -1.
         11    1    1    2    0    0  0.41836874376E+01 -0.43270355428E+00 -0.16757241432E+03  0.16762519057E+03  0.00000000000E+00 0. -1.
        -15    1    1    2    0    0 -0.77288720574E+01 -0.17190878435E+01  0.45690056031E-01  0.81148347410E+01  0.17770000000E+01 0. -1.
         15    1    1    2    0    0 -0.13609562675E+01  0.53829620099E+01 -0.10032642823E+02  0.11603453494E+02  0.17770000000E+01 0.  1.
</event>
<event>
 6    1  0.8353910E-003  0.1842995E+03  0.7546771E-02  0.1067031E+00
        -11   -1    0    0    0    0  0.00000000000E+00  0.00000000000E+00  0.18250000000E+03  0.18250000000E+03  0.00000000000E+00 0.  1.
         11   -1    0    0    0    0 -0.00000000000E+00 -0.00000000000E+00 -0.18250000000E+03  0.18250000000E+03  0.00000000000E+00 0. -1.
        -11    1    1    2    0    0  0.25124301290E+01  0.16119452496E-01  0.17207894271E+03  0.17209728379E+03  0.00000000000E+00 0.  1.
         11    1    1    2    0    0 -0.30862566370E+01  0.17265336389E+01 -0.18066593409E+03  0.18070054134E+03  0.00000000000E+00 0. -1.
        -15    1    1    2    0    0 -0.11770550259E+01  0.78641225300E+00 -0.60207950324E+00  0.23503471007E+01  0.17770000000E+01 0. -1.
         15    1    1    2    0    0  0.17508815340E+01 -0.25290653444E+01  0.91890708857E+01  0.98518277697E+01  0.17770000000E+01 0.  1.
</event>
<event>
 6    1  0.8353910E-003  0.1829886E+03  0.7546771E-02  0.1068067E+00
        -11   -1    0    0    0    0  0.00000000000E+00  0.00000000000E+00  0.18250000000E+03  0.18250000000E+03  0.00000000000E+00 0. -1.
         11   -1    0    0    0    0 -0.00000000000E+00 -0.00000000000E+00 -0.18250000000E+03  0.18250000000E+03  0.00000000000E+00 0. -1.
        -11    1    1    2    0    0 -0.18351744620E+01 -0.31454938642E+01  0.12329191817E+03  0.12334568936E+03  0.00000000000E+00 0. -1.
         11    1    1    2    0    0 -0.27899086032E+01  0.54540717563E-01 -0.18198997209E+03  0.18201136368E+03  0.00000000000E+00 0. -1.
        -15    1    1    2    0    0  0.42725308785E+01  0.25956770836E+01  0.15109598908E+02  0.16014049076E+02  0.17770000000E+01 0. -1.
         15    1    1    2    0    0  0.35255218661E+00  0.49527606302E+00  0.43588455015E+02  0.43628897889E+02  0.17770000000E+01 0.  1.
</event>
<event>
 6    1  0.8353910E-003  0.1825432E+03  0.7546771E-02  0.1068420E+00
        -11   -1    0    0    0    0  0.00000000000E+00  0.00000000000E+00  0.18250000000E+03  0.18250000000E+03  0.00000000000E+00 0. -1.
         11   -1    0    0    0    0 -0.00000000000E+00 -0.00000000000E+00 -0.18250000000E+03  0.18250000000E+03  0.00000000000E+00 0. -1.
        -11    1    1    2    0    0 -0.89065329139E+00  0.12919633335E+00  0.49845478076E+02  0.49853602073E+02  0.00000000000E+00 0. -1.
         11    1    1    2    0    0 -0.12082114517E+01  0.26779640109E+01 -0.18243315122E+03  0.18245680565E+03  0.00000000000E+00 0. -1.
        -15    1    1    2    0    0  0.11416378553E+01 -0.10414450230E+01  0.78707713214E+02  0.78742934877E+02  0.17770000000E+01 0. -1.
         15    1    1    2    0    0  0.95722688786E+00 -0.17657153212E+01  0.53879959926E+02  0.53946657399E+02  0.17770000000E+01 0.  1.
</event>
<event>
 6    1  0.8353910E-003  0.1827538E+03  0.7546771E-02  0.1068253E+00
        -11   -1    0    0    0    0  0.00000000000E+00  0.00000000000E+00  0.18250000000E+03  0.18250000000E+03  0.00000000000E+00 0.  1.
         11   -1    0    0    0    0 -0.00000000000E+00 -0.00000000000E+00 -0.18250000000E+03  0.18250000000E+03  0.00000000000E+00 0.  1.
        -11    1    1    2    0    0  0.77389693010E+00  0.38180435874E+01  0.90605687231E+02  0.90689398123E+02  0.00000000000E+00 0.  1.
         11    1    1    2    0    0 -0.25499424118E+01  0.11981156802E+00 -0.18222831906E+03  0.18224619839E+03  0.00000000000E+00 0.  1.
        -15    1    1    2    0    0  0.26862379325E+01 -0.19955520064E+01  0.80809285650E+02  0.80898062266E+02  0.17770000000E+01 0.  1.
         15    1    1    2    0    0 -0.91019245085E+00 -0.19423031490E+01  0.10813346174E+02  0.11166341223E+02  0.17770000000E+01 0. -1.
</event>
<event>
 6    1  0.8353910E-003  0.1827676E+03  0.7546771E-02  0.1068242E+00
        -11   -1    0    0    0    0  0.00000000000E+00  0.00000000000E+00  0.18250000000E+03  0.18250000000E+03  0.00000000000E+00 0.  1.
         11   -1    0    0    0    0 -0.00000000000E+00 -0.00000000000E+00 -0.18250000000E+03  0.18250000000E+03  0.00000000000E+00 0. -1.
        -11    1    1    2    0    0  0.14814195085E+01  0.57692804066E+00  0.92718855533E+02  0.92732484174E+02  0.00000000000E+00 0.  1.
         11    1    1    2    0    0  0.23782722879E+01  0.66655791292E+00 -0.18221568150E+03  0.18223242045E+03  0.00000000000E+00 0. -1.
        -15    1    1    2    0    0 -0.47529360743E+01 -0.11813050419E+01  0.26523916391E+02  0.27030755680E+02  0.17770000000E+01 0. -1.
         15    1    1    2    0    0  0.89324427783E+00 -0.62180911700E-01  0.62972909573E+02  0.63004339699E+02  0.17770000000E+01 0.  1.
</event>
<event>
 6    1  0.8353910E-003  0.1835778E+03  0.7546771E-02  0.1067600E+00
        -11   -1    0    0    0    0  0.00000000000E+00  0.00000000000E+00  0.18250000000E+03  0.18250000000E+03  0.00000000000E+00 0.  1.
         11   -1    0    0    0    0 -0.00000000000E+00 -0.00000000000E+00 -0.18250000000E+03  0.18250000000E+03  0.00000000000E+00 0. -1.
        -11    1    1    2    0    0  0.21775470656E+01 -0.17222949457E+01  0.17181056904E+03  0.17183299929E+03  0.00000000000E+00 0.  1.
         11    1    1    2    0    0  0.26508027282E+01 -0.61114710623E+00 -0.18140179944E+03  0.18142219571E+03  0.00000000000E+00 0. -1.
        -15    1    1    2    0    0 -0.22686181287E+01  0.67526935920E-01  0.34584293479E+01  0.45021828767E+01  0.17770000000E+01 0. -1.
         15    1    1    2    0    0 -0.25597316651E+01  0.22659151160E+01  0.61328010516E+01  0.72426221252E+01  0.17770000000E+01 0.  1.
</event>
<event>
 6    1  0.8353910E-003  0.1941880E+03  0.7546771E-02  0.1059514E+00
        -11   -1    0    0    0    0  0.00000000000E+00  0.00000000000E+00  0.18250000000E+03  0.18250000000E+03  0.00000000000E+00 0.  1.
         11   -1    0    0    0    0 -0.00000000000E+00 -0.00000000000E+00 -0.18250000000E+03  0.18250000000E+03  0.00000000000E+00 0. -1.
        -11    1    1    2    0    0  0.18125994334E+01 -0.33916344689E+01  0.15181193018E+03  0.15186062967E+03  0.00000000000E+00 0.  1.
         11    1    1    2    0    0 -0.22690952955E+01  0.97463302696E+00 -0.17079411876E+03  0.17081197179E+03  0.00000000000E+00 0. -1.
        -15    1    1    2    0    0  0.15826432160E+01  0.16321947508E+02  0.22435548656E+02  0.27846405558E+02  0.17770000000E+01 0.  1.
         15    1    1    2    0    0 -0.11261473540E+01 -0.13904946066E+02 -0.34533600718E+01  0.14480992982E+02  0.17770000000E+01 0. -1.
</event>
<event>
 6    1  0.8353910E-003  0.1827792E+03  0.7546771E-02  0.1068233E+00
        -11   -1    0    0    0    0  0.00000000000E+00  0.00000000000E+00  0.18250000000E+03  0.18250000000E+03  0.00000000000E+00 0.  1.
         11   -1    0    0    0    0 -0.00000000000E+00 -0.00000000000E+00 -0.18250000000E+03  0.18250000000E+03  0.00000000000E+00 0.  1.
        -11    1    1    2    0    0  0.32609001347E+01  0.26680880375E+01  0.12840355208E+03  0.12847265994E+03  0.00000000000E+00 0.  1.
         11    1    1    2    0    0 -0.39650989199E+00  0.28041242721E+01 -0.18219879444E+03  0.18222080295E+03  0.00000000000E+00 0.  1.
        -15    1    1    2    0    0 -0.45772754635E+00 -0.30661116893E+01  0.23848646540E+02  0.24114854886E+02  0.17770000000E+01 0.  1.
         15    1    1    2    0    0 -0.24066626964E+01 -0.24061006202E+01  0.29946595818E+02  0.30191682225E+02  0.17770000000E+01 0. -1.
</event>
<event>
 6    1  0.8353910E-003  0.1830130E+03  0.7546771E-02  0.1068047E+00
        -11   -1    0    0    0    0  0.00000000000E+00  0.00000000000E+00  0.18250000000E+03  0.18250000000E+03  0.00000000000E+00 0. -1.
         11   -1    0    0    0    0 -0.00000000000E+00 -0.00000000000E+00 -0.18250000000E+03  0.18250000000E+03  0.00000000000E+00 0.  1.
        -11    1    1    2    0    0  0.16159735093E+01  0.40790328410E+01  0.18193407676E+03  0.18198697252E+03  0.00000000000E+00 0. -1.
         11    1    1    2    0    0  0.35279000747E+01 -0.20372720405E+01 -0.14418850421E+03  0.14424604432E+03  0.00000000000E+00 0.  1.
        -15    1    1    2    0    0 -0.38411059980E+01 -0.88451003422E+00 -0.98074027289E+01  0.10718177577E+02  0.17770000000E+01 0. -1.
         15    1    1    2    0    0 -0.13027675860E+01 -0.11572507663E+01 -0.27938169825E+02  0.28048805588E+02  0.17770000000E+01 0.  1.
</event>
<event>
 6    1  0.8353910E-003  0.1841477E+03  0.7546771E-02  0.1067151E+00
        -11   -1    0    0    0    0  0.00000000000E+00  0.00000000000E+00  0.18250000000E+03  0.18250000000E+03  0.00000000000E+00 0.  1.
         11   -1    0    0    0    0 -0.00000000000E+00 -0.00000000000E+00 -0.18250000000E+03  0.18250000000E+03  0.00000000000E+00 0.  1.
        -11    1    1    2    0    0 -0.16868156260E+01 -0.31559063802E+01  0.12226153962E+03  0.12231389603E+03  0.00000000000E+00 0.  1.
         11    1    1    2    0    0 -0.28726719976E+01  0.13898224381E+00 -0.18082945595E+03  0.18085232567E+03  0.00000000000E+00 0.  1.
        -15    1    1    2    0    0  0.68263805460E+01  0.32647924507E+01  0.58424427246E+02  0.58939204008E+02  0.17770000000E+01 0.  1.
         15    1    1    2    0    0 -0.22668929225E+01 -0.24786831434E+00  0.14348908632E+00  0.28945742936E+01  0.17770000000E+01 0. -1.
</event>
<event>
 6    1  0.8353910E-003  0.1828614E+03  0.7546771E-02  0.1068168E+00
        -11   -1    0    0    0    0  0.00000000000E+00  0.00000000000E+00  0.18250000000E+03  0.18250000000E+03  0.00000000000E+00 0. -1.
         11   -1    0    0    0    0 -0.00000000000E+00 -0.00000000000E+00 -0.18250000000E+03  0.18250000000E+03  0.00000000000E+00 0.  1.
        -11    1    1    2    0    0  0.17091054543E+01  0.14888167958E+01  0.10163366420E+03  0.10165893623E+03  0.00000000000E+00 0. -1.
         11    1    1    2    0    0 -0.20542499885E+01 -0.18346262866E+01 -0.18211781032E+03  0.18213863575E+03  0.00000000000E+00 0.  1.
        -15    1    1    2    0    0 -0.29568927983E+01 -0.94878666855E-01  0.93238478122E+01  0.99420362103E+01  0.17770000000E+01 0.  1.
         15    1    1    2    0    0  0.33020373325E+01  0.44068815763E+00  0.71160298308E+02  0.71260391810E+02  0.17770000000E+01 0. -1.
</event>
<event>
 6    1  0.8353910E-003  0.1775223E+03  0.7546771E-02  0.1072488E+00
        -11   -1    0    0    0    0  0.00000000000E+00  0.00000000000E+00  0.18250000000E+03  0.18250000000E+03  0.00000000000E+00 0. -1.
         11   -1    0    0    0    0 -0.00000000000E+00 -0.00000000000E+00 -0.18250000000E+03  0.18250000000E+03  0.00000000000E+00 0. -1.
        -11    1    1    2    0    0 -0.31141139384E+01  0.32400197545E+01  0.17606057904E+03  0.17611792335E+03  0.00000000000E+00 0. -1.
         11    1    1    2    0    0 -0.21546383742E+01 -0.12871840047E+01 -0.17896532810E+03  0.17898292648E+03  0.00000000000E+00 0. -1.
        -15    1    1    2    0    0  0.28178405485E+01 -0.65609401992E+00  0.49646326282E+01  0.60146480240E+01  0.17770000000E+01 0. -1.
         15    1    1    2    0    0  0.24509117641E+01 -0.12967417298E+01 -0.20598835701E+01  0.38845021446E+01  0.17770000000E+01 0.  1.
</event>
<event>
 6    1  0.8353910E-003  0.1858377E+03  0.7546771E-02  0.1065829E+00
        -11   -1    0    0    0    0  0.00000000000E+00  0.00000000000E+00  0.18250000000E+03  0.18250000000E+03  0.00000000000E+00 0. -1.
         11   -1    0    0    0    0 -0.00000000000E+00 -0.00000000000E+00 -0.18250000000E+03  0.18250000000E+03  0.00000000000E+00 0. -1.
        -11    1    1    2    0    0  0.20162068247E+01 -0.13514953923E+01  0.17914581899E+03  0.17916226190E+03  0.00000000000E+00 0. -1.
         11    1    1    2    0    0 -0.90725526023E+00  0.52163833263E+01 -0.16539219091E+03  0.16547691858E+03  0.00000000000E+00 0. -1.
        -15    1    1    2    0    0 -0.20832776548E+01  0.39704464975E+01 -0.52325382845E+00  0.48513930727E+01  0.17770000000E+01 0.  1.
         15    1    1    2    0    0  0.97432609031E+00 -0.78353344315E+01 -0.13230374247E+02  0.15509426446E+02  0.17770000000E+01 0. -1.
</event>
<event>
 6    1  0.8353910E-003  0.1874038E+03  0.7546771E-02  0.1064617E+00
        -11   -1    0    0    0    0  0.00000000000E+00  0.00000000000E+00  0.18250000000E+03  0.18250000000E+03  0.00000000000E+00 0.  1.
         11   -1    0    0    0    0 -0.00000000000E+00 -0.00000000000E+00 -0.18250000000E+03  0.18250000000E+03  0.00000000000E+00 0.  1.
        -11    1    1    2    0    0 -0.10705553510E+01 -0.14952332514E+01  0.12348461806E+03  0.12349831055E+03  0.00000000000E+00 0.  1.
         11    1    1    2    0    0 -0.48012094145E+01 -0.27251225050E+01 -0.17751039161E+03  0.17759621909E+03  0.00000000000E+00 0.  1.
        -15    1    1    2    0    0  0.33598122884E+01  0.25003250062E+01 -0.38272141538E+01  0.59451880482E+01  0.17770000000E+01 0.  1.
         15    1    1    2    0    0  0.25119524771E+01  0.17200307502E+01  0.57852987699E+02  0.57960282313E+02  0.17770000000E+01 0.  1.
</event>
<event>
 6    1  0.8353910E-003  0.1850185E+03  0.7546771E-02  0.1066468E+00
        -11   -1    0    0    0    0  0.00000000000E+00  0.00000000000E+00  0.18250000000E+03  0.18250000000E+03  0.00000000000E+00 0. -1.
         11   -1    0    0    0    0 -0.00000000000E+00 -0.00000000000E+00 -0.18250000000E+03  0.18250000000E+03  0.00000000000E+00 0.  1.
        -11    1    1    2    0    0  0.75452929039E-01  0.25079542227E+01  0.17463485139E+03  0.17465287529E+03  0.00000000000E+00 0. -1.
         11    1    1    2    0    0  0.28427326921E+01  0.97160652839E+00 -0.17995646151E+03  0.17998153569E+03  0.00000000000E+00 0.  1.
        -15    1    1    2    0    0  0.19633684610E+00 -0.95071970414E+00  0.56140219994E+01  0.59680305062E+01  0.17770000000E+01 0. -1.
         15    1    1    2    0    0 -0.31145224673E+01 -0.25288410470E+01 -0.29241187300E+00  0.43975585208E+01  0.17770000000E+01 0.  1.
</event>
<event>
 6    1  0.8353910E-003  0.1843743E+03  0.7546771E-02  0.1066973E+00
        -11   -1    0    0    0    0  0.00000000000E+00  0.00000000000E+00  0.18250000000E+03  0.18250000000E+03  0.00000000000E+00 0. -1.
         11   -1    0    0    0    0 -0.00000000000E+00 -0.00000000000E+00 -0.18250000000E+03  0.18250000000E+03  0.00000000000E+00 0.  1.
        -11    1    1    2    0    0  0.17172474111E+01 -0.20295959680E+01  0.17469839307E+03  0.17471862161E+03  0.00000000000E+00 0. -1.
         11    1    1    2    0    0 -0.23149471746E+01 -0.17847589774E+01 -0.18060206264E+03  0.18062571626E+03  0.00000000000E+00 0.  1.
        -15    1    1    2    0    0  0.11749607389E+01  0.41734417203E+01  0.61559753879E+01  0.77364016511E+01  0.17770000000E+01 0. -1.
         15    1    1    2    0    0 -0.57726097541E+00 -0.35908677492E+00 -0.25230581639E+00  0.19192604749E+01  0.17770000000E+01 0.  1.
</event>
<event>
 6    1  0.8353910E-003  0.1840144E+03  0.7546771E-02  0.1067256E+00
        -11   -1    0    0    0    0  0.00000000000E+00  0.00000000000E+00  0.18250000000E+03  0.18250000000E+03  0.00000000000E+00 0. -1.
         11   -1    0    0    0    0 -0.00000000000E+00 -0.00000000000E+00 -0.18250000000E+03  0.18250000000E+03  0.00000000000E+00 0. -1.
        -11    1    1    2    0    0  0.30359697077E+01  0.17236474555E+01  0.18095193448E+03  0.18098560900E+03  0.00000000000E+00 0. -1.
         11    1    1    2    0    0  0.40121744106E+00 -0.23404385499E+01 -0.16262189462E+03  0.16263923032E+03  0.00000000000E+00 0. -1.
        -15    1    1    2    0    0 -0.37653467752E+01  0.48380320543E+01 -0.11307431923E+02  0.12984611515E+02  0.17770000000E+01 0. -1.
         15    1    1    2    0    0  0.32815962649E+00 -0.42212409598E+01 -0.70226079385E+01  0.83905491620E+01  0.17770000000E+01 0.  1.
</event>
<event>
 6    1  0.8353910E-003  0.1851640E+03  0.7546771E-02  0.1066354E+00
        -11   -1    0    0    0    0  0.00000000000E+00  0.00000000000E+00  0.18250000000E+03  0.18250000000E+03  0.00000000000E+00 0.  1.
         11   -1    0    0    0    0 -0.00000000000E+00 -0.00000000000E+00 -0.18250000000E+03  0.18250000000E+03  0.00000000000E+00 0.  1.
        -11    1    1    2    0    0 -0.24666664106E+01  0.17960569594E+01  0.17981012447E+03  0.17983601176E+03  0.00000000000E+00 0.  1.
         11    1    1    2    0    0 -0.37047862404E+01 -0.36442425604E+00 -0.17587187470E+03  0.17591126899E+03  0.00000000000E+00 0.  1.
        -15    1    1    2    0    0  0.47156699661E+01 -0.20010286598E+01 -0.42179781912E+01  0.68695507821E+01  0.17770000000E+01 0. -1.
         15    1    1    2    0    0  0.14557826849E+01  0.56939595647E+00  0.27972842613E+00  0.23831684736E+01  0.17770000000E+01 0.  1.
</event>
<event>
 6    1  0.8353910E-003  0.1882852E+03  0.7546771E-02  0.1063941E+00
        -11   -1    0    0    0    0  0.00000000000E+00  0.00000000000E+00  0.18250000000E+03  0.18250000000E+03  0.00000000000E+00 0. -1.
         11   -1    0    0    0    0 -0.00000000000E+00 -0.00000000000E+00 -0.18250000000E+03  0.18250000000E+03  0.00000000000E+00 0. -1.
        -11    1    1    2    0    0  0.58863657717E+00  0.34336788250E+01  0.16182187051E+03  0.16185936618E+03  0.00000000000E+00 0. -1.
         11    1    1    2    0    0 -0.12467424727E+01  0.83790153993E+01 -0.17651164438E+03  0.17671480659E+03  0.00000000000E+00 0. -1.
        -15    1    1    2    0    0  0.23299380855E+01 -0.22748153659E+00 -0.35945280036E+01  0.46431368600E+01  0.17770000000E+01 0.  1.
         15    1    1    2    0    0 -0.16718321900E+01 -0.11585212688E+02  0.18284301874E+02  0.21782690374E+02  0.17770000000E+01 0. -1.
</event>
<event>
 6    1  0.8353910E-003  0.1827174E+03  0.7546771E-02  0.1068282E+00
        -11   -1    0    0    0    0  0.00000000000E+00  0.00000000000E+00  0.18250000000E+03  0.18250000000E+03  0.00000000000E+00 0. -1.
         11   -1    0    0    0    0 -0.00000000000E+00 -0.00000000000E+00 -0.18250000000E+03  0.18250000000E+03  0.00000000000E+00 0. -1.
        -11    1    1    2    0    0  0.22049791380E+01  0.24479460847E+01  0.18225278922E+03  0.18228256514E+03  0.00000000000E+00 0. -1.
         11    1    1    2    0    0 -0.14328062055E+01  0.12422046230E+00 -0.79332460487E+02  0.79345495470E+02  0.00000000000E+00 0. -1.
        -15    1    1    2    0    0  0.33056966092E+01  0.94189062297E+00 -0.34201972819E+02  0.34420160687E+02  0.17770000000E+01 0.  1.
         15    1    1    2    0    0 -0.40778695416E+01 -0.35140571700E+01 -0.68718355917E+02  0.68951778706E+02  0.17770000000E+01 0. -1.
</event>
<event>
 6    1  0.8353910E-003  0.1857529E+03  0.7546771E-02  0.1065895E+00
        -11   -1    0    0    0    0  0.00000000000E+00  0.00000000000E+00  0.18250000000E+03  0.18250000000E+03  0.00000000000E+00 0. -1.
         11   -1    0    0    0    0 -0.00000000000E+00 -0.00000000000E+00 -0.18250000000E+03  0.18250000000E+03  0.00000000000E+00 0. -1.
        -11    1    1    2    0    0 -0.18930627142E+01 -0.18615579408E+00  0.14025436178E+03  0.14026726040E+03  0.00000000000E+00 0. -1.
         11    1    1    2    0    0 -0.57572128100E+01  0.43552385282E+01 -0.17910164150E+03  0.17924706857E+03  0.00000000000E+00 0. -1.
        -15    1    1    2    0    0  0.52418376319E+01 -0.56619122940E+01  0.15866514537E+01  0.80752278246E+01  0.17770000000E+01 0. -1.
         15    1    1    2    0    0  0.24084378923E+01  0.14928295599E+01  0.37260628267E+02  0.37410443208E+02  0.17770000000E+01 0.  1.
</event>
<event>
 6    1  0.8353910E-003  0.1828540E+03  0.7546771E-02  0.1068173E+00
        -11   -1    0    0    0    0  0.00000000000E+00  0.00000000000E+00  0.18250000000E+03  0.18250000000E+03  0.00000000000E+00 0. -1.
         11   -1    0    0    0    0 -0.00000000000E+00 -0.00000000000E+00 -0.18250000000E+03  0.18250000000E+03  0.00000000000E+00 0.  1.
        -11    1    1    2    0    0  0.32937675656E+01 -0.18163558711E+01  0.12447142808E+03  0.12452824764E+03  0.00000000000E+00 0. -1.
         11    1    1    2    0    0  0.20905903913E+01 -0.23886621225E+01 -0.18211838286E+03  0.18214604484E+03  0.00000000000E+00 0.  1.
        -15    1    1    2    0    0 -0.50773934492E+01  0.27888116137E+01  0.49249020506E+02  0.49620370255E+02  0.17770000000E+01 0. -1.
         15    1    1    2    0    0 -0.30696450777E+00  0.14162063799E+01  0.83979342760E+01  0.87053372608E+01  0.17770000000E+01 0.  1.
</event>
<event>
 6    1  0.8353910E-003  0.1828163E+03  0.7546771E-02  0.1068203E+00
        -11   -1    0    0    0    0  0.00000000000E+00  0.00000000000E+00  0.18250000000E+03  0.18250000000E+03  0.00000000000E+00 0.  1.
         11   -1    0    0    0    0 -0.00000000000E+00 -0.00000000000E+00 -0.18250000000E+03  0.18250000000E+03  0.00000000000E+00 0.  1.
        -11    1    1    2    0    0 -0.25263440775E+00 -0.35886710979E+01  0.18214819347E+03  0.18218371708E+03  0.00000000000E+00 0.  1.
         11    1    1    2    0    0 -0.13570556039E+01 -0.18124288933E+01 -0.14030529146E+03  0.14032355935E+03  0.00000000000E+00 0.  1.
        -15    1    1    2    0    0  0.63284170056E+00  0.48792104768E+01 -0.32478589953E+02  0.32897168843E+02  0.17770000000E+01 0. -1.
         15    1    1    2    0    0  0.97684831104E+00  0.52188951441E+00 -0.93643120564E+01  0.95955547300E+01  0.17770000000E+01 0.  1.
</event>
<event>
 6    1  0.8353910E-003  0.1832078E+03  0.7546771E-02  0.1067893E+00
        -11   -1    0    0    0    0  0.00000000000E+00  0.00000000000E+00  0.18250000000E+03  0.18250000000E+03  0.00000000000E+00 0. -1.
         11   -1    0    0    0    0 -0.00000000000E+00 -0.00000000000E+00 -0.18250000000E+03  0.18250000000E+03  0.00000000000E+00 0.  1.
        -11    1    1    2    0    0 -0.25114458315E+01 -0.99651895217E-01  0.18177485378E+03  0.18179222964E+03  0.00000000000E+00 0. -1.
         11    1    1    2    0    0  0.48737489628E+00  0.21678837025E+01 -0.39217240187E+02  0.39280137244E+02  0.00000000000E+00 0.  1.
        -15    1    1    2    0    0  0.61114663974E+01 -0.33866705447E+01 -0.13396207248E+03  0.13415593222E+03  0.17770000000E+01 0.  1.
         15    1    1    2    0    0 -0.40873954622E+01  0.13184387374E+01 -0.85955411160E+01  0.97717008983E+01  0.17770000000E+01 0. -1.
</event>
<event>
 6    1  0.8353910E-003  0.1947529E+03  0.7546771E-02  0.1059099E+00
        -11   -1    0    0    0    0  0.00000000000E+00  0.00000000000E+00  0.18250000000E+03  0.18250000000E+03  0.00000000000E+00 0. -1.
         11   -1    0    0    0    0 -0.00000000000E+00 -0.00000000000E+00 -0.18250000000E+03  0.18250000000E+03  0.00000000000E+00 0.  1.
        -11    1    1    2    0    0  0.27381483723E+01 -0.18885904870E+02  0.16917412392E+03  0.17024705302E+03  0.00000000000E+00 0. -1.
         11    1    1    2    0    0  0.15195679006E+00 -0.29528854380E+01 -0.10633541670E+03  0.10637651747E+03  0.00000000000E+00 0.  1.
        -15    1    1    2    0    0 -0.12710753133E+02  0.45232171165E+01 -0.66654675483E+02  0.68029598198E+02  0.17770000000E+01 0.  1.
         15    1    1    2    0    0  0.98206479703E+01  0.17315573192E+02  0.38159682669E+01  0.20346831309E+02  0.17770000000E+01 0. -1.
</event>
<event>
 6    1  0.8353910E-003  0.1844853E+03  0.7546771E-02  0.1066885E+00
        -11   -1    0    0    0    0  0.00000000000E+00  0.00000000000E+00  0.18250000000E+03  0.18250000000E+03  0.00000000000E+00 0.  1.
         11   -1    0    0    0    0 -0.00000000000E+00 -0.00000000000E+00 -0.18250000000E+03  0.18250000000E+03  0.00000000000E+00 0. -1.
        -11    1    1    2    0    0 -0.22812035823E+00 -0.27014495889E+01  0.16391090943E+03  0.16393332821E+03  0.00000000000E+00 0.  1.
         11    1    1    2    0    0  0.36777204960E+01 -0.28436153658E+01 -0.18045482568E+03  0.18051469715E+03  0.00000000000E+00 0. -1.
        -15    1    1    2    0    0  0.10966228267E+01  0.81553532905E+00  0.12379822005E+02  0.12581152625E+02  0.17770000000E+01 0.  1.
         15    1    1    2    0    0 -0.45462229645E+01  0.47295296256E+01  0.41640942422E+01  0.79708220141E+01  0.17770000000E+01 0. -1.
</event>
<event>
 6    1  0.8353910E-003  0.1832959E+03  0.7546771E-02  0.1067823E+00
        -11   -1    0    0    0    0  0.00000000000E+00  0.00000000000E+00  0.18250000000E+03  0.18250000000E+03  0.00000000000E+00 0.  1.
         11   -1    0    0    0    0 -0.00000000000E+00 -0.00000000000E+00 -0.18250000000E+03  0.18250000000E+03  0.00000000000E+00 0. -1.
        -11    1    1    2    0    0  0.59396169126E+00  0.45738727331E+01  0.18164559364E+03  0.18170414082E+03  0.00000000000E+00 0.  1.
         11    1    1    2    0    0  0.24480900829E+01  0.14397600125E+01 -0.10333504971E+03  0.10337407099E+03  0.00000000000E+00 0. -1.
        -15    1    1    2    0    0  0.19773613263E+01  0.57821824903E-01 -0.23973513534E+01  0.35802686617E+01  0.17770000000E+01 0. -1.
         15    1    1    2    0    0 -0.50194131005E+01 -0.60714545705E+01 -0.75913192573E+02  0.76341519529E+02  0.17770000000E+01 0. -1.
</event>
<event>
 6    1  0.8353910E-003  0.1702543E+03  0.7546771E-02  0.1078643E+00
        -11   -1    0    0    0    0  0.00000000000E+00  0.00000000000E+00  0.18250000000E+03  0.18250000000E+03  0.00000000000E+00 0. -1.
         11   -1    0    0    0    0 -0.00000000000E+00 -0.00000000000E+00 -0.18250000000E+03  0.18250000000E+03  0.00000000000E+00 0.  1.
        -11    1    1    2    0    0 -0.63261011706E+01  0.28876516307E+01  0.16856972259E+03  0.16871309807E+03  0.00000000000E+00 0. -1.
         11    1    1    2    0    0  0.37359343712E+01  0.21853213820E+01 -0.17180394549E+03  0.17185845491E+03  0.00000000000E+00 0.  1.
        -15    1    1    2    0    0  0.67256632454E+01 -0.25548257178E+01  0.12089824728E+02  0.14180383334E+02  0.17770000000E+01 0. -1.
         15    1    1    2    0    0 -0.41354964460E+01 -0.25181472949E+01 -0.88556018238E+01  0.10248063686E+02  0.17770000000E+01 0.  1.
</event>
<event>
 6    1  0.8353910E-003  0.1826851E+03  0.7546771E-02  0.1068308E+00
        -11   -1    0    0    0    0  0.00000000000E+00  0.00000000000E+00  0.18250000000E+03  0.18250000000E+03  0.00000000000E+00 0. -1.
         11   -1    0    0    0    0 -0.00000000000E+00 -0.00000000000E+00 -0.18250000000E+03  0.18250000000E+03  0.00000000000E+00 0.  1.
        -11    1    1    2    0    0  0.50271960634E+01 -0.84456590228E+00  0.18224366085E+03  0.18231494155E+03  0.00000000000E+00 0. -1.
         11    1    1    2    0    0 -0.10374922675E+01 -0.68363165411E+00 -0.61843548022E+02  0.61856027793E+02  0.00000000000E+00 0.  1.
        -15    1    1    2    0    0 -0.43255196476E+01 -0.54929784253E-01 -0.27283652832E+02  0.27681556646E+02  0.17770000000E+01 0. -1.
         15    1    1    2    0    0  0.33581585174E+00  0.15831273406E+01 -0.93116459994E+02  0.93147474014E+02  0.17770000000E+01 0.  1.
</event>
<event>
 6    1  0.8353910E-003  0.1832197E+03  0.7546771E-02  0.1067883E+00
        -11   -1    0    0    0    0  0.00000000000E+00  0.00000000000E+00  0.18250000000E+03  0.18250000000E+03  0.00000000000E+00 0. -1.
         11   -1    0    0    0    0 -0.00000000000E+00 -0.00000000000E+00 -0.18250000000E+03  0.18250000000E+03  0.00000000000E+00 0.  1.
        -11    1    1    2    0    0 -0.40634523086E+01 -0.41391952215E+01  0.18168770719E+03  0.18178027266E+03  0.00000000000E+00 0. -1.
         11    1    1    2    0    0  0.24068542015E+01  0.19302144185E+01 -0.11378408401E+03  0.11382590412E+03  0.00000000000E+00 0.  1.
        -15    1    1    2    0    0  0.37825676891E+01 -0.40677847814E+01 -0.15829865519E+02  0.16870004822E+02  0.17770000000E+01 0. -1.
         15    1    1    2    0    0 -0.21259695819E+01  0.62767655844E+01 -0.52073757665E+02  0.52523818399E+02  0.17770000000E+01 0. -1.
</event>
<event>
 6    1  0.8353910E-003  0.1842134E+03  0.7546771E-02  0.1067099E+00
        -11   -1    0    0    0    0  0.00000000000E+00  0.00000000000E+00  0.18250000000E+03  0.18250000000E+03  0.00000000000E+00 0.  1.
         11   -1    0    0    0    0 -0.00000000000E+00 -0.00000000000E+00 -0.18250000000E+03  0.18250000000E+03  0.00000000000E+00 0. -1.
        -11    1    1    2    0    0 -0.16470653413E+01 -0.29541515589E+01  0.18075496442E+03  0.18078660625E+03  0.00000000000E+00 0.  1.
         11    1    1    2    0    0  0.36405053954E+00 -0.91762923466E+00 -0.18636096766E+02  0.18662225989E+02  0.00000000000E+00 0. -1.
        -15    1    1    2    0    0  0.33132481942E+00  0.50619314930E+01 -0.25222328925E+01  0.59373659429E+01  0.17770000000E+01 0. -1.
         15    1    1    2    0    0  0.95168998235E+00 -0.11901506994E+01 -0.15959663477E+03  0.15961380182E+03  0.17770000000E+01 0. -1.
</event>
<event>
 6    1  0.8353910E-003  0.1837457E+03  0.7546771E-02  0.1067468E+00
        -11   -1    0    0    0    0  0.00000000000E+00  0.00000000000E+00  0.18250000000E+03  0.18250000000E+03  0.00000000000E+00 0. -1.
         11   -1    0    0    0    0 -0.00000000000E+00 -0.00000000000E+00 -0.18250000000E+03  0.18250000000E+03  0.00000000000E+00 0. -1.
        -11    1    1    2    0    0 -0.19037467016E+01  0.37651444958E+01  0.13279068466E+03  0.13285769265E+03  0.00000000000E+00 0. -1.
         11    1    1    2    0    0  0.55334024029E+01  0.22610380124E+01 -0.18115568759E+03  0.18125427990E+03  0.00000000000E+00 0. -1.
        -15    1    1    2    0    0 -0.48273850619E+01 -0.29804979379E+01  0.46198864198E+02  0.46579821776E+02  0.17770000000E+01 0. -1.
         15    1    1    2    0    0  0.11977293606E+01 -0.30456845703E+01  0.21661387350E+01  0.43082056755E+01  0.17770000000E+01 0.  1.
</event>
<event>
 6    1  0.8353910E-003  0.1908624E+03  0.7546771E-02  0.1061987E+00
        -11   -1    0    0    0    0  0.00000000000E+00  0.00000000000E+00  0.18250000000E+03  0.18250000000E+03  0.00000000000E+00 0.  1.
         11   -1    0    0    0    0 -0.00000000000E+00 -0.00000000000E+00 -0.18250000000E+03  0.18250000000E+03  0.00000000000E+00 0. -1.
        -11    1    1    2    0    0  0.12339841923E+02 -0.11057254593E+02  0.17334752876E+03  0.17413759015E+03  0.00000000000E+00 0.  1.
         11    1    1    2    0    0  0.23150309873E+01  0.27117627225E+01 -0.14342314327E+03  0.14346745642E+03  0.00000000000E+00 0. -1.
        -15    1    1    2    0    0 -0.90117776615E+01  0.89319318506E+01  0.36312336649E+01  0.13316723701E+02  0.17770000000E+01 0. -1.
         15    1    1    2    0    0 -0.56430952488E+01 -0.58643997970E+00 -0.33555619152E+02  0.34078229730E+02  0.17770000000E+01 0.  1.
</event>
<event>
 6    1  0.8353910E-003  0.1842524E+03  0.7546771E-02  0.1067068E+00
        -11   -1    0    0    0    0  0.00000000000E+00  0.00000000000E+00  0.18250000000E+03  0.18250000000E+03  0.00000000000E+00 0. -1.
         11   -1    0    0    0    0 -0.00000000000E+00 -0.00000000000E+00 -0.18250000000E+03  0.18250000000E+03  0.00000000000E+00 0.  1.
        -11    1    1    2    0    0 -0.34045201332E+01 -0.48903050460E+01  0.18064933783E+03  0.18074758394E+03  0.00000000000E+00 0. -1.
         11    1    1    2    0    0  0.18979943230E+01  0.40709773913E+01 -0.10308896721E+03  0.10318677434E+03  0.00000000000E+00 0.  1.
        -15    1    1    2    0    0  0.51803059720E+00 -0.52752086087E+01 -0.72935277149E+02  0.73149221208E+02  0.17770000000E+01 0.  1.
         15    1    1    2    0    0  0.98849521301E+00  0.60945362634E+01 -0.46250934775E+01  0.79164205123E+01  0.17770000000E+01 0. -1.
</event>
<event>
 6    1  0.8353910E-003  0.1827087E+03  0.7546771E-02  0.1068289E+00
        -11   -1    0    0    0    0  0.00000000000E+00  0.00000000000E+00  0.18250000000E+03  0.18250000000E+03  0.00000000000E+00 0. -1.
         11   -1    0    0    0    0 -0.00000000000E+00 -0.00000000000E+00 -0.18250000000E+03  0.18250000000E+03  0.00000000000E+00 0.  1.
        -11    1    1    2    0    0 -0.39393256850E+01  0.37665854031E+01  0.18220975500E+03  0.18229125122E+03  0.00000000000E+00 0. -1.
         11    1    1    2    0    0  0.44222111074E+00  0.19769151068E+01 -0.10454604998E+03  0.10456567467E+03  0.00000000000E+00 0.  1.
        -15    1    1    2    0    0  0.27995192667E+00 -0.84025990145E+00 -0.95456059149E+01  0.97499092850E+01  0.17770000000E+01 0.  1.
         15    1    1    2    0    0  0.32171526476E+01 -0.49032406085E+01 -0.68118099107E+02  0.68393164823E+02  0.17770000000E+01 0.  1.
</event>
<event>
 6    1  0.8353910E-003  0.1857829E+03  0.7546771E-02  0.1065871E+00
        -11   -1    0    0    0    0  0.00000000000E+00  0.00000000000E+00  0.18250000000E+03  0.18250000000E+03  0.00000000000E+00 0. -1.
         11   -1    0    0    0    0 -0.00000000000E+00 -0.00000000000E+00 -0.18250000000E+03  0.18250000000E+03  0.00000000000E+00 0. -1.
        -11    1    1    2    0    0  0.76020987348E+00 -0.23258865091E+01  0.17920037405E+03  0.17921707989E+03  0.00000000000E+00 0. -1.
         11    1    1    2    0    0 -0.66587701596E+00 -0.34547479554E+01 -0.15978238197E+03  0.15982111333E+03  0.00000000000E+00 0. -1.
        -15    1    1    2    0    0 -0.25181463352E+01  0.24191912361E+01  0.17700050556E+01  0.42993248422E+01  0.17770000000E+01 0. -1.
         15    1    1    2    0    0  0.24238134777E+01  0.33614432284E+01 -0.21187997129E+02  0.21662481937E+02  0.17770000000E+01 0.  1.
</event>
<event>
 6    1  0.8353910E-003  0.1832978E+03  0.7546771E-02  0.1067822E+00
        -11   -1    0    0    0    0  0.00000000000E+00  0.00000000000E+00  0.18250000000E+03  0.18250000000E+03  0.00000000000E+00 0. -1.
         11   -1    0    0    0    0 -0.00000000000E+00 -0.00000000000E+00 -0.18250000000E+03  0.18250000000E+03  0.00000000000E+00 0.  1.
        -11    1    1    2    0    0 -0.20000317250E+01  0.41622684246E+01  0.18164351414E+03  0.18170220371E+03  0.00000000000E+00 0. -1.
         11    1    1    2    0    0  0.17445775584E-01 -0.10645505554E+01 -0.44297356047E+02  0.44310149233E+02  0.00000000000E+00 0.  1.
        -15    1    1    2    0    0 -0.29020213975E+01  0.86464145826E+00 -0.12472662207E+03  0.12477602861E+03  0.17770000000E+01 0.  1.
         15    1    1    2    0    0  0.48846073468E+01 -0.39623593274E+01 -0.12619536023E+02  0.14211618444E+02  0.17770000000E+01 0. -1.
</event>
<event>
 6    1  0.8353910E-003  0.1835240E+03  0.7546771E-02  0.1067643E+00
        -11   -1    0    0    0    0  0.00000000000E+00  0.00000000000E+00  0.18250000000E+03  0.18250000000E+03  0.00000000000E+00 0.  1.
         11   -1    0    0    0    0 -0.00000000000E+00 -0.00000000000E+00 -0.18250000000E+03  0.18250000000E+03  0.00000000000E+00 0. -1.
        -11    1    1    2    0    0 -0.43011578643E+01  0.47820382400E+00  0.10312344945E+03  0.10321421639E+03  0.00000000000E+00 0.  1.
         11    1    1    2    0    0  0.85960334882E+01 -0.47688324813E+01 -0.18120957616E+03  0.18147601507E+03  0.00000000000E+00 0. -1.
        -15    1    1    2    0    0  0.34498334693E+01  0.26503885479E+01  0.63044875924E+02  0.63219775543E+02  0.17770000000E+01 0.  1.
         15    1    1    2    0    0 -0.77447090932E+01  0.16402401094E+01  0.15041250779E+02  0.17089992995E+02  0.17770000000E+01 0. -1.
</event>
<event>
 6    1  0.8353910E-003  0.1835813E+03  0.7546771E-02  0.1067597E+00
        -11   -1    0    0    0    0  0.00000000000E+00  0.00000000000E+00  0.18250000000E+03  0.18250000000E+03  0.00000000000E+00 0. -1.
         11   -1    0    0    0    0 -0.00000000000E+00 -0.00000000000E+00 -0.18250000000E+03  0.18250000000E+03  0.00000000000E+00 0. -1.
        -11    1    1    2    0    0  0.17746605528E+01 -0.20709263224E+01  0.18139819296E+03  0.18141869409E+03  0.00000000000E+00 0. -1.
         11    1    1    2    0    0 -0.25890364948E+00  0.62576824614E+01 -0.14237497837E+03  0.14251266641E+03  0.00000000000E+00 0. -1.
        -15    1    1    2    0    0  0.33837862665E+01 -0.52895533562E+01 -0.28918102058E+02  0.29645298781E+02  0.17770000000E+01 0. -1.
         15    1    1    2    0    0 -0.48995431699E+01  0.11027972171E+01 -0.10105112534E+02  0.11423340724E+02  0.17770000000E+01 0.  1.
</event>
<event>
 6    1  0.8353910E-003  0.2061755E+03  0.7546771E-02  0.1051030E+00
        -11   -1    0    0    0    0  0.00000000000E+00  0.00000000000E+00  0.18250000000E+03  0.18250000000E+03  0.00000000000E+00 0. -1.
         11   -1    0    0    0    0 -0.00000000000E+00 -0.00000000000E+00 -0.18250000000E+03  0.18250000000E+03  0.00000000000E+00 0. -1.
        -11    1    1    2    0    0  0.12645661641E+02  0.11381137164E+02  0.15791065140E+03  0.15882448447E+03  0.00000000000E+00 0. -1.
         11    1    1    2    0    0 -0.31704896800E+01 -0.37505938323E+01 -0.12235904627E+03  0.12245756475E+03  0.00000000000E+00 0. -1.
        -15    1    1    2    0    0 -0.11635073369E+02 -0.10057641549E+02  0.21528822691E+02  0.26517522911E+02  0.17770000000E+01 0. -1.
         15    1    1    2    0    0  0.21599014078E+01  0.24270982175E+01 -0.57080427818E+02  0.57200427872E+02  0.17770000000E+01 0.  1.
</event>
<event>
 6    1  0.8353910E-003  0.1769902E+03  0.7546771E-02  0.1072927E+00
        -11   -1    0    0    0    0  0.00000000000E+00  0.00000000000E+00  0.18250000000E+03  0.18250000000E+03  0.00000000000E+00 0. -1.
         11   -1    0    0    0    0 -0.00000000000E+00 -0.00000000000E+00 -0.18250000000E+03  0.18250000000E+03  0.00000000000E+00 0. -1.
        -11    1    1    2    0    0  0.14484269866E+01 -0.22925035535E+01  0.17673439385E+03  0.17675519648E+03  0.00000000000E+00 0. -1.
         11    1    1    2    0    0 -0.26561595444E+01  0.36589584668E+00 -0.17721251399E+03  0.17723279656E+03  0.00000000000E+00 0. -1.
        -15    1    1    2    0    0  0.23738387803E+01 -0.17968591884E+01 -0.36682979126E+01  0.50475689271E+01  0.17770000000E+01 0. -1.
         15    1    1    2    0    0 -0.11661062225E+01  0.37234668951E+01  0.41464180520E+01  0.59644380375E+01  0.17770000000E+01 0. -1.
</event>
<event>
 6    1  0.8353910E-003  0.1800524E+03  0.7546771E-02  0.1070420E+00
        -11   -1    0    0    0    0  0.00000000000E+00  0.00000000000E+00  0.18250000000E+03  0.18250000000E+03  0.00000000000E+00 0.  1.
         11   -1    0    0    0    0 -0.00000000000E+00 -0.00000000000E+00 -0.18250000000E+03  0.18250000000E+03  0.00000000000E+00 0. -1.
        -11    1    1    2    0    0 -0.15267758099E+01 -0.13206529624E+01  0.95197967361E+01  0.97314797702E+01  0.00000000000E+00 0.  1.
         11    1    1    2    0    0  0.52839186963E+01 -0.22506580122E+01 -0.17975646976E+03  0.17984819621E+03  0.00000000000E+00 0. -1.
        -15    1    1    2    0    0  0.33582236660E+01 -0.13237254999E+02  0.13496693363E+03  0.13566773194E+03  0.17770000000E+01 0.  1.
         15    1    1    2    0    0 -0.71153665523E+01  0.16808565974E+02  0.35269739394E+02  0.39752592082E+02  0.17770000000E+01 0. -1.
</event>
<event>
 6    1  0.8353910E-003  0.1825958E+03  0.7546771E-02  0.1068379E+00
        -11   -1    0    0    0    0  0.00000000000E+00  0.00000000000E+00  0.18250000000E+03  0.18250000000E+03  0.00000000000E+00 0.  1.
         11   -1    0    0    0    0 -0.00000000000E+00 -0.00000000000E+00 -0.18250000000E+03  0.18250000000E+03  0.00000000000E+00 0.  1.
        -11    1    1    2    0    0  0.39684170065E+01 -0.58715628094E+00  0.18236011156E+03  0.18240423069E+03  0.00000000000E+00 0.  1.
         11    1    1    2    0    0  0.14557501077E+00  0.94033968750E+00 -0.38433712101E+02  0.38445489419E+02  0.00000000000E+00 0.  1.
        -15    1    1    2    0    0 -0.46518764918E+01  0.16211687525E+01 -0.10422114109E+03  0.10435263351E+03  0.17770000000E+01 0.  1.
         15    1    1    2    0    0  0.53788447453E+00 -0.19743521590E+01 -0.39705258369E+02  0.39797646379E+02  0.17770000000E+01 0.  1.
</event>
<event>
 6    1  0.8353910E-003  0.1828770E+03  0.7546771E-02  0.1068155E+00
        -11   -1    0    0    0    0  0.00000000000E+00  0.00000000000E+00  0.18250000000E+03  0.18250000000E+03  0.00000000000E+00 0. -1.
         11   -1    0    0    0    0 -0.00000000000E+00 -0.00000000000E+00 -0.18250000000E+03  0.18250000000E+03  0.00000000000E+00 0. -1.
        -11    1    1    2    0    0 -0.11290366262E+01 -0.11683068395E+01  0.51537756555E+02  0.51563359232E+02  0.00000000000E+00 0. -1.
         11    1    1    2    0    0  0.18445462375E+01 -0.25946916767E+01 -0.18209522167E+03  0.18212304777E+03  0.00000000000E+00 0. -1.
        -15    1    1    2    0    0 -0.28031390371E+01  0.99313167420E+00  0.82993325850E+01  0.89933614038E+01  0.17770000000E+01 0.  1.
         15    1    1    2    0    0  0.20876294257E+01  0.27698668420E+01  0.12225813253E+03  0.12232023159E+03  0.17770000000E+01 0. -1.
</event>
<event>
 6    1  0.8353910E-003  0.1842111E+03  0.7546771E-02  0.1067101E+00
        -11   -1    0    0    0    0  0.00000000000E+00  0.00000000000E+00  0.18250000000E+03  0.18250000000E+03  0.00000000000E+00 0. -1.
         11   -1    0    0    0    0 -0.00000000000E+00 -0.00000000000E+00 -0.18250000000E+03  0.18250000000E+03  0.00000000000E+00 0. -1.
        -11    1    1    2    0    0  0.39864576857E-01  0.26974400923E+01  0.16120206232E+03  0.16122463419E+03  0.00000000000E+00 0. -1.
         11    1    1    2    0    0 -0.60083298684E+00  0.44518358555E+01 -0.18073305644E+03  0.18078887557E+03  0.00000000000E+00 0. -1.
        -15    1    1    2    0    0  0.23635924225E+01 -0.65034777680E+01  0.19029624695E+02  0.20326488562E+02  0.17770000000E+01 0.  1.
         15    1    1    2    0    0 -0.18026240126E+01 -0.64579817977E+00  0.50136941996E+00  0.26600016757E+01  0.17770000000E+01 0. -1.
</event>
<event>
 6    1  0.8408334E-003  0.1834530E+03  0.7546771E-02  0.1067699E+00
        -11   -1    0    0    0    0  0.00000000000E+00  0.00000000000E+00  0.18250000000E+03  0.18250000000E+03  0.00000000000E+00 0. -1.
         11   -1    0    0    0    0 -0.00000000000E+00 -0.00000000000E+00 -0.18250000000E+03  0.18250000000E+03  0.00000000000E+00 0.  1.
        -11    1    1    2    0    0  0.21184807148E+01  0.39830798726E+00  0.15185127426E+03  0.15186657336E+03  0.00000000000E+00 0. -1.
         11    1    1    2    0    0 -0.45350492756E+01  0.10389216754E+01 -0.18148736678E+03  0.18154699207E+03  0.00000000000E+00 0.  1.
        -15    1    1    2    0    0  0.44489853794E+01 -0.17808443738E+01  0.63947512261E+01  0.81862964663E+01  0.17770000000E+01 0. -1.
         15    1    1    2    0    0 -0.20324168187E+01  0.34361471109E+00  0.23241341294E+02  0.23400138105E+02  0.17770000000E+01 0. -1.
</event>
<event>
 6    1  0.8353910E-003  0.1958567E+03  0.7546771E-02  0.1058294E+00
        -11   -1    0    0    0    0  0.00000000000E+00  0.00000000000E+00  0.18250000000E+03  0.18250000000E+03  0.00000000000E+00 0.  1.
         11   -1    0    0    0    0 -0.00000000000E+00 -0.00000000000E+00 -0.18250000000E+03  0.18250000000E+03  0.00000000000E+00 0. -1.
        -11    1    1    2    0    0 -0.22068347055E+02  0.24752806211E+01  0.95581805661E+02  0.98127572727E+02  0.00000000000E+00 0.  1.
         11    1    1    2    0    0  0.66201714978E+01 -0.25359347097E+02 -0.16710038375E+03  0.16914331617E+03  0.00000000000E+00 0. -1.
        -15    1    1    2    0    0 -0.17130271372E+02 -0.97623833358E+01  0.15482527018E+02  0.25131985547E+02  0.17770000000E+01 0. -1.
         15    1    1    2    0    0  0.32578446929E+02  0.32646449812E+02  0.56036051073E+02  0.72597125552E+02  0.17770000000E+01 0.  1.
</event>
<event>
 6    1  0.8353910E-003  0.1849133E+03  0.7546771E-02  0.1066550E+00
        -11   -1    0    0    0    0  0.00000000000E+00  0.00000000000E+00  0.18250000000E+03  0.18250000000E+03  0.00000000000E+00 0.  1.
         11   -1    0    0    0    0 -0.00000000000E+00 -0.00000000000E+00 -0.18250000000E+03  0.18250000000E+03  0.00000000000E+00 0. -1.
        -11    1    1    2    0    0  0.53581658802E+00  0.12161608857E+01  0.72234394651E+02  0.72246618726E+02  0.00000000000E+00 0.  1.
         11    1    1    2    0    0 -0.23405976628E+01  0.20654131153E+01 -0.18005968235E+03  0.18008673893E+03  0.00000000000E+00 0. -1.
        -15    1    1    2    0    0  0.29685200739E+01 -0.40744393801E+01  0.10963526809E+03  0.10976549051E+03  0.17770000000E+01 0.  1.
         15    1    1    2    0    0 -0.11637389992E+01  0.79286537911E+00 -0.18099803926E+01  0.29011518383E+01  0.17770000000E+01 0. -1.
</event>
<event>
 6    1  0.8353910E-003  0.1862813E+03  0.7546771E-02  0.1065484E+00
        -11   -1    0    0    0    0  0.00000000000E+00  0.00000000000E+00  0.18250000000E+03  0.18250000000E+03  0.00000000000E+00 0. -1.
         11   -1    0    0    0    0 -0.00000000000E+00 -0.00000000000E+00 -0.18250000000E+03  0.18250000000E+03  0.00000000000E+00 0.  1.
        -11    1    1    2    0    0 -0.33408472792E+01 -0.14644656277E+01  0.17868142726E+03  0.17871865702E+03  0.00000000000E+00 0. -1.
         11    1    1    2    0    0  0.39579095939E+00 -0.23384729277E+01 -0.17059984673E+03  0.17061633220E+03  0.00000000000E+00 0.  1.
        -15    1    1    2    0    0 -0.45727021786E+01  0.27471288959E+01 -0.34036719785E+01  0.65725972280E+01  0.17770000000E+01 0. -1.
         15    1    1    2    0    0  0.75177584984E+01  0.10558096595E+01 -0.46779085474E+01  0.90924135550E+01  0.17770000000E+01 0.  1.
</event>
<event>
 6    1  0.8353910E-003  0.1909773E+03  0.7546771E-02  0.1061900E+00
        -11   -1    0    0    0    0  0.00000000000E+00  0.00000000000E+00  0.18250000000E+03  0.18250000000E+03  0.00000000000E+00 0.  1.
         11   -1    0    0    0    0 -0.00000000000E+00 -0.00000000000E+00 -0.18250000000E+03  0.18250000000E+03  0.00000000000E+00 0.  1.
        -11    1    1    2    0    0 -0.33291896328E+01 -0.36647977802E+01  0.14613200796E+03  0.14621586097E+03  0.00000000000E+00 0.  1.
         11    1    1    2    0    0  0.17846596859E+02  0.71273128248E+01 -0.17295840656E+03  0.17402272842E+03  0.00000000000E+00 0.  1.
        -15    1    1    2    0    0 -0.25179045509E+01  0.11893500736E+02  0.21022821521E+02  0.24349783506E+02  0.17770000000E+01 0.  1.
         15    1    1    2    0    0 -0.11999502675E+02 -0.15356015781E+02  0.58035770785E+01  0.20411627103E+02  0.17770000000E+01 0. -1.
</event>
<event>
 6    1  0.8353910E-003  0.1825977E+03  0.7546771E-02  0.1068377E+00
        -11   -1    0    0    0    0  0.00000000000E+00  0.00000000000E+00  0.18250000000E+03  0.18250000000E+03  0.00000000000E+00 0.  1.
         11   -1    0    0    0    0 -0.00000000000E+00 -0.00000000000E+00 -0.18250000000E+03  0.18250000000E+03  0.00000000000E+00 0. -1.
        -11    1    1    2    0    0 -0.13513035885E+00  0.75449537548E+00  0.56990979549E+01  0.57504122448E+01  0.00000000000E+00 0.  1.
         11    1    1    2    0    0 -0.79378559505E+01  0.48383208514E+01 -0.18216529598E+03  0.18240234090E+03  0.00000000000E+00 0. -1.
        -15    1    1    2    0    0  0.77331414372E+00  0.21562860212E+00  0.20620997693E+02  0.20712985910E+02  0.17770000000E+01 0. -1.
         15    1    1    2    0    0  0.72996721656E+01 -0.58084448290E+01  0.15584520033E+03  0.15613426095E+03  0.17770000000E+01 0.  1.
</event>
<event>
 6    1  0.8353910E-003  0.1880620E+03  0.7546771E-02  0.1064112E+00
        -11   -1    0    0    0    0  0.00000000000E+00  0.00000000000E+00  0.18250000000E+03  0.18250000000E+03  0.00000000000E+00 0. -1.
         11   -1    0    0    0    0 -0.00000000000E+00 -0.00000000000E+00 -0.18250000000E+03  0.18250000000E+03  0.00000000000E+00 0. -1.
        -11    1    1    2    0    0 -0.23944433210E+01 -0.47918230774E+00  0.10141368118E+03  0.10144307618E+03  0.00000000000E+00 0. -1.
         11    1    1    2    0    0  0.48108165782E+02 -0.17735977920E+02 -0.16934603536E+03  0.17693795585E+03  0.00000000000E+00 0. -1.
        -15    1    1    2    0    0 -0.46917812759E+02  0.17562199823E+02  0.59052741349E+02  0.77460286641E+02  0.17770000000E+01 0.  1.
         15    1    1    2    0    0  0.12040902981E+01  0.65296040500E+00  0.88796128281E+01  0.91586813305E+01  0.17770000000E+01 0. -1.
</event>
<event>
 6    1  0.8353910E-003  0.1828072E+03  0.7546771E-02  0.1068211E+00
        -11   -1    0    0    0    0  0.00000000000E+00  0.00000000000E+00  0.18250000000E+03  0.18250000000E+03  0.00000000000E+00 0. -1.
         11   -1    0    0    0    0 -0.00000000000E+00 -0.00000000000E+00 -0.18250000000E+03  0.18250000000E+03  0.00000000000E+00 0.  1.
        -11    1    1    2    0    0 -0.76829898893E+00  0.21508193121E+00  0.37542090669E+02  0.37550567444E+02  0.00000000000E+00 0. -1.
         11    1    1    2    0    0  0.13532754521E+01 -0.52194107903E+01 -0.18211302023E+03  0.18219282571E+03  0.00000000000E+00 0.  1.
        -15    1    1    2    0    0  0.11864527180E+01  0.85484867407E+01  0.68895668830E+02  0.69456858611E+02  0.17770000000E+01 0. -1.
         15    1    1    2    0    0 -0.17714291811E+01 -0.35441578817E+01  0.75675260731E+02  0.75799748233E+02  0.17770000000E+01 0. -1.
</event>
<event>
 6    1  0.8353910E-003  0.1968716E+03  0.7546771E-02  0.1057558E+00
        -11   -1    0    0    0    0  0.00000000000E+00  0.00000000000E+00  0.18250000000E+03  0.18250000000E+03  0.00000000000E+00 0.  1.
         11   -1    0    0    0    0 -0.00000000000E+00 -0.00000000000E+00 -0.18250000000E+03  0.18250000000E+03  0.00000000000E+00 0.  1.
        -11    1    1    2    0    0 -0.19404228913E+01  0.15867323183E+01  0.12700044682E+03  0.12702518039E+03  0.00000000000E+00 0.  1.
         11    1    1    2    0    0  0.26352947131E+01  0.19366500289E+02 -0.16698850321E+03  0.16812842210E+03  0.00000000000E+00 0.  1.
        -15    1    1    2    0    0  0.32785588519E+01 -0.12472334546E+01  0.47979777093E+02  0.48140640610E+02  0.17770000000E+01 0.  1.
         15    1    1    2    0    0 -0.39734306738E+01 -0.19705999153E+02 -0.79917207016E+01  0.21705756902E+02  0.17770000000E+01 0. -1.
</event>
<event>
 6    1  0.8353910E-003  0.2014958E+03  0.7546771E-02  0.1054265E+00
        -11   -1    0    0    0    0  0.00000000000E+00  0.00000000000E+00  0.18250000000E+03  0.18250000000E+03  0.00000000000E+00 0. -1.
         11   -1    0    0    0    0 -0.00000000000E+00 -0.00000000000E+00 -0.18250000000E+03  0.18250000000E+03  0.00000000000E+00 0.  1.
        -11    1    1    2    0    0 -0.22227195988E+01  0.12486226359E+01  0.10733860540E+03  0.10736887701E+03  0.00000000000E+00 0. -1.
         11    1    1    2    0    0 -0.19013143474E+02 -0.16869103919E+02 -0.16151643051E+03  0.16350420061E+03  0.00000000000E+00 0.  1.
        -15    1    1    2    0    0  0.17052110686E+02  0.14828079383E+02 -0.13439780323E+02  0.26352074704E+02  0.17770000000E+01 0.  1.
         15    1    1    2    0    0  0.41837523864E+01  0.79240189948E+00  0.67617605431E+02  0.67774847680E+02  0.17770000000E+01 0. -1.
</event>
<event>
 6    1  0.8353910E-003  0.1858327E+03  0.7546771E-02  0.1065832E+00
        -11   -1    0    0    0    0  0.00000000000E+00  0.00000000000E+00  0.18250000000E+03  0.18250000000E+03  0.00000000000E+00 0. -1.
         11   -1    0    0    0    0 -0.00000000000E+00 -0.00000000000E+00 -0.18250000000E+03  0.18250000000E+03  0.00000000000E+00 0.  1.
        -11    1    1    2    0    0 -0.29313484321E+01  0.21403634629E+01  0.17913051302E+03  0.17916728121E+03  0.00000000000E+00 0. -1.
         11    1    1    2    0    0  0.34938179956E+00  0.32564794676E+01 -0.16278352352E+03  0.16281646801E+03  0.00000000000E+00 0.  1.
        -15    1    1    2    0    0  0.28635258813E+01 -0.63360465118E+01 -0.18628260137E+02  0.19962842247E+02  0.17770000000E+01 0.  1.
         15    1    1    2    0    0 -0.28155924874E+00  0.93920358131E+00  0.22812706348E+01  0.30534085358E+01  0.17770000000E+01 0.  1.
</event>
<event>
 6    1  0.8353910E-003  0.1851116E+03  0.7546771E-02  0.1066395E+00
        -11   -1    0    0    0    0  0.00000000000E+00  0.00000000000E+00  0.18250000000E+03  0.18250000000E+03  0.00000000000E+00 0. -1.
         11   -1    0    0    0    0 -0.00000000000E+00 -0.00000000000E+00 -0.18250000000E+03  0.18250000000E+03  0.00000000000E+00 0.  1.
        -11    1    1    2    0    0 -0.32271862974E+01  0.18795289069E+00  0.17747394121E+03  0.17750337988E+03  0.00000000000E+00 0. -1.
         11    1    1    2    0    0  0.40172611936E+01  0.13908930675E+01 -0.17983818683E+03  0.17988842768E+03  0.00000000000E+00 0.  1.
        -15    1    1    2    0    0  0.68501263142E+00  0.21179977692E+01  0.63141041779E+00  0.29174586495E+01  0.17770000000E+01 0.  1.
         15    1    1    2    0    0 -0.14750875277E+01 -0.36968437275E+01  0.17328351947E+01  0.46907337988E+01  0.17770000000E+01 0.  1.
</event>
<event>
 6    1  0.8353910E-003  0.2046260E+03  0.7546771E-02  0.1052091E+00
        -11   -1    0    0    0    0  0.00000000000E+00  0.00000000000E+00  0.18250000000E+03  0.18250000000E+03  0.00000000000E+00 0.  1.
         11   -1    0    0    0    0 -0.00000000000E+00 -0.00000000000E+00 -0.18250000000E+03  0.18250000000E+03  0.00000000000E+00 0.  1.
        -11    1    1    2    0    0  0.26650934884E+01 -0.33473897575E+01  0.12728210425E+03  0.12735400191E+03  0.00000000000E+00 0.  1.
         11    1    1    2    0    0 -0.18151109110E+01  0.53733380979E+01 -0.16027372779E+03  0.16037404781E+03  0.00000000000E+00 0.  1.
        -15    1    1    2    0    0  0.30956326946E+02  0.99861328723E+01  0.27815218558E+02  0.42835279154E+02  0.17770000000E+01 0.  1.
         15    1    1    2    0    0 -0.31806309523E+02 -0.12012081213E+02  0.51764049873E+01  0.34436671125E+02  0.17770000000E+01 0. -1.
</event>
<event>
 6    1  0.8353910E-003  0.1844629E+03  0.7546771E-02  0.1066903E+00
        -11   -1    0    0    0    0  0.00000000000E+00  0.00000000000E+00  0.18250000000E+03  0.18250000000E+03  0.00000000000E+00 0. -1.
         11   -1    0    0    0    0 -0.00000000000E+00 -0.00000000000E+00 -0.18250000000E+03  0.18250000000E+03  0.00000000000E+00 0. -1.
        -11    1    1    2    0    0  0.40625108922E+01 -0.38575222390E+01  0.75399363083E+02  0.75607198241E+02  0.00000000000E+00 0. -1.
         11    1    1    2    0    0  0.76874142081E+01 -0.10190557720E+02 -0.18008525417E+03  0.18053709473E+03  0.00000000000E+00 0. -1.
        -15    1    1    2    0    0 -0.66739123468E+01  0.71182591335E+01  0.96000227370E+02  0.96511201957E+02  0.17770000000E+01 0. -1.
         15    1    1    2    0    0 -0.50760127534E+01  0.69298208257E+01  0.86856637198E+01  0.12344505069E+02  0.17770000000E+01 0.  1.
</event>
<event>
 6    1  0.8353910E-003  0.9691578E+02  0.7546771E-02  0.1169261E+00
        -11   -1    0    0    0    0  0.00000000000E+00  0.00000000000E+00  0.18250000000E+03  0.18250000000E+03  0.00000000000E+00 0.  1.
         11   -1    0    0    0    0 -0.00000000000E+00 -0.00000000000E+00 -0.18250000000E+03  0.18250000000E+03  0.00000000000E+00 0.  1.
        -11    1    1    2    0    0 -0.21285593614E+01  0.43744772780E+00  0.10530739467E+03  0.10532981296E+03  0.00000000000E+00 0.  1.
         11    1    1    2    0    0  0.63082379104E+01  0.21657373590E+01 -0.90267347081E+02  0.90513414658E+02  0.00000000000E+00 0.  1.
        -15    1    1    2    0    0 -0.13926209359E+02  0.26906455934E+02  0.71238975383E+02  0.77434139892E+02  0.17770000000E+01 0. -1.
         15    1    1    2    0    0  0.97465308103E+01 -0.29509641021E+02 -0.86279022976E+02  0.91722632489E+02  0.17770000000E+01 0.  1.
</event>
<event>
 6    1  0.8353910E-003  0.1826482E+03  0.7546771E-02  0.1068337E+00
        -11   -1    0    0    0    0  0.00000000000E+00  0.00000000000E+00  0.18250000000E+03  0.18250000000E+03  0.00000000000E+00 0.  1.
         11   -1    0    0    0    0 -0.00000000000E+00 -0.00000000000E+00 -0.18250000000E+03  0.18250000000E+03  0.00000000000E+00 0. -1.
        -11    1    1    2    0    0  0.51278618488E+00  0.10754168877E+01  0.52900681120E+02  0.52914095798E+02  0.00000000000E+00 0.  1.
         11    1    1    2    0    0 -0.25203331789E+01  0.50334472433E+00 -0.18233368268E+03  0.18235179538E+03  0.00000000000E+00 0. -1.
        -15    1    1    2    0    0 -0.11661715314E+01  0.11197493306E+01  0.91523430974E+02  0.91554955851E+02  0.17770000000E+01 0.  1.
         15    1    1    2    0    0  0.31737185254E+01 -0.26985109426E+01  0.37909570591E+02  0.38179152977E+02  0.17770000000E+01 0.  1.
</event>
<event>
 6    1  0.8353910E-003  0.1829334E+03  0.7546771E-02  0.1068110E+00
        -11   -1    0    0    0    0  0.00000000000E+00  0.00000000000E+00  0.18250000000E+03  0.18250000000E+03  0.00000000000E+00 0.  1.
         11   -1    0    0    0    0 -0.00000000000E+00 -0.00000000000E+00 -0.18250000000E+03  0.18250000000E+03  0.00000000000E+00 0.  1.
        -11    1    1    2    0    0  0.36947694619E+01  0.28599934227E+00  0.18202886781E+03  0.18206658626E+03  0.00000000000E+00 0.  1.
         11    1    1    2    0    0  0.14446187809E+01 -0.13571566361E+01 -0.13465621135E+03  0.13467079881E+03  0.00000000000E+00 0.  1.
        -15    1    1    2    0    0 -0.41755336265E+01  0.28545048926E+01 -0.18407936994E+02  0.19172718968E+02  0.17770000000E+01 0.  1.
         15    1    1    2    0    0 -0.96385461628E+00 -0.17833475987E+01 -0.28964719464E+02  0.29089895961E+02  0.17770000000E+01 0. -1.
</event>
<event>
 6    1  0.8353910E-003  0.1518860E+03  0.7546771E-02  0.1095827E+00
        -11   -1    0    0    0    0  0.00000000000E+00  0.00000000000E+00  0.18250000000E+03  0.18250000000E+03  0.00000000000E+00 0. -1.
         11   -1    0    0    0    0 -0.00000000000E+00 -0.00000000000E+00 -0.18250000000E+03  0.18250000000E+03  0.00000000000E+00 0.  1.
        -11    1    1    2    0    0  0.12306415739E+02 -0.21101323898E+02  0.15283120224E+03  0.15477108941E+03  0.00000000000E+00 0. -1.
         11    1    1    2    0    0  0.27550671742E+01 -0.15938849702E+01 -0.15019737739E+03  0.15023109878E+03  0.00000000000E+00 0.  1.
        -15    1    1    2    0    0 -0.33291549521E+02  0.20140655068E+02  0.63045244498E+01  0.39457293541E+02  0.17770000000E+01 0. -1.
         15    1    1    2    0    0  0.18230066607E+02  0.25545538000E+01 -0.89383493009E+01  0.20540518271E+02  0.17770000000E+01 0.  1.
</event>
<event>
 6    1  0.8353910E-003  0.1837303E+03  0.7546771E-02  0.1067480E+00
        -11   -1    0    0    0    0  0.00000000000E+00  0.00000000000E+00  0.18250000000E+03  0.18250000000E+03  0.00000000000E+00 0. -1.
         11   -1    0    0    0    0 -0.00000000000E+00 -0.00000000000E+00 -0.18250000000E+03  0.18250000000E+03  0.00000000000E+00 0.  1.
        -11    1    1    2    0    0  0.92975107978E+01 -0.34235799104E+01  0.18099874437E+03  0.18126971636E+03  0.00000000000E+00 0. -1.
         11    1    1    2    0    0 -0.10063921274E+01 -0.45802166318E+00 -0.79472115109E+02  0.79479806800E+02  0.00000000000E+00 0.  1.
        -15    1    1    2    0    0 -0.13471564986E+02 -0.33264297994E+01 -0.72774117790E+02  0.74106532421E+02  0.17770000000E+01 0. -1.
         15    1    1    2    0    0  0.51804463160E+01  0.72080313729E+01 -0.28752511469E+02  0.30143944418E+02  0.17770000000E+01 0.  1.
</event>
<event>
 6    1  0.8353910E-003  0.1828270E+03  0.7546771E-02  0.1068195E+00
        -11   -1    0    0    0    0  0.00000000000E+00  0.00000000000E+00  0.18250000000E+03  0.18250000000E+03  0.00000000000E+00 0. -1.
         11   -1    0    0    0    0 -0.00000000000E+00 -0.00000000000E+00 -0.18250000000E+03  0.18250000000E+03  0.00000000000E+00 0. -1.
        -11    1    1    2    0    0  0.63973030053E+01 -0.17177214835E+01  0.88200416665E+02  0.88448796220E+02  0.00000000000E+00 0. -1.
         11    1    1    2    0    0 -0.93571520785E+01  0.74610750927E+00 -0.18193101272E+03  0.18217301216E+03  0.00000000000E+00 0. -1.
        -15    1    1    2    0    0  0.10398289833E+01  0.39998637250E+01  0.78558646662E+02  0.78687348719E+02  0.17770000000E+01 0. -1.
         15    1    1    2    0    0  0.19200200900E+01 -0.30282497508E+01  0.15171949389E+02  0.15690842902E+02  0.17770000000E+01 0.  1.
</event>
<event>
 6    1  0.8353910E-003  0.1832383E+03  0.7546771E-02  0.1067869E+00
        -11   -1    0    0    0    0  0.00000000000E+00  0.00000000000E+00  0.18250000000E+03  0.18250000000E+03  0.00000000000E+00 0.  1.
         11   -1    0    0    0    0 -0.00000000000E+00 -0.00000000000E+00 -0.18250000000E+03  0.18250000000E+03  0.00000000000E+00 0. -1.
        -11    1    1    2    0    0 -0.15146687308E+01  0.35245668474E+01  0.16062326365E+03  0.16066906865E+03  0.00000000000E+00 0.  1.
         11    1    1    2    0    0 -0.30418324416E+01  0.65950588407E+00 -0.18173504556E+03  0.18176169695E+03  0.00000000000E+00 0. -1.
        -15    1    1    2    0    0  0.68083074939E+00 -0.12509484829E+01  0.10731139058E+02  0.10970117460E+02  0.17770000000E+01 0.  1.
         15    1    1    2    0    0  0.38756704231E+01 -0.29331242485E+01  0.10380642846E+02  0.11599116948E+02  0.17770000000E+01 0. -1.
</event>
<event>
 6    1  0.8353910E-003  0.1873531E+03  0.7546771E-02  0.1064656E+00
        -11   -1    0    0    0    0  0.00000000000E+00  0.00000000000E+00  0.18250000000E+03  0.18250000000E+03  0.00000000000E+00 0.  1.
         11   -1    0    0    0    0 -0.00000000000E+00 -0.00000000000E+00 -0.18250000000E+03  0.18250000000E+03  0.00000000000E+00 0. -1.
        -11    1    1    2    0    0  0.13101294708E+02 -0.23693616708E+02  0.17557160636E+03  0.17764689796E+03  0.00000000000E+00 0.  1.
         11    1    1    2    0    0  0.39756651227E+01  0.40820477228E+01 -0.99518238315E+02  0.99681235868E+02  0.00000000000E+00 0. -1.
        -15    1    1    2    0    0  0.48683467932E+00 -0.85305447031E+01 -0.75565860942E+01  0.11544129388E+02  0.17770000000E+01 0. -1.
         15    1    1    2    0    0 -0.17563794510E+02  0.28142113689E+02 -0.68496781952E+02  0.76127736780E+02  0.17770000000E+01 0.  1.
</event>
<event>
 6    1  0.8353910E-003  0.1863908E+03  0.7546771E-02  0.1065399E+00
        -11   -1    0    0    0    0  0.00000000000E+00  0.00000000000E+00  0.18250000000E+03  0.18250000000E+03  0.00000000000E+00 0. -1.
         11   -1    0    0    0    0 -0.00000000000E+00 -0.00000000000E+00 -0.18250000000E+03  0.18250000000E+03  0.00000000000E+00 0.  1.
        -11    1    1    2    0    0 -0.10519696002E+01  0.24670553901E+01  0.15670771698E+03  0.15673066568E+03  0.00000000000E+00 0. -1.
         11    1    1    2    0    0  0.64768608126E+01  0.29013351680E+01 -0.17846815394E+03  0.17860920873E+03  0.00000000000E+00 0.  1.
        -15    1    1    2    0    0 -0.40496886664E+00  0.57995823876E+01  0.21022543824E+01  0.64324457356E+01  0.17770000000E+01 0.  1.
         15    1    1    2    0    0 -0.50199223458E+01 -0.11167972946E+02  0.19658182577E+02  0.23227679852E+02  0.17770000000E+01 0. -1.
</event>
<event>
 6    1  0.8353910E-003  0.2219540E+03  0.7546771E-02  0.1040774E+00
        -11   -1    0    0    0    0  0.00000000000E+00  0.00000000000E+00  0.18250000000E+03  0.18250000000E+03  0.00000000000E+00 0.  1.
         11   -1    0    0    0    0 -0.00000000000E+00 -0.00000000000E+00 -0.18250000000E+03  0.18250000000E+03  0.00000000000E+00 0.  1.
        -11    1    1    2    0    0 -0.14388272321E+01  0.77012695902E+01  0.14283126842E+03  0.14304597518E+03  0.00000000000E+00 0.  1.
         11    1    1    2    0    0 -0.99617454100E+00  0.17717066666E+01 -0.12576533607E+03  0.12578175967E+03  0.00000000000E+00 0.  1.
        -15    1    1    2    0    0 -0.13842074663E+02  0.18947583870E+02 -0.46491330746E+02  0.52107730031E+02  0.17770000000E+01 0.  1.
         15    1    1    2    0    0  0.16277076436E+02 -0.28420560127E+02  0.29425398404E+02  0.44064535121E+02  0.17770000000E+01 0. -1.
</event>
<event>
 6    1  0.8353910E-003  0.1910894E+03  0.7546771E-02  0.1061816E+00
        -11   -1    0    0    0    0  0.00000000000E+00  0.00000000000E+00  0.18250000000E+03  0.18250000000E+03  0.00000000000E+00 0. -1.
         11   -1    0    0    0    0 -0.00000000000E+00 -0.00000000000E+00 -0.18250000000E+03  0.18250000000E+03  0.00000000000E+00 0. -1.
        -11    1    1    2    0    0  0.36569342878E+01  0.27280883007E+01  0.14140393780E+03  0.14147752210E+03  0.00000000000E+00 0. -1.
         11    1    1    2    0    0 -0.12364877321E+02 -0.27165559227E+01 -0.17344918124E+03  0.17391057569E+03  0.00000000000E+00 0. -1.
        -15    1    1    2    0    0 -0.37010512268E+01 -0.38816636610E+01  0.35579071678E+02  0.36024896439E+02  0.17770000000E+01 0.  1.
         15    1    1    2    0    0  0.12408994260E+02  0.38701312829E+01 -0.35338282423E+01  0.13587005768E+02  0.17770000000E+01 0. -1.
</event>
<event>
 6    1  0.8353910E-003  0.1842675E+03  0.7546771E-02  0.1067056E+00
        -11   -1    0    0    0    0  0.00000000000E+00  0.00000000000E+00  0.18250000000E+03  0.18250000000E+03  0.00000000000E+00 0. -1.
         11   -1    0    0    0    0 -0.00000000000E+00 -0.00000000000E+00 -0.18250000000E+03  0.18250000000E+03  0.00000000000E+00 0. -1.
        -11    1    1    2    0    0  0.22705623920E+01  0.35679704122E+00  0.10761915720E+03  0.10764369816E+03  0.00000000000E+00 0. -1.
         11    1    1    2    0    0  0.31962166600E+01  0.12653051131E+01 -0.18069976174E+03  0.18073245611E+03  0.00000000000E+00 0. -1.
        -15    1    1    2    0    0 -0.10428042992E+02 -0.35912841471E+01  0.68397895065E+02  0.69304193097E+02  0.17770000000E+01 0. -1.
         15    1    1    2    0    0  0.49612639398E+01  0.19691819928E+01  0.46827094734E+01  0.73196526293E+01  0.17770000000E+01 0.  1.
</event>
<event>
 6    1  0.8353910E-003  0.1827693E+03  0.7546771E-02  0.1068241E+00
        -11   -1    0    0    0    0  0.00000000000E+00  0.00000000000E+00  0.18250000000E+03  0.18250000000E+03  0.00000000000E+00 0.  1.
         11   -1    0    0    0    0 -0.00000000000E+00 -0.00000000000E+00 -0.18250000000E+03  0.18250000000E+03  0.00000000000E+00 0.  1.
        -11    1    1    2    0    0 -0.30384519266E+01  0.10611568708E+01  0.18220229867E+03  0.18223072157E+03  0.00000000000E+00 0.  1.
         11    1    1    2    0    0 -0.10512425574E+01 -0.19073198063E+01 -0.51013990728E+02  0.51060456615E+02  0.00000000000E+00 0.  1.
        -15    1    1    2    0    0  0.57832314830E+01  0.42553548356E+01 -0.91634277135E+02  0.91932324491E+02  0.17770000000E+01 0.  1.
         15    1    1    2    0    0 -0.16935369991E+01 -0.34091919001E+01 -0.39554030808E+02  0.39776497321E+02  0.17770000000E+01 0. -1.
</event>
<event>
 6    1  0.8353910E-003  0.1832787E+03  0.7546771E-02  0.1067837E+00
        -11   -1    0    0    0    0  0.00000000000E+00  0.00000000000E+00  0.18250000000E+03  0.18250000000E+03  0.00000000000E+00 0.  1.
         11   -1    0    0    0    0 -0.00000000000E+00 -0.00000000000E+00 -0.18250000000E+03  0.18250000000E+03  0.00000000000E+00 0. -1.
        -11    1    1    2    0    0  0.27218591760E+01  0.10875415552E+00  0.18170088131E+03  0.18172129928E+03  0.00000000000E+00 0.  1.
         11    1    1    2    0    0 -0.31269306910E+01 -0.19212013943E+00 -0.16014285337E+03  0.16017349372E+03  0.00000000000E+00 0. -1.
        -15    1    1    2    0    0  0.33358079716E+01  0.12878958907E+01 -0.15801412023E+02  0.16298117730E+02  0.17770000000E+01 0. -1.
         15    1    1    2    0    0 -0.29307364566E+01 -0.12045299068E+01 -0.57566159125E+01  0.68070892633E+01  0.17770000000E+01 0. -1.
</event>
<event>
 6    1  0.8353910E-003  0.1861008E+03  0.7546771E-02  0.1065624E+00
        -11   -1    0    0    0    0  0.00000000000E+00  0.00000000000E+00  0.18250000000E+03  0.18250000000E+03  0.00000000000E+00 0. -1.
         11   -1    0    0    0    0 -0.00000000000E+00 -0.00000000000E+00 -0.18250000000E+03  0.18250000000E+03  0.00000000000E+00 0.  1.
        -11    1    1    2    0    0  0.37446649354E+01  0.70009233990E+00  0.17885864853E+03  0.17889921408E+03  0.00000000000E+00 0. -1.
         11    1    1    2    0    0 -0.12841379433E+01  0.18790864349E+01 -0.16600717532E+03  0.16602277625E+03  0.00000000000E+00 0.  1.
        -15    1    1    2    0    0 -0.24517925922E+01  0.45254437690E+00  0.27319115140E+01  0.41033099868E+01  0.17770000000E+01 0.  1.
         15    1    1    2    0    0 -0.87343999271E-02 -0.30317231517E+01 -0.15583384723E+02  0.15974699683E+02  0.17770000000E+01 0.  1.
</event>
<event>
 6    1  0.8353910E-003  0.1831213E+03  0.7546771E-02  0.1067961E+00
        -11   -1    0    0    0    0  0.00000000000E+00  0.00000000000E+00  0.18250000000E+03  0.18250000000E+03  0.00000000000E+00 0. -1.
         11   -1    0    0    0    0 -0.00000000000E+00 -0.00000000000E+00 -0.18250000000E+03  0.18250000000E+03  0.00000000000E+00 0.  1.
        -11    1    1    2    0    0 -0.50768195398E+01  0.39037271624E+01  0.18176588321E+03  0.18187866692E+03  0.00000000000E+00 0. -1.
         11    1    1    2    0    0  0.10784678797E+01 -0.44548725869E+00 -0.37704661477E+02  0.37722712640E+02  0.00000000000E+00 0.  1.
        -15    1    1    2    0    0 -0.51188795413E+01  0.15577688103E+01 -0.17233525859E+02  0.18132338899E+02  0.17770000000E+01 0. -1.
         15    1    1    2    0    0  0.91172312014E+01 -0.50160087140E+01 -0.12682769587E+03  0.12726628154E+03  0.17770000000E+01 0.  1.
</event>
<event>
 6    1  0.8353910E-003  0.1827276E+03  0.7546771E-02  0.1068274E+00
        -11   -1    0    0    0    0  0.00000000000E+00  0.00000000000E+00  0.18250000000E+03  0.18250000000E+03  0.00000000000E+00 0. -1.
         11   -1    0    0    0    0 -0.00000000000E+00 -0.00000000000E+00 -0.18250000000E+03  0.18250000000E+03  0.00000000000E+00 0.  1.
        -11    1    1    2    0    0 -0.18703875717E+01  0.53530769676E+01  0.18218414403E+03  0.18227236795E+03  0.00000000000E+00 0. -1.
         11    1    1    2    0    0 -0.32749050736E+00 -0.12987593154E+01 -0.56176205021E+02  0.56192170596E+02  0.00000000000E+00 0.  1.
        -15    1    1    2    0    0  0.36481718154E+01  0.22267238781E+01 -0.39712580347E+02  0.39981423482E+02  0.17770000000E+01 0.  1.
         15    1    1    2    0    0 -0.14502937364E+01 -0.62810415304E+01 -0.86295358658E+02  0.86554037974E+02  0.17770000000E+01 0. -1.
</event>
<event>
 6    1  0.8353910E-003  0.1879291E+03  0.7546771E-02  0.1064214E+00
        -11   -1    0    0    0    0  0.00000000000E+00  0.00000000000E+00  0.18250000000E+03  0.18250000000E+03  0.00000000000E+00 0. -1.
         11   -1    0    0    0    0 -0.00000000000E+00 -0.00000000000E+00 -0.18250000000E+03  0.18250000000E+03  0.00000000000E+00 0.  1.
        -11    1    1    2    0    0 -0.31948345375E+01  0.39232907200E+00  0.17101841964E+03  0.17104870869E+03  0.00000000000E+00 0. -1.
         11    1    1    2    0    0  0.21619950073E+01  0.16815894629E+01 -0.17704972314E+03  0.17707090791E+03  0.00000000000E+00 0.  1.
        -15    1    1    2    0    0  0.60293177600E+01 -0.60011560681E+01  0.54452617539E+01  0.10255493717E+02  0.17770000000E+01 0. -1.
         15    1    1    2    0    0 -0.49964782297E+01  0.39272375332E+01  0.58604174155E+00  0.66248896795E+01  0.17770000000E+01 0.  1.
</event>
<event>
 6    1  0.8353910E-003  0.1231948E+03  0.7546771E-02  0.1128838E+00
        -11   -1    0    0    0    0  0.00000000000E+00  0.00000000000E+00  0.18250000000E+03  0.18250000000E+03  0.00000000000E+00 0. -1.
         11   -1    0    0    0    0 -0.00000000000E+00 -0.00000000000E+00 -0.18250000000E+03  0.18250000000E+03  0.00000000000E+00 0.  1.
        -11    1    1    2    0    0  0.42826635086E+00  0.38056977382E+01  0.98682844157E+02  0.98757128747E+02  0.00000000000E+00 0. -1.
         11    1    1    2    0    0  0.42273545887E+01  0.17371976187E+00 -0.26484078247E+02  0.26819901304E+02  0.00000000000E+00 0.  1.
        -15    1    1    2    0    0  0.19846860959E+02 -0.17627205181E+02 -0.15226300838E+03  0.15456971793E+03  0.17770000000E+01 0.  1.
         15    1    1    2    0    0 -0.24502481898E+02  0.13647787681E+02  0.80064242465E+02  0.84853252019E+02  0.17770000000E+01 0. -1.
</event>
<event>
 6    1  0.8353910E-003  0.1756907E+03  0.7546771E-02  0.1074008E+00
        -11   -1    0    0    0    0  0.00000000000E+00  0.00000000000E+00  0.18250000000E+03  0.18250000000E+03  0.00000000000E+00 0.  1.
         11   -1    0    0    0    0 -0.00000000000E+00 -0.00000000000E+00 -0.18250000000E+03  0.18250000000E+03  0.00000000000E+00 0. -1.
        -11    1    1    2    0    0  0.38224745072E+00 -0.73644575232E+01  0.17384803184E+03  0.17400436639E+03  0.00000000000E+00 0.  1.
         11    1    1    2    0    0 -0.19553557195E+00 -0.27636543058E+01 -0.17752064076E+03  0.17754225951E+03  0.00000000000E+00 0. -1.
        -15    1    1    2    0    0  0.84889006731E+00  0.17181705866E+00 -0.10557495076E+01  0.22410871181E+01  0.17770000000E+01 0.  1.
         15    1    1    2    0    0 -0.10356019461E+01  0.99562947704E+01  0.47283584239E+01  0.11212286980E+02  0.17770000000E+01 0. -1.
</event>
<event>
 6    1  0.8353910E-003  0.1925817E+03  0.7546771E-02  0.1060701E+00
        -11   -1    0    0    0    0  0.00000000000E+00  0.00000000000E+00  0.18250000000E+03  0.18250000000E+03  0.00000000000E+00 0. -1.
         11   -1    0    0    0    0 -0.00000000000E+00 -0.00000000000E+00 -0.18250000000E+03  0.18250000000E+03  0.00000000000E+00 0. -1.
        -11    1    1    2    0    0 -0.46371746241E+01  0.49698758629E+01  0.15397549514E+03  0.15412545590E+03  0.00000000000E+00 0. -1.
         11    1    1    2    0    0 -0.49142461268E+01 -0.56929318989E+00 -0.17234729274E+03  0.17241827984E+03  0.00000000000E+00 0. -1.
        -15    1    1    2    0    0  0.47004639563E+01 -0.43602625504E+01  0.27322876215E+02  0.28121229428E+02  0.17770000000E+01 0.  1.
         15    1    1    2    0    0  0.48509567947E+01 -0.40320122636E-01 -0.89510786105E+01  0.10335034825E+02  0.17770000000E+01 0.  1.
</event>
<event>
 6    1  0.8353910E-003  0.1842610E+03  0.7546771E-02  0.1067062E+00
        -11   -1    0    0    0    0  0.00000000000E+00  0.00000000000E+00  0.18250000000E+03  0.18250000000E+03  0.00000000000E+00 0. -1.
         11   -1    0    0    0    0 -0.00000000000E+00 -0.00000000000E+00 -0.18250000000E+03  0.18250000000E+03  0.00000000000E+00 0.  1.
        -11    1    1    2    0    0 -0.26501194409E+01  0.18999621269E+01  0.13835857566E+03  0.13839699580E+03  0.00000000000E+00 0. -1.
         11    1    1    2    0    0 -0.49974307390E+01  0.15720016465E+01 -0.18066309026E+03  0.18073903199E+03  0.00000000000E+00 0.  1.
        -15    1    1    2    0    0  0.66761411077E+01 -0.82213125258E+01  0.36721705840E+02  0.38259668693E+02  0.17770000000E+01 0.  1.
         15    1    1    2    0    0  0.97140907225E+00  0.47493487524E+01  0.55828087625E+01  0.76043035076E+01  0.17770000000E+01 0. -1.
</event>
<event>
 6    1  0.8353910E-003  0.1831037E+03  0.7546771E-02  0.1067975E+00
        -11   -1    0    0    0    0  0.00000000000E+00  0.00000000000E+00  0.18250000000E+03  0.18250000000E+03  0.00000000000E+00 0. -1.
         11   -1    0    0    0    0 -0.00000000000E+00 -0.00000000000E+00 -0.18250000000E+03  0.18250000000E+03  0.00000000000E+00 0. -1.
        -11    1    1    2    0    0  0.27429091144E+01  0.15023006585E+00  0.15002292856E+03  0.15004807634E+03  0.00000000000E+00 0. -1.
         11    1    1    2    0    0 -0.28713516858E+01 -0.47586999487E+00 -0.18187297059E+03  0.18189625764E+03  0.00000000000E+00 0. -1.
        -15    1    1    2    0    0  0.37635439396E+01 -0.12650777163E+01  0.18943541163E+02  0.19436567737E+02  0.17770000000E+01 0.  1.
         15    1    1    2    0    0 -0.36351013683E+01  0.15907176453E+01  0.12906500868E+02  0.13619098290E+02  0.17770000000E+01 0. -1.
</event>
<event>
 6    1  0.8353910E-003  0.1857201E+03  0.7546771E-02  0.1065920E+00
        -11   -1    0    0    0    0  0.00000000000E+00  0.00000000000E+00  0.18250000000E+03  0.18250000000E+03  0.00000000000E+00 0. -1.
         11   -1    0    0    0    0 -0.00000000000E+00 -0.00000000000E+00 -0.18250000000E+03  0.18250000000E+03  0.00000000000E+00 0.  1.
        -11    1    1    2    0    0 -0.39393825733E+01  0.17228160890E+01  0.16724241850E+03  0.16729767893E+03  0.00000000000E+00 0. -1.
         11    1    1    2    0    0 -0.21058811237E+01 -0.13279862959E+01 -0.17926265220E+03  0.17927993964E+03  0.00000000000E+00 0.  1.
        -15    1    1    2    0    0  0.42466403337E+01  0.63420929440E-01  0.14277947312E+02  0.15001849379E+02  0.17770000000E+01 0. -1.
         15    1    1    2    0    0  0.17986233634E+01 -0.45825072255E+00 -0.22577136111E+01  0.34205320460E+01  0.17770000000E+01 0. -1.
</event>
<event>
 6    1  0.8353910E-003  0.1827040E+03  0.7546771E-02  0.1068293E+00
        -11   -1    0    0    0    0  0.00000000000E+00  0.00000000000E+00  0.18250000000E+03  0.18250000000E+03  0.00000000000E+00 0.  1.
         11   -1    0    0    0    0 -0.00000000000E+00 -0.00000000000E+00 -0.18250000000E+03  0.18250000000E+03  0.00000000000E+00 0. -1.
        -11    1    1    2    0    0  0.45700659416E-02  0.27639162689E+01  0.18227506413E+03  0.18229601822E+03  0.00000000000E+00 0.  1.
         11    1    1    2    0    0  0.23179140692E+01 -0.30889268260E+01 -0.99470949189E+02  0.99545888550E+02  0.00000000000E+00 0. -1.
        -15    1    1    2    0    0 -0.17730248515E+00  0.29998326998E+01 -0.27759369276E+02  0.27978040388E+02  0.17770000000E+01 0. -1.
         15    1    1    2    0    0 -0.21451816500E+01 -0.26748221428E+01 -0.55044745665E+02  0.55180052846E+02  0.17770000000E+01 0. -1.
</event>
<event>
 6    1  0.8353910E-003  0.1827399E+03  0.7546771E-02  0.1068264E+00
        -11   -1    0    0    0    0  0.00000000000E+00  0.00000000000E+00  0.18250000000E+03  0.18250000000E+03  0.00000000000E+00 0. -1.
         11   -1    0    0    0    0 -0.00000000000E+00 -0.00000000000E+00 -0.18250000000E+03  0.18250000000E+03  0.00000000000E+00 0.  1.
        -11    1    1    2    0    0 -0.14703778487E+01 -0.28246631601E+01  0.18223232627E+03  0.18226014779E+03  0.00000000000E+00 0. -1.
         11    1    1    2    0    0 -0.45265392149E+00  0.35888823859E+01 -0.89313744731E+02  0.89386967563E+02  0.00000000000E+00 0.  1.
        -15    1    1    2    0    0  0.44453220637E+01  0.16327716875E+01 -0.56109763402E+02  0.56337288803E+02  0.17770000000E+01 0. -1.
         15    1    1    2    0    0 -0.25222902935E+01 -0.23969909132E+01 -0.36808818141E+02  0.37015595844E+02  0.17770000000E+01 0.  1.
</event>
<event>
 6    1  0.8353910E-003  0.1834658E+03  0.7546771E-02  0.1067689E+00
        -11   -1    0    0    0    0  0.00000000000E+00  0.00000000000E+00  0.18250000000E+03  0.18250000000E+03  0.00000000000E+00 0.  1.
         11   -1    0    0    0    0 -0.00000000000E+00 -0.00000000000E+00 -0.18250000000E+03  0.18250000000E+03  0.00000000000E+00 0. -1.
        -11    1    1    2    0    0  0.53565674264E+00 -0.19124233943E+01  0.14085212809E+03  0.14086612893E+03  0.00000000000E+00 0.  1.
         11    1    1    2    0    0  0.27489587805E+01 -0.53253969804E+00 -0.18151263605E+03  0.18153423208E+03  0.00000000000E+00 0. -1.
        -15    1    1    2    0    0 -0.30300960632E+01 -0.20135714303E+01  0.34733750414E+02  0.34968944778E+02  0.17770000000E+01 0. -1.
         15    1    1    2    0    0 -0.25451946000E+00  0.44585345226E+01  0.59267575386E+01  0.76306942126E+01  0.17770000000E+01 0.  1.
</event>
<event>
 6    1  0.8353910E-003  0.1834065E+03  0.7546771E-02  0.1067736E+00
        -11   -1    0    0    0    0  0.00000000000E+00  0.00000000000E+00  0.18250000000E+03  0.18250000000E+03  0.00000000000E+00 0.  1.
         11   -1    0    0    0    0 -0.00000000000E+00 -0.00000000000E+00 -0.18250000000E+03  0.18250000000E+03  0.00000000000E+00 0.  1.
        -11    1    1    2    0    0 -0.22699828242E+01  0.14550482170E+01  0.18157348982E+03  0.18159350812E+03  0.00000000000E+00 0.  1.
         11    1    1    2    0    0  0.20038557604E+01 -0.15841904696E+01 -0.15867217130E+03  0.15869273153E+03  0.00000000000E+00 0.  1.
        -15    1    1    2    0    0  0.10187588513E+01  0.37118072435E+01 -0.17163923001E+02  0.17679744466E+02  0.17770000000E+01 0.  1.
         15    1    1    2    0    0 -0.75263178756E+00 -0.35826649909E+01 -0.57373955194E+01  0.70340158793E+01  0.17770000000E+01 0. -1.
</event>
<event>
 6    1  0.8353910E-003  0.1844641E+03  0.7546771E-02  0.1066902E+00
        -11   -1    0    0    0    0  0.00000000000E+00  0.00000000000E+00  0.18250000000E+03  0.18250000000E+03  0.00000000000E+00 0. -1.
         11   -1    0    0    0    0 -0.00000000000E+00 -0.00000000000E+00 -0.18250000000E+03  0.18250000000E+03  0.00000000000E+00 0.  1.
        -11    1    1    2    0    0  0.22057029824E+01  0.81293822373E+00  0.15861972622E+03  0.15863714426E+03  0.00000000000E+00 0. -1.
         11    1    1    2    0    0  0.39952536073E+01 -0.16276583449E+01 -0.18048434221E+03  0.18053589423E+03  0.00000000000E+00 0.  1.
        -15    1    1    2    0    0  0.17895117644E+01  0.35550614011E+01  0.37071159833E+01  0.57219971893E+01  0.17770000000E+01 0.  1.
         15    1    1    2    0    0 -0.79904683541E+01 -0.27403412800E+01  0.18157500003E+02  0.20104964318E+02  0.17770000000E+01 0. -1.
</event>
<event>
 6    1  0.8353910E-003  0.1833411E+03  0.7546771E-02  0.1067787E+00
        -11   -1    0    0    0    0  0.00000000000E+00  0.00000000000E+00  0.18250000000E+03  0.18250000000E+03  0.00000000000E+00 0. -1.
         11   -1    0    0    0    0 -0.00000000000E+00 -0.00000000000E+00 -0.18250000000E+03  0.18250000000E+03  0.00000000000E+00 0.  1.
        -11    1    1    2    0    0  0.12913958027E+01 -0.24312899449E+01  0.14645618912E+03  0.14648206104E+03  0.00000000000E+00 0. -1.
         11    1    1    2    0    0  0.39712250882E+01  0.44614773910E+01 -0.18156063881E+03  0.18165885879E+03  0.00000000000E+00 0.  1.
        -15    1    1    2    0    0 -0.42207077217E+01 -0.11479213472E+01  0.58433358733E+01  0.75122832893E+01  0.17770000000E+01 0.  1.
         15    1    1    2    0    0 -0.10419131692E+01 -0.88226609888E+00  0.29261113819E+02  0.29346796886E+02  0.17770000000E+01 0. -1.
</event>
<event>
 6    1  0.8863487E-003  0.1853873E+03  0.7546771E-02  0.1066180E+00
        -11   -1    0    0    0    0  0.00000000000E+00  0.00000000000E+00  0.18250000000E+03  0.18250000000E+03  0.00000000000E+00 0. -1.
         11   -1    0    0    0    0 -0.00000000000E+00 -0.00000000000E+00 -0.18250000000E+03  0.18250000000E+03  0.00000000000E+00 0. -1.
        -11    1    1    2    0    0 -0.23068523656E+01  0.26287697106E+00  0.15558660196E+03  0.15560392470E+03  0.00000000000E+00 0. -1.
         11    1    1    2    0    0  0.22481280322E+01  0.64244341101E+01 -0.17948373217E+03  0.17961274328E+03  0.00000000000E+00 0. -1.
        -15    1    1    2    0    0  0.25425123964E+00 -0.57243822828E+01  0.20333764255E+00  0.60026886817E+01  0.17770000000E+01 0. -1.
         15    1    1    2    0    0 -0.19552690625E+00 -0.96292879844E+00  0.23693792564E+02  0.23780643341E+02  0.17770000000E+01 0.  1.
</event>
<event>
 6    1  0.8353910E-003  0.1768742E+03  0.7546771E-02  0.1073023E+00
        -11   -1    0    0    0    0  0.00000000000E+00  0.00000000000E+00  0.18250000000E+03  0.18250000000E+03  0.00000000000E+00 0. -1.
         11   -1    0    0    0    0 -0.00000000000E+00 -0.00000000000E+00 -0.18250000000E+03  0.18250000000E+03  0.00000000000E+00 0.  1.
        -11    1    1    2    0    0  0.27815151997E+01 -0.25864255360E+01  0.17609355844E+03  0.17613451606E+03  0.00000000000E+00 0. -1.
         11    1    1    2    0    0  0.63153474496E+00 -0.28974233033E+01 -0.17765150356E+03  0.17767625225E+03  0.00000000000E+00 0.  1.
        -15    1    1    2    0    0  0.21617691503E+01  0.22207345110E+01 -0.14370559816E+01  0.38506839031E+01  0.17770000000E+01 0.  1.
         15    1    1    2    0    0 -0.55748190949E+01  0.32631143282E+01  0.29950010986E+01  0.73385477883E+01  0.17770000000E+01 0. -1.
</event>
<event>
 6    1  0.8353910E-003  0.1763442E+03  0.7546771E-02  0.1073463E+00
        -11   -1    0    0    0    0  0.00000000000E+00  0.00000000000E+00  0.18250000000E+03  0.18250000000E+03  0.00000000000E+00 0.  1.
         11   -1    0    0    0    0 -0.00000000000E+00 -0.00000000000E+00 -0.18250000000E+03  0.18250000000E+03  0.00000000000E+00 0.  1.
        -11    1    1    2    0    0 -0.12861218438E+01  0.25755628995E+01  0.17628205824E+03  0.17630556341E+03  0.00000000000E+00 0.  1.
         11    1    1    2    0    0 -0.42312743424E+01  0.13513376186E+00 -0.17638553443E+03  0.17643633044E+03  0.00000000000E+00 0.  1.
        -15    1    1    2    0    0  0.14670498891E+01 -0.31563586195E+01 -0.44309314075E+01  0.59081060629E+01  0.17770000000E+01 0. -1.
         15    1    1    2    0    0  0.40503462971E+01  0.44566195818E+00  0.45344076031E+01  0.63500000802E+01  0.17770000000E+01 0.  1.
</event>
<event>
 6    1  0.8353910E-003  0.1825788E+03  0.7546771E-02  0.1068392E+00
        -11   -1    0    0    0    0  0.00000000000E+00  0.00000000000E+00  0.18250000000E+03  0.18250000000E+03  0.00000000000E+00 0.  1.
         11   -1    0    0    0    0 -0.00000000000E+00 -0.00000000000E+00 -0.18250000000E+03  0.18250000000E+03  0.00000000000E+00 0. -1.
        -11    1    1    2    0    0 -0.16426679888E+01 -0.18288582558E+01  0.18240460217E+03  0.18242116647E+03  0.00000000000E+00 0.  1.
         11    1    1    2    0    0 -0.11792118734E+01  0.25626811113E+01 -0.60540773299E+02  0.60606460933E+02  0.00000000000E+00 0. -1.
        -15    1    1    2    0    0  0.21763368514E+00 -0.77951038262E+00 -0.54099932048E+02  0.54135158422E+02  0.17770000000E+01 0. -1.
         15    1    1    2    0    0  0.26042461770E+01  0.45687527071E-01 -0.67763896827E+02  0.67837214179E+02  0.17770000000E+01 0. -1.
</event>
<event>
 6    1  0.8353910E-003  0.1899534E+03  0.7546771E-02  0.1062672E+00
        -11   -1    0    0    0    0  0.00000000000E+00  0.00000000000E+00  0.18250000000E+03  0.18250000000E+03  0.00000000000E+00 0.  1.
         11   -1    0    0    0    0 -0.00000000000E+00 -0.00000000000E+00 -0.18250000000E+03  0.18250000000E+03  0.00000000000E+00 0.  1.
        -11    1    1    2    0    0  0.22344777409E+01 -0.45789571207E+01  0.16639569198E+03  0.16647367975E+03  0.00000000000E+00 0.  1.
         11    1    1    2    0    0  0.48256878990E+01 -0.19197770304E+01 -0.17496949892E+03  0.17504656054E+03  0.00000000000E+00 0.  1.
        -15    1    1    2    0    0 -0.26034716911E+01  0.25920789913E+01 -0.62228020423E+01  0.74416350758E+01  0.17770000000E+01 0.  1.
         15    1    1    2    0    0 -0.44566939489E+01  0.39066551598E+01  0.14796608975E+02  0.16038124630E+02  0.17770000000E+01 0.  1.
</event>
<event>
 6    1  0.8353910E-003  0.1910215E+03  0.7546771E-02  0.1061867E+00
        -11   -1    0    0    0    0  0.00000000000E+00  0.00000000000E+00  0.18250000000E+03  0.18250000000E+03  0.00000000000E+00 0.  1.
         11   -1    0    0    0    0 -0.00000000000E+00 -0.00000000000E+00 -0.18250000000E+03  0.18250000000E+03  0.00000000000E+00 0.  1.
        -11    1    1    2    0    0 -0.19356696147E+01  0.78458844311E+00  0.75767705821E+02  0.75796488317E+02  0.00000000000E+00 0.  1.
         11    1    1    2    0    0  0.80780577449E+01 -0.10486880539E+02 -0.17347419636E+03  0.17397852306E+03  0.00000000000E+00 0.  1.
        -15    1    1    2    0    0 -0.80328430027E+01  0.22689439746E+02  0.93520852209E+01  0.25883517336E+02  0.17770000000E+01 0.  1.
         15    1    1    2    0    0  0.18904548726E+01 -0.12987147650E+02  0.88354405322E+02  0.89341471292E+02  0.17770000000E+01 0.  1.
</event>
<event>
 6    1  0.8353910E-003  0.1841739E+03  0.7546771E-02  0.1067130E+00
        -11   -1    0    0    0    0  0.00000000000E+00  0.00000000000E+00  0.18250000000E+03  0.18250000000E+03  0.00000000000E+00 0.  1.
         11   -1    0    0    0    0 -0.00000000000E+00 -0.00000000000E+00 -0.18250000000E+03  0.18250000000E+03  0.00000000000E+00 0.  1.
        -11    1    1    2    0    0 -0.23292253051E+00 -0.11788797448E+02  0.13157549827E+03  0.13210276963E+03  0.00000000000E+00 0.  1.
         11    1    1    2    0    0 -0.23667012330E+01 -0.16457195942E+01 -0.18080310096E+03  0.18082607938E+03  0.00000000000E+00 0.  1.
        -15    1    1    2    0    0 -0.10067075541E+01 -0.40688440878E+00  0.30250245821E+01  0.36725356015E+01  0.17770000000E+01 0. -1.
         15    1    1    2    0    0  0.36063313176E+01  0.13841401451E+02  0.46202578102E+02  0.48398615393E+02  0.17770000000E+01 0. -1.
</event>
<event>
 6    1  0.8353910E-003  0.1871574E+03  0.7546771E-02  0.1064807E+00
        -11   -1    0    0    0    0  0.00000000000E+00  0.00000000000E+00  0.18250000000E+03  0.18250000000E+03  0.00000000000E+00 0.  1.
         11   -1    0    0    0    0 -0.00000000000E+00 -0.00000000000E+00 -0.18250000000E+03  0.18250000000E+03  0.00000000000E+00 0. -1.
        -11    1    1    2    0    0  0.40562959457E+01  0.17571891007E+01  0.17778763094E+03  0.17784257917E+03  0.00000000000E+00 0.  1.
         11    1    1    2    0    0  0.10458311637E+02  0.11490099945E+02 -0.12715118180E+03  0.12809692312E+03  0.00000000000E+00 0. -1.
        -15    1    1    2    0    0 -0.39469531998E+01  0.56258840587E+01 -0.22078224833E+02  0.23191264557E+02  0.17770000000E+01 0.  1.
         15    1    1    2    0    0 -0.10567654383E+02 -0.18873173104E+02 -0.28558224307E+02  0.35869233149E+02  0.17770000000E+01 0. -1.
</event>
<event>
 6    1  0.8353910E-003  0.1674343E+03  0.7546771E-02  0.1081123E+00
        -11   -1    0    0    0    0  0.00000000000E+00  0.00000000000E+00  0.18250000000E+03  0.18250000000E+03  0.00000000000E+00 0. -1.
         11   -1    0    0    0    0 -0.00000000000E+00 -0.00000000000E+00 -0.18250000000E+03  0.18250000000E+03  0.00000000000E+00 0. -1.
        -11    1    1    2    0    0 -0.66199922312E+01  0.18709250682E+00  0.16770611369E+03  0.16783682513E+03  0.00000000000E+00 0. -1.
         11    1    1    2    0    0 -0.18513278509E+01 -0.47013096791E+01 -0.16709360543E+03  0.16716998146E+03  0.00000000000E+00 0. -1.
        -15    1    1    2    0    0  0.50443061126E+01  0.97314231245E+00 -0.14320954447E+02  0.15317946840E+02  0.17770000000E+01 0. -1.
         15    1    1    2    0    0  0.34270139694E+01  0.35410748598E+01  0.13708446181E+02  0.14675246561E+02  0.17770000000E+01 0.  1.
</event>
<event>
 6    1  0.8353910E-003  0.1828567E+03  0.7546771E-02  0.1068171E+00
        -11   -1    0    0    0    0  0.00000000000E+00  0.00000000000E+00  0.18250000000E+03  0.18250000000E+03  0.00000000000E+00 0. -1.
         11   -1    0    0    0    0 -0.00000000000E+00 -0.00000000000E+00 -0.18250000000E+03  0.18250000000E+03  0.00000000000E+00 0. -1.
        -11    1    1    2    0    0 -0.51769834177E+01  0.23196970610E+01  0.18205494797E+03  0.18214331234E+03  0.00000000000E+00 0. -1.
         11    1    1    2    0    0 -0.14155681382E+01  0.90080356218E+00 -0.93849986994E+02  0.93864984627E+02  0.00000000000E+00 0. -1.
        -15    1    1    2    0    0 -0.34758240046E+00 -0.30764189747E+01 -0.49535879863E+02  0.49664336199E+02  0.17770000000E+01 0. -1.
         15    1    1    2    0    0  0.69401339564E+01 -0.14408164854E+00 -0.38669081112E+02  0.39327366831E+02  0.17770000000E+01 0. -1.
</event>
<event>
 6    1  0.8353910E-003  0.1832202E+03  0.7546771E-02  0.1067883E+00
        -11   -1    0    0    0    0  0.00000000000E+00  0.00000000000E+00  0.18250000000E+03  0.18250000000E+03  0.00000000000E+00 0.  1.
         11   -1    0    0    0    0 -0.00000000000E+00 -0.00000000000E+00 -0.18250000000E+03  0.18250000000E+03  0.00000000000E+00 0.  1.
        -11    1    1    2    0    0 -0.24274304091E+00 -0.31715056922E+01  0.18175199720E+03  0.18177982798E+03  0.00000000000E+00 0.  1.
         11    1    1    2    0    0 -0.11401379759E+01  0.32607366782E+01 -0.15310895812E+03  0.15314791992E+03  0.00000000000E+00 0.  1.
        -15    1    1    2    0    0 -0.20061562609E+01  0.20354220675E+01 -0.49971627952E+01  0.60246967507E+01  0.17770000000E+01 0. -1.
         15    1    1    2    0    0  0.33890372777E+01 -0.21246530534E+01 -0.23645876286E+02  0.24047555356E+02  0.17770000000E+01 0.  1.
</event>
<event>
 6    1  0.8353910E-003  0.1867700E+03  0.7546771E-02  0.1065106E+00
        -11   -1    0    0    0    0  0.00000000000E+00  0.00000000000E+00  0.18250000000E+03  0.18250000000E+03  0.00000000000E+00 0.  1.
         11   -1    0    0    0    0 -0.00000000000E+00 -0.00000000000E+00 -0.18250000000E+03  0.18250000000E+03  0.00000000000E+00 0.  1.
        -11    1    1    2    0    0  0.11866537498E+01  0.11798239352E+01  0.12149419669E+03  0.12150571987E+03  0.00000000000E+00 0.  1.
         11    1    1    2    0    0  0.17343403260E+01  0.18832817574E+01 -0.17821162396E+03  0.17823001319E+03  0.00000000000E+00 0.  1.
        -15    1    1    2    0    0 -0.59618777620E+00  0.12768858691E+01 -0.38514736542E+01  0.44696147145E+01  0.17770000000E+01 0. -1.
         15    1    1    2    0    0 -0.23248062996E+01 -0.43399915617E+01  0.60568900923E+02  0.60794652225E+02  0.17770000000E+01 0.  1.
</event>
<event>
 6    1  0.8353910E-003  0.1835795E+03  0.7546771E-02  0.1067599E+00
        -11   -1    0    0    0    0  0.00000000000E+00  0.00000000000E+00  0.18250000000E+03  0.18250000000E+03  0.00000000000E+00 0.  1.
         11   -1    0    0    0    0 -0.00000000000E+00 -0.00000000000E+00 -0.18250000000E+03  0.18250000000E+03  0.00000000000E+00 0. -1.
        -11    1    1    2    0    0 -0.15173588104E+01  0.49196593052E+01  0.13371439641E+03  0.13381347179E+03  0.00000000000E+00 0.  1.
         11    1    1    2    0    0  0.92347324813E+00  0.42157771685E+01 -0.18136920167E+03  0.18142054155E+03  0.00000000000E+00 0. -1.
        -15    1    1    2    0    0  0.19902887358E+01 -0.17331744677E+01  0.33351964178E+02  0.33503378733E+02  0.17770000000E+01 0.  1.
         15    1    1    2    0    0 -0.13964031736E+01 -0.74022620060E+01  0.14302841086E+02  0.16262607932E+02  0.17770000000E+01 0. -1.
</event>
<event>
 6    1  0.8353910E-003  0.1937651E+03  0.7546771E-02  0.1059825E+00
        -11   -1    0    0    0    0  0.00000000000E+00  0.00000000000E+00  0.18250000000E+03  0.18250000000E+03  0.00000000000E+00 0. -1.
         11   -1    0    0    0    0 -0.00000000000E+00 -0.00000000000E+00 -0.18250000000E+03  0.18250000000E+03  0.00000000000E+00 0. -1.
        -11    1    1    2    0    0  0.52137422551E+01 -0.86975134075E-01  0.16681222686E+03  0.16689370780E+03  0.00000000000E+00 0. -1.
         11    1    1    2    0    0 -0.26705267701E+01 -0.33649351227E+01 -0.17118097266E+03  0.17123486766E+03  0.00000000000E+00 0. -1.
        -15    1    1    2    0    0  0.26244211129E+01 -0.48590610090E+01 -0.86946035837E+01  0.10452364352E+02  0.17770000000E+01 0.  1.
         15    1    1    2    0    0 -0.51676365980E+01  0.83109712658E+01  0.13063349388E+02  0.16419060193E+02  0.17770000000E+01 0. -1.
</event>
<event>
 6    1  0.8353910E-003  0.1868570E+03  0.7546771E-02  0.1065039E+00
        -11   -1    0    0    0    0  0.00000000000E+00  0.00000000000E+00  0.18250000000E+03  0.18250000000E+03  0.00000000000E+00 0. -1.
         11   -1    0    0    0    0 -0.00000000000E+00 -0.00000000000E+00 -0.18250000000E+03  0.18250000000E+03  0.00000000000E+00 0. -1.
        -11    1    1    2    0    0 -0.45707916531E+01  0.22669347506E+01  0.17806991469E+03  0.17814299214E+03  0.00000000000E+00 0. -1.
         11    1    1    2    0    0  0.61151155755E+00 -0.10912815619E+02 -0.67247212228E+02  0.68129663463E+02  0.00000000000E+00 0. -1.
        -15    1    1    2    0    0  0.12713188237E+02  0.56286288864E+01 -0.94214077107E+01  0.16888672847E+02  0.17770000000E+01 0.  1.
         15    1    1    2    0    0 -0.87539081417E+01  0.30172519824E+01 -0.10140129475E+03  0.10183867155E+03  0.17770000000E+01 0. -1.
</event>
<event>
 6    1  0.8353910E-003  0.1894633E+03  0.7546771E-02  0.1063043E+00
        -11   -1    0    0    0    0  0.00000000000E+00  0.00000000000E+00  0.18250000000E+03  0.18250000000E+03  0.00000000000E+00 0.  1.
         11   -1    0    0    0    0 -0.00000000000E+00 -0.00000000000E+00 -0.18250000000E+03  0.18250000000E+03  0.00000000000E+00 0. -1.
        -11    1    1    2    0    0  0.66440953908E+00  0.21876169496E+01  0.16431920908E+03  0.16433511366E+03  0.00000000000E+00 0.  1.
         11    1    1    2    0    0  0.67624406377E+01  0.76215361878E+01 -0.17524075970E+03  0.17553672629E+03  0.00000000000E+00 0. -1.
        -15    1    1    2    0    0 -0.58473339936E+01 -0.87295787313E+00  0.14065986535E+02  0.15361089691E+02  0.17770000000E+01 0.  1.
         15    1    1    2    0    0 -0.15795161832E+01 -0.89361952643E+01 -0.31444359129E+01  0.97670703583E+01  0.17770000000E+01 0. -1.
</event>
<event>
 6    1  0.8353910E-003  0.1986443E+03  0.7546771E-02  0.1056284E+00
        -11   -1    0    0    0    0  0.00000000000E+00  0.00000000000E+00  0.18250000000E+03  0.18250000000E+03  0.00000000000E+00 0. -1.
         11   -1    0    0    0    0 -0.00000000000E+00 -0.00000000000E+00 -0.18250000000E+03  0.18250000000E+03  0.00000000000E+00 0.  1.
        -11    1    1    2    0    0 -0.24691736156E+01 -0.33951225337E+00  0.15243472730E+03  0.15245510216E+03  0.00000000000E+00 0. -1.
         11    1    1    2    0    0 -0.14688045625E+01 -0.35314095608E+01 -0.16631175269E+03  0.16635572525E+03  0.00000000000E+00 0.  1.
        -15    1    1    2    0    0 -0.13268980217E+02  0.47601829642E+01 -0.95017478623E+01  0.17092867498E+02  0.17770000000E+01 0.  1.
         15    1    1    2    0    0  0.17206958395E+02 -0.88926114998E+00  0.23378773250E+02  0.29096305097E+02  0.17770000000E+01 0. -1.
</event>
<event>
 6    1  0.8353910E-003  0.1878910E+03  0.7546771E-02  0.1064243E+00
        -11   -1    0    0    0    0  0.00000000000E+00  0.00000000000E+00  0.18250000000E+03  0.18250000000E+03  0.00000000000E+00 0.  1.
         11   -1    0    0    0    0 -0.00000000000E+00 -0.00000000000E+00 -0.18250000000E+03  0.18250000000E+03  0.00000000000E+00 0. -1.
        -11    1    1    2    0    0 -0.48735927160E+01  0.44970947140E+01  0.14057851651E+03  0.14073483957E+03  0.00000000000E+00 0.  1.
         11    1    1    2    0    0  0.71455342259E+01 -0.47805717211E-01 -0.17696476599E+03  0.17710897591E+03  0.00000000000E+00 0. -1.
        -15    1    1    2    0    0 -0.70661954314E+01 -0.20368654976E+01 -0.24177588565E+01  0.79424949367E+01  0.17770000000E+01 0.  1.
         15    1    1    2    0    0  0.47942539215E+01 -0.24124234992E+01  0.38804008344E+02  0.39213689578E+02  0.17770000000E+01 0. -1.
</event>
<event>
 6    1  0.8353910E-003  0.1828223E+03  0.7546771E-02  0.1068199E+00
        -11   -1    0    0    0    0  0.00000000000E+00  0.00000000000E+00  0.18250000000E+03  0.18250000000E+03  0.00000000000E+00 0.  1.
         11   -1    0    0    0    0 -0.00000000000E+00 -0.00000000000E+00 -0.18250000000E+03  0.18250000000E+03  0.00000000000E+00 0.  1.
        -11    1    1    2    0    0 -0.15811589429E+01 -0.49787205567E+01  0.18210283669E+03  0.18217774521E+03  0.00000000000E+00 0.  1.
         11    1    1    2    0    0  0.11781758514E+01 -0.16055555607E+01 -0.66197302821E+02  0.66227251248E+02  0.00000000000E+00 0.  1.
        -15    1    1    2    0    0 -0.37117338369E+01  0.47361483187E+01 -0.91364383823E+02  0.91579563383E+02  0.17770000000E+01 0.  1.
         15    1    1    2    0    0  0.41147169284E+01  0.18481277988E+01 -0.24541150042E+02  0.25015440155E+02  0.17770000000E+01 0. -1.
</event>
<event>
 6    1  0.8353910E-003  0.1835185E+03  0.7546771E-02  0.1067647E+00
        -11   -1    0    0    0    0  0.00000000000E+00  0.00000000000E+00  0.18250000000E+03  0.18250000000E+03  0.00000000000E+00 0. -1.
         11   -1    0    0    0    0 -0.00000000000E+00 -0.00000000000E+00 -0.18250000000E+03  0.18250000000E+03  0.00000000000E+00 0.  1.
        -11    1    1    2    0    0  0.15629609127E+01 -0.20261376976E+01  0.18146345691E+03  0.18148149844E+03  0.00000000000E+00 0. -1.
         11    1    1    2    0    0  0.20586601958E+00  0.32069479650E+01 -0.15564723389E+03  0.15568040440E+03  0.00000000000E+00 0.  1.
        -15    1    1    2    0    0 -0.95472732319E+00  0.28997387429E+00 -0.13693532754E+00  0.20425644160E+01  0.17770000000E+01 0.  1.
         15    1    1    2    0    0 -0.81409960912E+00 -0.14707841417E+01 -0.25679287695E+02  0.25795532747E+02  0.17770000000E+01 0. -1.
</event>
<event>
 6    1  0.8353910E-003  0.1872207E+03  0.7546771E-02  0.1064758E+00
        -11   -1    0    0    0    0  0.00000000000E+00  0.00000000000E+00  0.18250000000E+03  0.18250000000E+03  0.00000000000E+00 0.  1.
         11   -1    0    0    0    0 -0.00000000000E+00 -0.00000000000E+00 -0.18250000000E+03  0.18250000000E+03  0.00000000000E+00 0. -1.
        -11    1    1    2    0    0 -0.57065072160E+01  0.35453600463E+01  0.16005546652E+03  0.16019639873E+03  0.00000000000E+00 0.  1.
         11    1    1    2    0    0  0.23754488774E+01  0.59560999554E+00 -0.17776246360E+03  0.17777933224E+03  0.00000000000E+00 0. -1.
        -15    1    1    2    0    0 -0.39343821949E+01 -0.92576568506E+01  0.13766664633E+02  0.17142413999E+02  0.17770000000E+01 0.  1.
         15    1    1    2    0    0  0.72654405334E+01  0.51166868088E+01  0.39403324425E+01  0.98818550283E+01  0.17770000000E+01 0. -1.
</event>
<event>
 6    1  0.8353910E-003  0.1869263E+03  0.7546771E-02  0.1064985E+00
        -11   -1    0    0    0    0  0.00000000000E+00  0.00000000000E+00  0.18250000000E+03  0.18250000000E+03  0.00000000000E+00 0.  1.
         11   -1    0    0    0    0 -0.00000000000E+00 -0.00000000000E+00 -0.18250000000E+03  0.18250000000E+03  0.00000000000E+00 0.  1.
        -11    1    1    2    0    0  0.41951879679E+01  0.62242644787E+00  0.17802318550E+03  0.17807369708E+03  0.00000000000E+00 0.  1.
         11    1    1    2    0    0 -0.19438125652E+01  0.10408947811E+02 -0.11195104528E+03  0.11245070539E+03  0.00000000000E+00 0.  1.
        -15    1    1    2    0    0 -0.43754403392E+01 -0.17092340195E+01  0.22224634648E+01  0.54920881227E+01  0.17770000000E+01 0. -1.
         15    1    1    2    0    0  0.21240649364E+01 -0.93221402393E+01 -0.68294603678E+02  0.68983509414E+02  0.17770000000E+01 0. -1.
</event>
<event>
 6    1  0.8353910E-003  0.1921530E+03  0.7546771E-02  0.1061021E+00
        -11   -1    0    0    0    0  0.00000000000E+00  0.00000000000E+00  0.18250000000E+03  0.18250000000E+03  0.00000000000E+00 0. -1.
         11   -1    0    0    0    0 -0.00000000000E+00 -0.00000000000E+00 -0.18250000000E+03  0.18250000000E+03  0.00000000000E+00 0.  1.
        -11    1    1    2    0    0 -0.16749293402E+01 -0.21768941603E+01  0.16972769994E+03  0.16974992307E+03  0.00000000000E+00 0. -1.
         11    1    1    2    0    0  0.41842646210E+00  0.32781330529E+01 -0.17281537903E+03  0.17284697413E+03  0.00000000000E+00 0.  1.
        -15    1    1    2    0    0 -0.14269679632E+00  0.35874961837E+01  0.11684954976E+02  0.12352586492E+02  0.17770000000E+01 0.  1.
         15    1    1    2    0    0  0.13991996744E+01 -0.46887350764E+01 -0.85972758870E+01  0.10050516306E+02  0.17770000000E+01 0.  1.
</event>
<event>
 6    1  0.8353910E-003  0.1852121E+03  0.7546771E-02  0.1066316E+00
        -11   -1    0    0    0    0  0.00000000000E+00  0.00000000000E+00  0.18250000000E+03  0.18250000000E+03  0.00000000000E+00 0.  1.
         11   -1    0    0    0    0 -0.00000000000E+00 -0.00000000000E+00 -0.18250000000E+03  0.18250000000E+03  0.00000000000E+00 0.  1.
        -11    1    1    2    0    0  0.25472324525E+01  0.36818564823E+00  0.11042144799E+03  0.11045143788E+03  0.00000000000E+00 0.  1.
         11    1    1    2    0    0  0.26755505420E+01 -0.96851621472E-01 -0.17976791783E+03  0.17978785340E+03  0.00000000000E+00 0.  1.
        -15    1    1    2    0    0  0.66119226993E+01  0.95649404020E+01  0.22040231430E+02  0.24982696755E+02  0.17770000000E+01 0.  1.
         15    1    1    2    0    0 -0.11834705694E+02 -0.98362744288E+01  0.47306238410E+02  0.49778011963E+02  0.17770000000E+01 0. -1.
</event>
<event>
 6    1  0.8353910E-003  0.1827800E+03  0.7546771E-02  0.1068232E+00
        -11   -1    0    0    0    0  0.00000000000E+00  0.00000000000E+00  0.18250000000E+03  0.18250000000E+03  0.00000000000E+00 0. -1.
         11   -1    0    0    0    0 -0.00000000000E+00 -0.00000000000E+00 -0.18250000000E+03  0.18250000000E+03  0.00000000000E+00 0. -1.
        -11    1    1    2    0    0 -0.51723284795E+00  0.45235832356E-01  0.29206428951E+02  0.29211043600E+02  0.00000000000E+00 0. -1.
         11    1    1    2    0    0 -0.33170515674E+01 -0.20333641742E+01 -0.18217848632E+03  0.18222002710E+03  0.00000000000E+00 0. -1.
        -15    1    1    2    0    0  0.53727277807E+01 -0.14946202598E+01  0.32448465473E+02  0.32972120558E+02  0.17770000000E+01 0. -1.
         15    1    1    2    0    0 -0.15384433654E+01  0.34827486017E+01  0.12052359189E+03  0.12059680874E+03  0.17770000000E+01 0.  1.
</event>
<event>
 6    1  0.8353910E-003  0.1946121E+03  0.7546771E-02  0.1059203E+00
        -11   -1    0    0    0    0  0.00000000000E+00  0.00000000000E+00  0.18250000000E+03  0.18250000000E+03  0.00000000000E+00 0. -1.
         11   -1    0    0    0    0 -0.00000000000E+00 -0.00000000000E+00 -0.18250000000E+03  0.18250000000E+03  0.00000000000E+00 0. -1.
        -11    1    1    2    0    0 -0.68075611423E+01  0.36501698463E+01  0.17021271610E+03  0.17038789673E+03  0.00000000000E+00 0. -1.
         11    1    1    2    0    0 -0.22456578459E+01  0.25563687712E+01 -0.15954001346E+03  0.15957629490E+03  0.00000000000E+00 0. -1.
        -15    1    1    2    0    0  0.35029580798E+01  0.11070924215E+01 -0.20831852510E+02  0.21227816113E+02  0.17770000000E+01 0. -1.
         15    1    1    2    0    0  0.55502609083E+01 -0.73136310391E+01  0.10159149864E+02  0.13807992254E+02  0.17770000000E+01 0.  1.
</event>
<event>
 6    1  0.8353910E-003  0.1826549E+03  0.7546771E-02  0.1068332E+00
        -11   -1    0    0    0    0  0.00000000000E+00  0.00000000000E+00  0.18250000000E+03  0.18250000000E+03  0.00000000000E+00 0. -1.
         11   -1    0    0    0    0 -0.00000000000E+00 -0.00000000000E+00 -0.18250000000E+03  0.18250000000E+03  0.00000000000E+00 0.  1.
        -11    1    1    2    0    0  0.24670081554E+01  0.66638761156E+01  0.18220655482E+03  0.18234506298E+03  0.00000000000E+00 0. -1.
         11    1    1    2    0    0  0.11003981646E+01 -0.94051871913E+00 -0.62503456106E+02  0.62520216544E+02  0.00000000000E+00 0.  1.
        -15    1    1    2    0    0 -0.29798002896E+01 -0.51743149213E+01 -0.47686385018E+02  0.48091597912E+02  0.17770000000E+01 0.  1.
         15    1    1    2    0    0 -0.58760603036E+00 -0.54904247517E+00 -0.72016713695E+02  0.72043122565E+02  0.17770000000E+01 0.  1.
</event>
<event>
 6    1  0.8353910E-003  0.1853900E+03  0.7546771E-02  0.1066177E+00
        -11   -1    0    0    0    0  0.00000000000E+00  0.00000000000E+00  0.18250000000E+03  0.18250000000E+03  0.00000000000E+00 0.  1.
         11   -1    0    0    0    0 -0.00000000000E+00 -0.00000000000E+00 -0.18250000000E+03  0.18250000000E+03  0.00000000000E+00 0. -1.
        -11    1    1    2    0    0 -0.34877445247E+01  0.19534294054E+01  0.17419943462E+03  0.17424529627E+03  0.00000000000E+00 0.  1.
         11    1    1    2    0    0  0.26588420669E+01  0.85233250668E+00 -0.17958824749E+03  0.17960995114E+03  0.00000000000E+00 0. -1.
        -15    1    1    2    0    0  0.15961844146E+01 -0.98229670064E+00 -0.20163463895E+01  0.32765978172E+01  0.17770000000E+01 0.  1.
         15    1    1    2    0    0 -0.76728195674E+00 -0.18234652115E+01  0.74051592554E+01  0.78681547758E+01  0.17770000000E+01 0. -1.
</event>
<event>
 6    1  0.8353910E-003  0.1828302E+03  0.7546771E-02  0.1068192E+00
        -11   -1    0    0    0    0  0.00000000000E+00  0.00000000000E+00  0.18250000000E+03  0.18250000000E+03  0.00000000000E+00 0. -1.
         11   -1    0    0    0    0 -0.00000000000E+00 -0.00000000000E+00 -0.18250000000E+03  0.18250000000E+03  0.00000000000E+00 0. -1.
        -11    1    1    2    0    0 -0.63078161824E+01  0.59205496048E+01  0.18196424337E+03  0.18216977608E+03  0.00000000000E+00 0. -1.
         11    1    1    2    0    0  0.54321854643E+00 -0.28617654776E+00 -0.21182995825E+02  0.21191892212E+02  0.00000000000E+00 0. -1.
        -15    1    1    2    0    0  0.12704648987E+01 -0.70480506642E+01 -0.35640200259E+02  0.36396025919E+02  0.17770000000E+01 0.  1.
         15    1    1    2    0    0  0.44941327373E+01  0.14136776071E+01 -0.12514104729E+03  0.12524230579E+03  0.17770000000E+01 0. -1.
</event>
<event>
 6    1  0.8353910E-003  0.1825402E+03  0.7546771E-02  0.1068423E+00
        -11   -1    0    0    0    0  0.00000000000E+00  0.00000000000E+00  0.18250000000E+03  0.18250000000E+03  0.00000000000E+00 0.  1.
         11   -1    0    0    0    0 -0.00000000000E+00 -0.00000000000E+00 -0.18250000000E+03  0.18250000000E+03  0.00000000000E+00 0.  1.
        -11    1    1    2    0    0  0.10453768351E+01  0.24375559746E+00  0.28514147336E+02  0.28534344706E+02  0.00000000000E+00 0.  1.
         11    1    1    2    0    0 -0.10734125031E+01 -0.26602648745E+01 -0.18243729272E+03  0.18245984490E+03  0.00000000000E+00 0.  1.
        -15    1    1    2    0    0 -0.54277354206E+00  0.12438106687E+01  0.11395073309E+03  0.11397266764E+03  0.17770000000E+01 0.  1.
         15    1    1    2    0    0  0.57080921001E+00  0.11726986083E+01  0.39972412294E+02  0.40033142754E+02  0.17770000000E+01 0. -1.
</event>
<event>
 6    1  0.8353910E-003  0.1779600E+03  0.7546771E-02  0.1072127E+00
        -11   -1    0    0    0    0  0.00000000000E+00  0.00000000000E+00  0.18250000000E+03  0.18250000000E+03  0.00000000000E+00 0. -1.
         11   -1    0    0    0    0 -0.00000000000E+00 -0.00000000000E+00 -0.18250000000E+03  0.18250000000E+03  0.00000000000E+00 0. -1.
        -11    1    1    2    0    0  0.41263017426E+00  0.38059835807E+01  0.17860132300E+03  0.17864234759E+03  0.00000000000E+00 0. -1.
         11    1    1    2    0    0  0.30266593502E+01 -0.12194022046E+01 -0.17727613119E+03  0.17730615979E+03  0.00000000000E+00 0. -1.
        -15    1    1    2    0    0  0.10722650866E+01 -0.27727463451E+01  0.10903413492E+01  0.36310395162E+01  0.17770000000E+01 0.  1.
         15    1    1    2    0    0 -0.45115546110E+01  0.18616496903E+00 -0.24155331636E+01  0.54204531054E+01  0.17770000000E+01 0. -1.
</event>
<event>
 6    1  0.8353910E-003  0.1844202E+03  0.7546771E-02  0.1066937E+00
        -11   -1    0    0    0    0  0.00000000000E+00  0.00000000000E+00  0.18250000000E+03  0.18250000000E+03  0.00000000000E+00 0. -1.
         11   -1    0    0    0    0 -0.00000000000E+00 -0.00000000000E+00 -0.18250000000E+03  0.18250000000E+03  0.00000000000E+00 0. -1.
        -11    1    1    2    0    0 -0.99434170537E-01  0.36693627645E+01  0.92517361951E+02  0.92590152676E+02  0.00000000000E+00 0. -1.
         11    1    1    2    0    0  0.27435359567E+01  0.42816600504E+01 -0.18050820687E+03  0.18057982265E+03  0.00000000000E+00 0. -1.
        -15    1    1    2    0    0 -0.19302804856E+00 -0.15113443109E+01  0.83242473711E+02  0.83275377993E+02  0.17770000000E+01 0. -1.
         15    1    1    2    0    0 -0.24510737376E+01 -0.64396785041E+01  0.47483712060E+01  0.85546466796E+01  0.17770000000E+01 0.  1.
</event>
<event>
 6    1  0.8353910E-003  0.1837938E+03  0.7546771E-02  0.1067430E+00
        -11   -1    0    0    0    0  0.00000000000E+00  0.00000000000E+00  0.18250000000E+03  0.18250000000E+03  0.00000000000E+00 0.  1.
         11   -1    0    0    0    0 -0.00000000000E+00 -0.00000000000E+00 -0.18250000000E+03  0.18250000000E+03  0.00000000000E+00 0. -1.
        -11    1    1    2    0    0  0.29150548837E+01  0.40040078439E+00  0.18118226353E+03  0.18120615465E+03  0.00000000000E+00 0.  1.
         11    1    1    2    0    0  0.34558525401E+01  0.17163993782E+01 -0.16688306565E+03  0.16692766860E+03  0.00000000000E+00 0. -1.
        -15    1    1    2    0    0 -0.57263543671E+01 -0.14253218022E+01 -0.13211700856E+02  0.14578389661E+02  0.17770000000E+01 0.  1.
         15    1    1    2    0    0 -0.64455305664E+00 -0.69147836037E+00 -0.10874970211E+01  0.22877870829E+01  0.17770000000E+01 0. -1.
</event>
<event>
 6    1  0.8353910E-003  0.1913101E+03  0.7546771E-02  0.1061650E+00
        -11   -1    0    0    0    0  0.00000000000E+00  0.00000000000E+00  0.18250000000E+03  0.18250000000E+03  0.00000000000E+00 0.  1.
         11   -1    0    0    0    0 -0.00000000000E+00 -0.00000000000E+00 -0.18250000000E+03  0.18250000000E+03  0.00000000000E+00 0. -1.
        -11    1    1    2    0    0  0.49699538647E+01  0.48292362223E+01  0.15882246249E+03  0.15897357188E+03  0.00000000000E+00 0.  1.
         11    1    1    2    0    0  0.19468870038E+01 -0.26600971557E+01 -0.17365857108E+03  0.17368985519E+03  0.00000000000E+00 0. -1.
        -15    1    1    2    0    0 -0.41610612770E+01  0.46173014156E+01 -0.68255875357E+01  0.94010785297E+01  0.17770000000E+01 0. -1.
         15    1    1    2    0    0 -0.27557795915E+01 -0.67864404822E+01  0.21661696127E+02  0.22935494406E+02  0.17770000000E+01 0.  1.
</event>
<event>
 6    1  0.8353910E-003  0.1926772E+03  0.7546771E-02  0.1060630E+00
        -11   -1    0    0    0    0  0.00000000000E+00  0.00000000000E+00  0.18250000000E+03  0.18250000000E+03  0.00000000000E+00 0.  1.
         11   -1    0    0    0    0 -0.00000000000E+00 -0.00000000000E+00 -0.18250000000E+03  0.18250000000E+03  0.00000000000E+00 0.  1.
        -11    1    1    2    0    0  0.17625790224E+01 -0.24538878421E+01  0.17229626280E+03  0.17232275075E+03  0.00000000000E+00 0.  1.
         11    1    1    2    0    0  0.23948952630E+01 -0.69198131000E+00 -0.16587793115E+03  0.16589666183E+03  0.00000000000E+00 0.  1.
        -15    1    1    2    0    0 -0.60459448450E+01  0.39694456262E+01  0.86810633668E+01  0.11438030330E+02  0.17770000000E+01 0.  1.
         15    1    1    2    0    0  0.18884705597E+01 -0.82357647407E+00 -0.15099395018E+02  0.15342557093E+02  0.17770000000E+01 0.  1.
</event>
<event>
 6    1  0.8353910E-003  0.1776815E+03  0.7546771E-02  0.1072356E+00
        -11   -1    0    0    0    0  0.00000000000E+00  0.00000000000E+00  0.18250000000E+03  0.18250000000E+03  0.00000000000E+00 0.  1.
         11   -1    0    0    0    0 -0.00000000000E+00 -0.00000000000E+00 -0.18250000000E+03  0.18250000000E+03  0.00000000000E+00 0.  1.
        -11    1    1    2    0    0  0.13645940067E+01 -0.29579708606E+01  0.17884315386E+03  0.17887281904E+03  0.00000000000E+00 0.  1.
         11    1    1    2    0    0  0.28456218790E+01  0.14886245075E+01 -0.17649661428E+03  0.17652582933E+03  0.00000000000E+00 0.  1.
        -15    1    1    2    0    0 -0.24839652136E+01  0.97087893213E+00 -0.49988347391E+01  0.59379092981E+01  0.17770000000E+01 0. -1.
         15    1    1    2    0    0 -0.17262506721E+01  0.49846742107E+00  0.26522951623E+01  0.36634423403E+01  0.17770000000E+01 0.  1.
</event>
<event>
 6    1  0.8353910E-003  0.1728022E+03  0.7546771E-02  0.1076447E+00
        -11   -1    0    0    0    0  0.00000000000E+00  0.00000000000E+00  0.18250000000E+03  0.18250000000E+03  0.00000000000E+00 0.  1.
         11   -1    0    0    0    0 -0.00000000000E+00 -0.00000000000E+00 -0.18250000000E+03  0.18250000000E+03  0.00000000000E+00 0.  1.
        -11    1    1    2    0    0 -0.66252371957E+00 -0.82194342693E+01  0.17499614800E+03  0.17519032465E+03  0.00000000000E+00 0.  1.
         11    1    1    2    0    0 -0.34448854095E+00 -0.63805880101E+01 -0.17063169139E+03  0.17075129482E+03  0.00000000000E+00 0.  1.
        -15    1    1    2    0    0 -0.27841117171E+01  0.12695256849E+02 -0.62918959246E+00  0.13132952184E+02  0.17770000000E+01 0. -1.
         15    1    1    2    0    0  0.37911239776E+01  0.19047654304E+01 -0.37352670145E+01  0.59254283413E+01  0.17770000000E+01 0.  1.
</event>
<event>
 6    1  0.8353910E-003  0.1752597E+03  0.7546771E-02  0.1074369E+00
        -11   -1    0    0    0    0  0.00000000000E+00  0.00000000000E+00  0.18250000000E+03  0.18250000000E+03  0.00000000000E+00 0. -1.
         11   -1    0    0    0    0 -0.00000000000E+00 -0.00000000000E+00 -0.18250000000E+03  0.18250000000E+03  0.00000000000E+00 0. -1.
        -11    1    1    2    0    0 -0.27099059457E+01 -0.16591700888E+00  0.17465792432E+03  0.17467902463E+03  0.00000000000E+00 0. -1.
         11    1    1    2    0    0  0.12111199348E+01 -0.27410770880E+01 -0.17583209672E+03  0.17585763149E+03  0.00000000000E+00 0. -1.
        -15    1    1    2    0    0 -0.47040317276E+01  0.22105526532E+01  0.45639669689E+01  0.71415671263E+01  0.17770000000E+01 0. -1.
         15    1    1    2    0    0  0.62028177384E+01  0.69644144371E+00 -0.33897945645E+01  0.73217767496E+01  0.17770000000E+01 0.  1.
</event>
<event>
 6    1  0.8353910E-003  0.1828114E+03  0.7546771E-02  0.1068207E+00
        -11   -1    0    0    0    0  0.00000000000E+00  0.00000000000E+00  0.18250000000E+03  0.18250000000E+03  0.00000000000E+00 0. -1.
         11   -1    0    0    0    0 -0.00000000000E+00 -0.00000000000E+00 -0.18250000000E+03  0.18250000000E+03  0.00000000000E+00 0.  1.
        -11    1    1    2    0    0 -0.88636144218E+00  0.24000952496E+01  0.13686375007E+03  0.13688766262E+03  0.00000000000E+00 0. -1.
         11    1    1    2    0    0 -0.28243847563E+01 -0.40376221322E+01 -0.18212194195E+03  0.18218858714E+03  0.00000000000E+00 0.  1.
        -15    1    1    2    0    0  0.22409632433E+01 -0.19294582046E+01  0.23852701943E+02  0.24100909614E+02  0.17770000000E+01 0. -1.
         15    1    1    2    0    0  0.14697829552E+01  0.35669850872E+01  0.21405489943E+02  0.21822840632E+02  0.17770000000E+01 0. -1.
</event>
<event>
 6    1  0.8353910E-003  0.1851112E+03  0.7546771E-02  0.1066395E+00
        -11   -1    0    0    0    0  0.00000000000E+00  0.00000000000E+00  0.18250000000E+03  0.18250000000E+03  0.00000000000E+00 0. -1.
         11   -1    0    0    0    0 -0.00000000000E+00 -0.00000000000E+00 -0.18250000000E+03  0.18250000000E+03  0.00000000000E+00 0. -1.
        -11    1    1    2    0    0  0.60333208813E+01 -0.23765996743E+01  0.17977191549E+03  0.17988882896E+03  0.00000000000E+00 0. -1.
         11    1    1    2    0    0 -0.68762483986E+01  0.97845430219E+01 -0.18723583186E+02  0.22216944918E+02  0.00000000000E+00 0. -1.
        -15    1    1    2    0    0  0.34824812885E+00 -0.35707267414E+01 -0.15689602555E+03  0.15694709914E+03  0.17770000000E+01 0. -1.
         15    1    1    2    0    0  0.49467938842E+00 -0.38372166062E+01 -0.41523067506E+01  0.59471269813E+01  0.17770000000E+01 0.  1.
</event>
<event>
 6    1  0.8353910E-003  0.1850881E+03  0.7546771E-02  0.1066413E+00
        -11   -1    0    0    0    0  0.00000000000E+00  0.00000000000E+00  0.18250000000E+03  0.18250000000E+03  0.00000000000E+00 0.  1.
         11   -1    0    0    0    0 -0.00000000000E+00 -0.00000000000E+00 -0.18250000000E+03  0.18250000000E+03  0.00000000000E+00 0. -1.
        -11    1    1    2    0    0  0.25433453685E+01 -0.17793543744E+00  0.17989382221E+03  0.17991188826E+03  0.00000000000E+00 0.  1.
         11    1    1    2    0    0 -0.23869049100E+01  0.30732812822E+01 -0.17038355322E+03  0.17042798356E+03  0.00000000000E+00 0. -1.
        -15    1    1    2    0    0  0.22509990746E+01 -0.53356183390E+01 -0.88778331994E+01  0.10747533262E+02  0.17770000000E+01 0. -1.
         15    1    1    2    0    0 -0.24074395331E+01  0.24402724942E+01 -0.63243579163E+00  0.39125949167E+01  0.17770000000E+01 0. -1.
</event>
<event>
 6    1  0.8353910E-003  0.1839669E+03  0.7546771E-02  0.1067293E+00
        -11   -1    0    0    0    0  0.00000000000E+00  0.00000000000E+00  0.18250000000E+03  0.18250000000E+03  0.00000000000E+00 0.  1.
         11   -1    0    0    0    0 -0.00000000000E+00 -0.00000000000E+00 -0.18250000000E+03  0.18250000000E+03  0.00000000000E+00 0.  1.
        -11    1    1    2    0    0  0.15357938516E+01  0.18802700119E+01  0.13039900601E+03  0.13042160422E+03  0.00000000000E+00 0.  1.
         11    1    1    2    0    0 -0.23862574123E+01 -0.38785931071E+01 -0.18097580825E+03  0.18103309333E+03  0.00000000000E+00 0.  1.
        -15    1    1    2    0    0 -0.29942768627E+01  0.81359861866E+01  0.37120217854E+02  0.38160559059E+02  0.17770000000E+01 0.  1.
         15    1    1    2    0    0  0.38447404234E+01 -0.61376630914E+01  0.13456584379E+02  0.15384743394E+02  0.17770000000E+01 0. -1.
</event>
<event>
 6    1  0.8353910E-003  0.1854346E+03  0.7546771E-02  0.1066143E+00
        -11   -1    0    0    0    0  0.00000000000E+00  0.00000000000E+00  0.18250000000E+03  0.18250000000E+03  0.00000000000E+00 0. -1.
         11   -1    0    0    0    0 -0.00000000000E+00 -0.00000000000E+00 -0.18250000000E+03  0.18250000000E+03  0.00000000000E+00 0. -1.
        -11    1    1    2    0    0 -0.89654718595E+00 -0.41624428468E+01  0.14170441500E+03  0.14176837079E+03  0.00000000000E+00 0. -1.
         11    1    1    2    0    0 -0.68905722425E+01  0.78875568373E+01 -0.17925971009E+03  0.17956541204E+03  0.00000000000E+00 0. -1.
        -15    1    1    2    0    0  0.40230188158E+01 -0.65879747909E+01  0.25840212534E+01  0.83319257723E+01  0.17770000000E+01 0.  1.
         15    1    1    2    0    0  0.37641006127E+01  0.28628608004E+01  0.34971273840E+02  0.35334291395E+02  0.17770000000E+01 0. -1.
</event>
<event>
 6    1  0.8353910E-003  0.1842493E+03  0.7546771E-02  0.1067071E+00
        -11   -1    0    0    0    0  0.00000000000E+00  0.00000000000E+00  0.18250000000E+03  0.18250000000E+03  0.00000000000E+00 0. -1.
         11   -1    0    0    0    0 -0.00000000000E+00 -0.00000000000E+00 -0.18250000000E+03  0.18250000000E+03  0.00000000000E+00 0.  1.
        -11    1    1    2    0    0  0.21703647205E+01  0.14484601140E+01  0.18073186367E+03  0.18075069866E+03  0.00000000000E+00 0. -1.
         11    1    1    2    0    0 -0.37977446122E+01 -0.41283659587E+01 -0.17565461410E+03  0.17574415986E+03  0.00000000000E+00 0.  1.
        -15    1    1    2    0    0  0.15531764384E+01  0.21210799279E+01 -0.82979503604E-01  0.31742639631E+01  0.17770000000E+01 0. -1.
         15    1    1    2    0    0  0.74203453284E-01  0.55882591680E+00 -0.49942700666E+01  0.53308775127E+01  0.17770000000E+01 0.  1.
</event>
<event>
 6    1  0.8353910E-003  0.1842395E+03  0.7546771E-02  0.1067079E+00
        -11   -1    0    0    0    0  0.00000000000E+00  0.00000000000E+00  0.18250000000E+03  0.18250000000E+03  0.00000000000E+00 0.  1.
         11   -1    0    0    0    0 -0.00000000000E+00 -0.00000000000E+00 -0.18250000000E+03  0.18250000000E+03  0.00000000000E+00 0. -1.
        -11    1    1    2    0    0 -0.39453643563E+00 -0.24331910713E+01  0.18074368223E+03  0.18076049000E+03  0.00000000000E+00 0.  1.
         11    1    1    2    0    0  0.18565015002E+01 -0.21265854102E+01 -0.66066690508E+02  0.66126972999E+02  0.00000000000E+00 0. -1.
        -15    1    1    2    0    0 -0.55750990802E+01 -0.10281320006E+02 -0.35111033777E+02  0.37050366971E+02  0.17770000000E+01 0.  1.
         15    1    1    2    0    0  0.41131340156E+01  0.14841096488E+02 -0.79565957950E+02  0.81062170029E+02  0.17770000000E+01 0. -1.
</event>
<event>
 6    1  0.8353910E-003  0.1833934E+03  0.7546771E-02  0.1067746E+00
        -11   -1    0    0    0    0  0.00000000000E+00  0.00000000000E+00  0.18250000000E+03  0.18250000000E+03  0.00000000000E+00 0.  1.
         11   -1    0    0    0    0 -0.00000000000E+00 -0.00000000000E+00 -0.18250000000E+03  0.18250000000E+03  0.00000000000E+00 0.  1.
        -11    1    1    2    0    0 -0.46095916901E+01  0.38368715810E+01  0.18150756199E+03  0.18160662151E+03  0.00000000000E+00 0.  1.
         11    1    1    2    0    0  0.33867940715E+01 -0.75495670416E+00 -0.13770309266E+03  0.13774680418E+03  0.00000000000E+00 0.  1.
        -15    1    1    2    0    0 -0.18648970480E+00 -0.82131958386E+00 -0.41847607255E+02  0.41893786010E+02  0.17770000000E+01 0. -1.
         15    1    1    2    0    0  0.14092873234E+01 -0.22605952930E+01 -0.19568620729E+01  0.37527882982E+01  0.17770000000E+01 0.  1.
</event>
<event>
 6    1  0.8353910E-003  0.1853290E+03  0.7546771E-02  0.1066225E+00
        -11   -1    0    0    0    0  0.00000000000E+00  0.00000000000E+00  0.18250000000E+03  0.18250000000E+03  0.00000000000E+00 0. -1.
         11   -1    0    0    0    0 -0.00000000000E+00 -0.00000000000E+00 -0.18250000000E+03  0.18250000000E+03  0.00000000000E+00 0.  1.
        -11    1    1    2    0    0 -0.15133346611E+00  0.47096386086E+01  0.17960917873E+03  0.17967097897E+03  0.00000000000E+00 0. -1.
         11    1    1    2    0    0 -0.74151725580E+01 -0.42194878103E+01 -0.14444499458E+03  0.14469673570E+03  0.00000000000E+00 0.  1.
        -15    1    1    2    0    0 -0.27600751840E+01 -0.52309011069E+01 -0.38610128166E+01  0.72832335114E+01  0.17770000000E+01 0. -1.
         15    1    1    2    0    0  0.10326581208E+02  0.47407503085E+01 -0.31303171335E+02  0.33349051824E+02  0.17770000000E+01 0.  1.
</event>
<event>
 6    1  0.8353910E-003  0.1831586E+03  0.7546771E-02  0.1067932E+00
        -11   -1    0    0    0    0  0.00000000000E+00  0.00000000000E+00  0.18250000000E+03  0.18250000000E+03  0.00000000000E+00 0.  1.
         11   -1    0    0    0    0 -0.00000000000E+00 -0.00000000000E+00 -0.18250000000E+03  0.18250000000E+03  0.00000000000E+00 0. -1.
        -11    1    1    2    0    0 -0.90571308744E+00  0.23787504487E+01  0.51619271271E+02  0.51681988511E+02  0.00000000000E+00 0.  1.
         11    1    1    2    0    0 -0.14755702040E+01  0.10611874303E+02 -0.18152550288E+03  0.18184140722E+03  0.00000000000E+00 0. -1.
        -15    1    1    2    0    0  0.38128526632E+00 -0.93275083734E+01  0.30036658312E+02  0.31504068982E+02  0.17770000000E+01 0. -1.
         15    1    1    2    0    0  0.19999980251E+01 -0.36631163785E+01  0.99869573293E+02  0.99972535291E+02  0.17770000000E+01 0.  1.
</event>
<event>
 6    1  0.8353910E-003  0.1914880E+03  0.7546771E-02  0.1061517E+00
        -11   -1    0    0    0    0  0.00000000000E+00  0.00000000000E+00  0.18250000000E+03  0.18250000000E+03  0.00000000000E+00 0. -1.
         11   -1    0    0    0    0 -0.00000000000E+00 -0.00000000000E+00 -0.18250000000E+03  0.18250000000E+03  0.00000000000E+00 0. -1.
        -11    1    1    2    0    0  0.39029443057E+01  0.31878353616E+01  0.94617282572E+02  0.94751387483E+02  0.00000000000E+00 0. -1.
         11    1    1    2    0    0 -0.39158735343E+01  0.68773982234E+00 -0.17346643923E+03  0.17351199552E+03  0.00000000000E+00 0. -1.
        -15    1    1    2    0    0  0.69246724975E+01 -0.51883945778E+00 -0.72979448181E+01  0.10229272269E+02  0.17770000000E+01 0. -1.
         15    1    1    2    0    0 -0.69117432689E+01 -0.33567357262E+01  0.86147101475E+02  0.86507344725E+02  0.17770000000E+01 0. -1.
</event>
<event>
 6    1  0.8353910E-003  0.1826994E+03  0.7546771E-02  0.1068296E+00
        -11   -1    0    0    0    0  0.00000000000E+00  0.00000000000E+00  0.18250000000E+03  0.18250000000E+03  0.00000000000E+00 0. -1.
         11   -1    0    0    0    0 -0.00000000000E+00 -0.00000000000E+00 -0.18250000000E+03  0.18250000000E+03  0.00000000000E+00 0.  1.
        -11    1    1    2    0    0 -0.26700589643E+01 -0.21020072663E+01  0.18226893020E+03  0.18230060495E+03  0.00000000000E+00 0. -1.
         11    1    1    2    0    0 -0.26747439411E+01  0.16591012215E+01 -0.63489564159E+02  0.63567535968E+02  0.00000000000E+00 0.  1.
        -15    1    1    2    0    0  0.75457181910E+00  0.25923222433E+01 -0.26512802148E+02  0.26709098075E+02  0.17770000000E+01 0.  1.
         15    1    1    2    0    0  0.45902310863E+01 -0.21494161985E+01 -0.92266563890E+02  0.92422761008E+02  0.17770000000E+01 0. -1.
</event>
<event>
 6    1  0.8353910E-003  0.1850725E+03  0.7546771E-02  0.1066425E+00
        -11   -1    0    0    0    0  0.00000000000E+00  0.00000000000E+00  0.18250000000E+03  0.18250000000E+03  0.00000000000E+00 0.  1.
         11   -1    0    0    0    0 -0.00000000000E+00 -0.00000000000E+00 -0.18250000000E+03  0.18250000000E+03  0.00000000000E+00 0. -1.
        -11    1    1    2    0    0  0.17779189254E+02  0.10198088571E+01  0.17904402310E+03  0.17992749036E+03  0.00000000000E+00 0.  1.
         11    1    1    2    0    0 -0.42479267299E+01  0.24676179878E+01 -0.10451245086E+03  0.10462784718E+03  0.00000000000E+00 0. -1.
        -15    1    1    2    0    0 -0.20213959599E+02 -0.69198755898E+01 -0.43903064419E+02  0.48858219730E+02  0.17770000000E+01 0. -1.
         15    1    1    2    0    0  0.66826970753E+01  0.34324487449E+01 -0.30628507817E+02  0.31586442735E+02  0.17770000000E+01 0.  1.
</event>
<event>
 6    1  0.8353910E-003  0.1826636E+03  0.7546771E-02  0.1068325E+00
        -11   -1    0    0    0    0  0.00000000000E+00  0.00000000000E+00  0.18250000000E+03  0.18250000000E+03  0.00000000000E+00 0.  1.
         11   -1    0    0    0    0 -0.00000000000E+00 -0.00000000000E+00 -0.18250000000E+03  0.18250000000E+03  0.00000000000E+00 0.  1.
        -11    1    1    2    0    0 -0.29136046979E+01 -0.11201996766E+01  0.10426966702E+03  0.10431638126E+03  0.00000000000E+00 0.  1.
         11    1    1    2    0    0  0.17715382402E+01  0.25558780391E+01 -0.18230983528E+03  0.18233635649E+03  0.00000000000E+00 0.  1.
        -15    1    1    2    0    0 -0.87330854071E-01 -0.24030649896E+01  0.16982047387E+02  0.17243259857E+02  0.17770000000E+01 0.  1.
         15    1    1    2    0    0  0.12293973118E+01  0.96738662709E+00  0.61058120873E+02  0.61104002391E+02  0.17770000000E+01 0. -1.
</event>
<event>
 6    1  0.8353910E-003  0.1707147E+03  0.7546771E-02  0.1078243E+00
        -11   -1    0    0    0    0  0.00000000000E+00  0.00000000000E+00  0.18250000000E+03  0.18250000000E+03  0.00000000000E+00 0.  1.
         11   -1    0    0    0    0 -0.00000000000E+00 -0.00000000000E+00 -0.18250000000E+03  0.18250000000E+03  0.00000000000E+00 0.  1.
        -11    1    1    2    0    0 -0.23968662925E+01 -0.73693659714E+01  0.17180957308E+03  0.17198424906E+03  0.00000000000E+00 0.  1.
         11    1    1    2    0    0  0.59018754717E+01  0.18260046049E+01 -0.16940394328E+03  0.16951655502E+03  0.00000000000E+00 0.  1.
        -15    1    1    2    0    0  0.15972319220E+01  0.10352446277E+02  0.61654858188E+01  0.12283942287E+02  0.17770000000E+01 0. -1.
         15    1    1    2    0    0 -0.51022411013E+01 -0.48090849101E+01 -0.85711156184E+01  0.11215253625E+02  0.17770000000E+01 0.  1.
</event>
<event>
 6    1  0.8353910E-003  0.1837089E+03  0.7546771E-02  0.1067497E+00
        -11   -1    0    0    0    0  0.00000000000E+00  0.00000000000E+00  0.18250000000E+03  0.18250000000E+03  0.00000000000E+00 0. -1.
         11   -1    0    0    0    0 -0.00000000000E+00 -0.00000000000E+00 -0.18250000000E+03  0.18250000000E+03  0.00000000000E+00 0.  1.
        -11    1    1    2    0    0 -0.42118102207E+01  0.36842088637E+00  0.18124177648E+03  0.18129108257E+03  0.00000000000E+00 0. -1.
         11    1    1    2    0    0  0.18443089428E+01 -0.47200903181E+01 -0.16710590895E+03  0.16718273097E+03  0.00000000000E+00 0.  1.
        -15    1    1    2    0    0  0.10788581480E+01  0.41926046956E+01 -0.13418948047E+02  0.14211536325E+02  0.17770000000E+01 0.  1.
         15    1    1    2    0    0  0.12886431300E+01  0.15906473605E+00 -0.71691947936E+00  0.23146501348E+01  0.17770000000E+01 0. -1.
</event>
<event>
 6    1  0.8353910E-003  0.1842729E+03  0.7546771E-02  0.1067052E+00
        -11   -1    0    0    0    0  0.00000000000E+00  0.00000000000E+00  0.18250000000E+03  0.18250000000E+03  0.00000000000E+00 0.  1.
         11   -1    0    0    0    0 -0.00000000000E+00 -0.00000000000E+00 -0.18250000000E+03  0.18250000000E+03  0.00000000000E+00 0. -1.
        -11    1    1    2    0    0 -0.65534573190E+01 -0.50586448167E+01  0.28748209807E+02  0.29916504764E+02  0.00000000000E+00 0.  1.
         11    1    1    2    0    0  0.10048607205E+02  0.26422107854E+01 -0.18042813740E+03  0.18072705539E+03  0.00000000000E+00 0. -1.
        -15    1    1    2    0    0 -0.11757305737E+02 -0.49142729434E+01  0.12132864261E+03  0.12200894051E+03  0.17770000000E+01 0.  1.
         15    1    1    2    0    0  0.82621558512E+01  0.73307069747E+01  0.30351284985E+02  0.32347499336E+02  0.17770000000E+01 0. -1.
</event>
<event>
 6    1  0.8353910E-003  0.1697082E+03  0.7546771E-02  0.1079119E+00
        -11   -1    0    0    0    0  0.00000000000E+00  0.00000000000E+00  0.18250000000E+03  0.18250000000E+03  0.00000000000E+00 0.  1.
         11   -1    0    0    0    0 -0.00000000000E+00 -0.00000000000E+00 -0.18250000000E+03  0.18250000000E+03  0.00000000000E+00 0.  1.
        -11    1    1    2    0    0 -0.71048285978E+01  0.10727862683E+02  0.17172527221E+03  0.17220666289E+03  0.00000000000E+00 0.  1.
         11    1    1    2    0    0 -0.25133132637E+01  0.14030158186E+01 -0.16756337328E+03  0.16758809404E+03  0.00000000000E+00 0.  1.
        -15    1    1    2    0    0 -0.10195682556E+01 -0.47993965269E+01  0.65176499478E+01  0.83493243016E+01  0.17770000000E+01 0.  1.
         15    1    1    2    0    0  0.10637710117E+02 -0.73314819746E+01 -0.10679548876E+02  0.16855918773E+02  0.17770000000E+01 0. -1.
</event>
<event>
 6    1  0.8353910E-003  0.1828864E+03  0.7546771E-02  0.1068148E+00
        -11   -1    0    0    0    0  0.00000000000E+00  0.00000000000E+00  0.18250000000E+03  0.18250000000E+03  0.00000000000E+00 0. -1.
         11   -1    0    0    0    0 -0.00000000000E+00 -0.00000000000E+00 -0.18250000000E+03  0.18250000000E+03  0.00000000000E+00 0. -1.
        -11    1    1    2    0    0  0.45583475462E+01  0.23780182745E+01  0.18204105825E+03  0.18211364692E+03  0.00000000000E+00 0. -1.
         11    1    1    2    0    0 -0.33192051175E+01 -0.28511134228E+01 -0.52184342196E+02  0.52367466435E+02  0.00000000000E+00 0. -1.
        -15    1    1    2    0    0 -0.77301182571E+00  0.39384571956E+01 -0.15901576406E+02  0.16496267867E+02  0.17770000000E+01 0. -1.
         15    1    1    2    0    0 -0.46613060300E+00 -0.34653620473E+01 -0.11395513965E+03  0.11402261878E+03  0.17770000000E+01 0.  1.
</event>
<event>
 6    1  0.8353910E-003  0.1826919E+03  0.7546771E-02  0.1068302E+00
        -11   -1    0    0    0    0  0.00000000000E+00  0.00000000000E+00  0.18250000000E+03  0.18250000000E+03  0.00000000000E+00 0.  1.
         11   -1    0    0    0    0 -0.00000000000E+00 -0.00000000000E+00 -0.18250000000E+03  0.18250000000E+03  0.00000000000E+00 0. -1.
        -11    1    1    2    0    0  0.10691210143E+01 -0.38937753397E+01  0.18226342476E+03  0.18230814713E+03  0.00000000000E+00 0.  1.
         11    1    1    2    0    0 -0.13143419769E+01  0.10020515137E+01 -0.45393579669E+02  0.45423657682E+02  0.00000000000E+00 0. -1.
        -15    1    1    2    0    0 -0.38360722909E+01  0.18513976733E+01 -0.35974644365E+02  0.36269489797E+02  0.17770000000E+01 0. -1.
         15    1    1    2    0    0  0.40812932535E+01  0.10403261526E+01 -0.10089520072E+03  0.10099870539E+03  0.17770000000E+01 0. -1.
</event>
<event>
 6    1  0.8353910E-003  0.1838442E+03  0.7546771E-02  0.1067390E+00
        -11   -1    0    0    0    0  0.00000000000E+00  0.00000000000E+00  0.18250000000E+03  0.18250000000E+03  0.00000000000E+00 0. -1.
         11   -1    0    0    0    0 -0.00000000000E+00 -0.00000000000E+00 -0.18250000000E+03  0.18250000000E+03  0.00000000000E+00 0.  1.
        -11    1    1    2    0    0 -0.29679480597E+01  0.10630084596E+01  0.18112833929E+03  0.18115577274E+03  0.00000000000E+00 0. -1.
         11    1    1    2    0    0 -0.21356943756E+01  0.16793699385E-01 -0.13887413252E+03  0.13889055459E+03  0.00000000000E+00 0.  1.
        -15    1    1    2    0    0  0.27648683318E+01 -0.14184796873E+01 -0.41810930441E+02  0.41963891799E+02  0.17770000000E+01 0.  1.
         15    1    1    2    0    0  0.23387741035E+01  0.33867752830E+00 -0.44327633051E+00  0.29897808750E+01  0.17770000000E+01 0. -1.
</event>
<event>
 6    1  0.8353910E-003  0.1825553E+03  0.7546771E-02  0.1068411E+00
        -11   -1    0    0    0    0  0.00000000000E+00  0.00000000000E+00  0.18250000000E+03  0.18250000000E+03  0.00000000000E+00 0. -1.
         11   -1    0    0    0    0 -0.00000000000E+00 -0.00000000000E+00 -0.18250000000E+03  0.18250000000E+03  0.00000000000E+00 0. -1.
        -11    1    1    2    0    0  0.64195059008E+00  0.19763741759E+00  0.49396115013E+02  0.49400681569E+02  0.00000000000E+00 0. -1.
         11    1    1    2    0    0  0.33517880789E+01  0.14203880122E+01 -0.18240840567E+03  0.18244472709E+03  0.00000000000E+00 0. -1.
        -15    1    1    2    0    0 -0.25780041934E+01 -0.14625299686E+01  0.10212769783E+03  0.10218615118E+03  0.17770000000E+01 0. -1.
         15    1    1    2    0    0 -0.14157344756E+01 -0.15549546125E+00  0.30884592823E+02  0.30968440157E+02  0.17770000000E+01 0.  1.
</event>
<event>
 6    1  0.8353910E-003  0.1832310E+03  0.7546771E-02  0.1067874E+00
        -11   -1    0    0    0    0  0.00000000000E+00  0.00000000000E+00  0.18250000000E+03  0.18250000000E+03  0.00000000000E+00 0.  1.
         11   -1    0    0    0    0 -0.00000000000E+00 -0.00000000000E+00 -0.18250000000E+03  0.18250000000E+03  0.00000000000E+00 0. -1.
        -11    1    1    2    0    0 -0.11619129316E+01 -0.25391928366E+01  0.29754703180E+02  0.29885446345E+02  0.00000000000E+00 0.  1.
         11    1    1    2    0    0 -0.55615653398E+01  0.68663235296E+01 -0.18155413316E+03  0.18176903113E+03  0.00000000000E+00 0. -1.
        -15    1    1    2    0    0  0.78533705797E+01 -0.61285210932E+01  0.33063544367E+02  0.34577303182E+02  0.17770000000E+01 0.  1.
         15    1    1    2    0    0 -0.11298923083E+01  0.18013904002E+01  0.11873588562E+03  0.11876821934E+03  0.17770000000E+01 0. -1.
</event>
<event>
 6    1  0.1590989E-002  0.2278153E+03  0.7546771E-02  0.1037198E+00
        -11   -1    0    0    0    0  0.00000000000E+00  0.00000000000E+00  0.18250000000E+03  0.18250000000E+03  0.00000000000E+00 0. -1.
         11   -1    0    0    0    0 -0.00000000000E+00 -0.00000000000E+00 -0.18250000000E+03  0.18250000000E+03  0.00000000000E+00 0.  1.
        -11    1    1    2    0    0 -0.11408880438E+02 -0.48246657700E+01  0.13662430110E+03  0.13718469158E+03  0.00000000000E+00 0. -1.
         11    1    1    2    0    0  0.16341472115E+02  0.90870776676E+01 -0.12119166433E+03  0.12262560171E+03  0.00000000000E+00 0.  1.
        -15    1    1    2    0    0 -0.13860420944E+02 -0.26114271645E+01 -0.58980747728E+02  0.60669738355E+02  0.17770000000E+01 0.  1.
         15    1    1    2    0    0  0.89278292664E+01 -0.16509847331E+01  0.43548110956E+02  0.44519968360E+02  0.17770000000E+01 0. -1.
</event>
<event>
 6    1  0.8353910E-003  0.1830310E+03  0.7546771E-02  0.1068033E+00
        -11   -1    0    0    0    0  0.00000000000E+00  0.00000000000E+00  0.18250000000E+03  0.18250000000E+03  0.00000000000E+00 0. -1.
         11   -1    0    0    0    0 -0.00000000000E+00 -0.00000000000E+00 -0.18250000000E+03  0.18250000000E+03  0.00000000000E+00 0. -1.
        -11    1    1    2    0    0  0.18692523344E+01 -0.86296197022E+01  0.18175468292E+03  0.18196903364E+03  0.00000000000E+00 0. -1.
         11    1    1    2    0    0  0.16186051528E+01  0.65089177341E+00 -0.12216249814E+03  0.12217495445E+03  0.00000000000E+00 0. -1.
        -15    1    1    2    0    0 -0.59904566241E+01  0.47688212893E+01 -0.40274250313E+02  0.41034134502E+02  0.17770000000E+01 0. -1.
         15    1    1    2    0    0  0.25025991369E+01  0.32099066395E+01 -0.19317934463E+02  0.19821877408E+02  0.17770000000E+01 0.  1.
</event>
<event>
 6    1  0.8353910E-003  0.1842863E+03  0.7546771E-02  0.1067042E+00
        -11   -1    0    0    0    0  0.00000000000E+00  0.00000000000E+00  0.18250000000E+03  0.18250000000E+03  0.00000000000E+00 0. -1.
         11   -1    0    0    0    0 -0.00000000000E+00 -0.00000000000E+00 -0.18250000000E+03  0.18250000000E+03  0.00000000000E+00 0. -1.
        -11    1    1    2    0    0  0.47447372925E+00  0.29066842186E+01  0.17428710101E+03  0.17431198329E+03  0.00000000000E+00 0. -1.
         11    1    1    2    0    0  0.74362058012E+00 -0.60854152526E+01 -0.18060967515E+03  0.18071369624E+03  0.00000000000E+00 0. -1.
        -15    1    1    2    0    0 -0.14507691893E+01 -0.14721694464E+01  0.23974413524E+01  0.36300782578E+01  0.17770000000E+01 0.  1.
         15    1    1    2    0    0  0.23267487988E+00  0.46509004804E+01  0.39251327838E+01  0.63442422123E+01  0.17770000000E+01 0.  1.
</event>
<event>
 6    1  0.8353910E-003  0.1847775E+03  0.7546771E-02  0.1066656E+00
        -11   -1    0    0    0    0  0.00000000000E+00  0.00000000000E+00  0.18250000000E+03  0.18250000000E+03  0.00000000000E+00 0.  1.
         11   -1    0    0    0    0 -0.00000000000E+00 -0.00000000000E+00 -0.18250000000E+03  0.18250000000E+03  0.00000000000E+00 0. -1.
        -11    1    1    2    0    0  0.10309169766E+00 -0.98662319046E+00  0.72884639700E+02  0.72891390146E+02  0.00000000000E+00 0.  1.
         11    1    1    2    0    0  0.24813232730E+01  0.63987958170E+01 -0.18009177800E+03  0.18022250153E+03  0.00000000000E+00 0. -1.
        -15    1    1    2    0    0 -0.45270529020E+01  0.11248017949E+02  0.23571433068E+02  0.26566563602E+02  0.17770000000E+01 0.  1.
         15    1    1    2    0    0  0.19426379313E+01 -0.16660190576E+02  0.83635705236E+02  0.85319544721E+02  0.17770000000E+01 0.  1.
</event>
<event>
 6    1  0.8353910E-003  0.1975028E+03  0.7546771E-02  0.1057103E+00
        -11   -1    0    0    0    0  0.00000000000E+00  0.00000000000E+00  0.18250000000E+03  0.18250000000E+03  0.00000000000E+00 0.  1.
         11   -1    0    0    0    0 -0.00000000000E+00 -0.00000000000E+00 -0.18250000000E+03  0.18250000000E+03  0.00000000000E+00 0.  1.
        -11    1    1    2    0    0  0.79133708789E+01 -0.84314739171E+01  0.40744483975E+02  0.42353561426E+02  0.00000000000E+00 0.  1.
         11    1    1    2    0    0  0.12739930143E+02 -0.19957829361E+02 -0.16581522297E+03  0.16749719084E+03  0.00000000000E+00 0.  1.
        -15    1    1    2    0    0  0.97005905573E+01  0.27251862231E+02  0.12103410409E+03  0.12445552433E+03  0.17770000000E+01 0.  1.
         15    1    1    2    0    0 -0.30353891579E+02  0.11374410473E+01  0.40366348980E+01  0.30693723404E+02  0.17770000000E+01 0. -1.
</event>
<event>
 6    1  0.8353910E-003  0.1832562E+03  0.7546771E-02  0.1067854E+00
        -11   -1    0    0    0    0  0.00000000000E+00  0.00000000000E+00  0.18250000000E+03  0.18250000000E+03  0.00000000000E+00 0. -1.
         11   -1    0    0    0    0 -0.00000000000E+00 -0.00000000000E+00 -0.18250000000E+03  0.18250000000E+03  0.00000000000E+00 0.  1.
        -11    1    1    2    0    0  0.18479809951E-01 -0.27788143005E+01  0.15711537754E+03  0.15713995039E+03  0.00000000000E+00 0. -1.
         11    1    1    2    0    0 -0.15778511070E+01  0.23687783788E+01 -0.18172148682E+03  0.18174377430E+03  0.00000000000E+00 0.  1.
        -15    1    1    2    0    0 -0.14937499780E+01  0.27363040792E+01  0.56439319516E+01  0.66880749013E+01  0.17770000000E+01 0. -1.
         15    1    1    2    0    0  0.30531212751E+01 -0.23262681575E+01  0.18962177326E+02  0.19428200406E+02  0.17770000000E+01 0. -1.
</event>
<event>
 6    1  0.8353910E-003  0.1826897E+03  0.7546771E-02  0.1068304E+00
        -11   -1    0    0    0    0  0.00000000000E+00  0.00000000000E+00  0.18250000000E+03  0.18250000000E+03  0.00000000000E+00 0.  1.
         11   -1    0    0    0    0 -0.00000000000E+00 -0.00000000000E+00 -0.18250000000E+03  0.18250000000E+03  0.00000000000E+00 0. -1.
        -11    1    1    2    0    0 -0.63701086679E+00  0.25035200518E+00  0.64102621816E+01  0.64466983959E+01  0.00000000000E+00 0.  1.
         11    1    1    2    0    0 -0.11178876942E+01 -0.14034974671E+02 -0.18176580625E+03  0.18231028086E+03  0.00000000000E+00 0. -1.
        -15    1    1    2    0    0  0.28204487274E-02 -0.13177803613E+01  0.15651647679E+02  0.15807224839E+02  0.17770000000E+01 0.  1.
         15    1    1    2    0    0  0.17520781123E+01  0.15102403027E+02  0.15970389639E+03  0.16043579590E+03  0.17770000000E+01 0.  1.
</event>
<event>
 6    1  0.8353910E-003  0.1837143E+03  0.7546771E-02  0.1067492E+00
        -11   -1    0    0    0    0  0.00000000000E+00  0.00000000000E+00  0.18250000000E+03  0.18250000000E+03  0.00000000000E+00 0. -1.
         11   -1    0    0    0    0 -0.00000000000E+00 -0.00000000000E+00 -0.18250000000E+03  0.18250000000E+03  0.00000000000E+00 0.  1.
        -11    1    1    2    0    0 -0.40142253246E+01 -0.14085572066E+02  0.18069306227E+03  0.18128568641E+03  0.00000000000E+00 0. -1.
         11    1    1    2    0    0 -0.28214819557E+01 -0.17257661378E+01 -0.79990691094E+02  0.80059038783E+02  0.00000000000E+00 0.  1.
        -15    1    1    2    0    0  0.46370394238E+01  0.13715767883E+02 -0.35802517046E+02  0.38660087675E+02  0.17770000000E+01 0. -1.
         15    1    1    2    0    0  0.21986678566E+01  0.20955703210E+01 -0.64899854129E+02  0.64995187132E+02  0.17770000000E+01 0.  1.
</event>
<event>
 6    1  0.8353910E-003  0.1827742E+03  0.7546771E-02  0.1068237E+00
        -11   -1    0    0    0    0  0.00000000000E+00  0.00000000000E+00  0.18250000000E+03  0.18250000000E+03  0.00000000000E+00 0.  1.
         11   -1    0    0    0    0 -0.00000000000E+00 -0.00000000000E+00 -0.18250000000E+03  0.18250000000E+03  0.00000000000E+00 0. -1.
        -11    1    1    2    0    0  0.18672297543E+00  0.24186004015E+01  0.72708974785E+02  0.72749429604E+02  0.00000000000E+00 0.  1.
         11    1    1    2    0    0  0.25659685941E+01 -0.20433875528E+01 -0.18219630312E+03  0.18222582829E+03  0.00000000000E+00 0. -1.
        -15    1    1    2    0    0  0.11632826303E+01 -0.43816476280E+01  0.41778269207E+02  0.42061069522E+02  0.17770000000E+01 0. -1.
         15    1    1    2    0    0 -0.39159741998E+01  0.40064347793E+01  0.67709059127E+02  0.67963672580E+02  0.17770000000E+01 0.  1.
</event>
<event>
 6    1  0.8353910E-003  0.1865139E+03  0.7546771E-02  0.1065304E+00
        -11   -1    0    0    0    0  0.00000000000E+00  0.00000000000E+00  0.18250000000E+03  0.18250000000E+03  0.00000000000E+00 0. -1.
         11   -1    0    0    0    0 -0.00000000000E+00 -0.00000000000E+00 -0.18250000000E+03  0.18250000000E+03  0.00000000000E+00 0. -1.
        -11    1    1    2    0    0 -0.21279282740E+01  0.14569461124E+01  0.17846749808E+03  0.17848613011E+03  0.00000000000E+00 0. -1.
         11    1    1    2    0    0 -0.35870479958E+01  0.29231086122E+01 -0.17016534546E+03  0.17022824757E+03  0.00000000000E+00 0. -1.
        -15    1    1    2    0    0 -0.28949378844E+01  0.35159290218E+00 -0.43919367471E+01  0.55633731058E+01  0.17770000000E+01 0. -1.
         15    1    1    2    0    0  0.86099141542E+01 -0.47316476267E+01 -0.39102158768E+01  0.10722249214E+02  0.17770000000E+01 0.  1.
</event>
<event>
 6    1  0.8353910E-003  0.1877439E+03  0.7546771E-02  0.1064356E+00
        -11   -1    0    0    0    0  0.00000000000E+00  0.00000000000E+00  0.18250000000E+03  0.18250000000E+03  0.00000000000E+00 0. -1.
         11   -1    0    0    0    0 -0.00000000000E+00 -0.00000000000E+00 -0.18250000000E+03  0.18250000000E+03  0.00000000000E+00 0. -1.
        -11    1    1    2    0    0  0.53503036062E+01 -0.78734023722E+00  0.17154673169E+03  0.17163195159E+03  0.00000000000E+00 0. -1.
         11    1    1    2    0    0 -0.41448198376E+01  0.19802185240E+01 -0.17719657507E+03  0.17725610571E+03  0.00000000000E+00 0. -1.
        -15    1    1    2    0    0 -0.70025168807E+01 -0.30749903411E+00 -0.72792427050E+00  0.72675581225E+01  0.17770000000E+01 0.  1.
         15    1    1    2    0    0  0.57970331122E+01 -0.88537925267E+00  0.63777676492E+01  0.88443845751E+01  0.17770000000E+01 0. -1.
</event>
<event>
 6    1  0.8353910E-003  0.1828260E+03  0.7546771E-02  0.1068196E+00
        -11   -1    0    0    0    0  0.00000000000E+00  0.00000000000E+00  0.18250000000E+03  0.18250000000E+03  0.00000000000E+00 0.  1.
         11   -1    0    0    0    0 -0.00000000000E+00 -0.00000000000E+00 -0.18250000000E+03  0.18250000000E+03  0.00000000000E+00 0. -1.
        -11    1    1    2    0    0 -0.27205174897E+01 -0.31387349366E+00  0.18215339671E+03  0.18217398185E+03  0.00000000000E+00 0.  1.
         11    1    1    2    0    0 -0.10603980129E+01 -0.15085603170E+01 -0.18946023228E+02  0.19035545548E+02  0.00000000000E+00 0. -1.
        -15    1    1    2    0    0 -0.31301232478E+01 -0.10985949838E+01 -0.18557235432E+02  0.18934975531E+02  0.17770000000E+01 0. -1.
         15    1    1    2    0    0  0.69110387505E+01  0.29210287945E+01 -0.14465013805E+03  0.14485549707E+03  0.17770000000E+01 0. -1.
</event>
<event>
 6    1  0.8353910E-003  0.1741592E+03  0.7546771E-02  0.1075295E+00
        -11   -1    0    0    0    0  0.00000000000E+00  0.00000000000E+00  0.18250000000E+03  0.18250000000E+03  0.00000000000E+00 0. -1.
         11   -1    0    0    0    0 -0.00000000000E+00 -0.00000000000E+00 -0.18250000000E+03  0.18250000000E+03  0.00000000000E+00 0.  1.
        -11    1    1    2    0    0 -0.28958274548E+01  0.33565060331E+01  0.17502626611E+03  0.17508239711E+03  0.00000000000E+00 0. -1.
         11    1    1    2    0    0 -0.34923723545E+01 -0.19037430638E+00 -0.17327808441E+03  0.17331337930E+03  0.00000000000E+00 0.  1.
        -15    1    1    2    0    0  0.55579287040E+00  0.89296005766E+00 -0.71891308556E+01  0.74798138237E+01  0.17770000000E+01 0.  1.
         15    1    1    2    0    0  0.58324069388E+01 -0.40590917844E+01  0.54409491586E+01  0.91244097651E+01  0.17770000000E+01 0. -1.
</event>
<event>
 6    1  0.8353910E-003  0.1841856E+03  0.7546771E-02  0.1067121E+00
        -11   -1    0    0    0    0  0.00000000000E+00  0.00000000000E+00  0.18250000000E+03  0.18250000000E+03  0.00000000000E+00 0. -1.
         11   -1    0    0    0    0 -0.00000000000E+00 -0.00000000000E+00 -0.18250000000E+03  0.18250000000E+03  0.00000000000E+00 0.  1.
        -11    1    1    2    0    0 -0.32667800215E+01 -0.14668711618E+01  0.17498885108E+03  0.17502548833E+03  0.00000000000E+00 0. -1.
         11    1    1    2    0    0  0.10145089472E+01 -0.25057940607E+01 -0.18079421727E+03  0.18081442760E+03  0.00000000000E+00 0.  1.
        -15    1    1    2    0    0  0.97838986386E+00  0.18478364828E+01  0.16561187916E+00  0.27489821184E+01  0.17770000000E+01 0. -1.
         15    1    1    2    0    0  0.12738812105E+01  0.21248287396E+01  0.56397543064E+01  0.64111019449E+01  0.17770000000E+01 0.  1.
</event>
<event>
 6    1  0.8353910E-003  0.1826791E+03  0.7546771E-02  0.1068312E+00
        -11   -1    0    0    0    0  0.00000000000E+00  0.00000000000E+00  0.18250000000E+03  0.18250000000E+03  0.00000000000E+00 0. -1.
         11   -1    0    0    0    0 -0.00000000000E+00 -0.00000000000E+00 -0.18250000000E+03  0.18250000000E+03  0.00000000000E+00 0.  1.
        -11    1    1    2    0    0  0.11384827399E+01 -0.24071908514E+01  0.18230145023E+03  0.18232089695E+03  0.00000000000E+00 0. -1.
         11    1    1    2    0    0  0.12963846430E+01 -0.12094349865E+01 -0.12314817743E+03  0.12316093922E+03  0.00000000000E+00 0.  1.
        -15    1    1    2    0    0 -0.18694786181E+01  0.28823409310E+01 -0.24169889881E+02  0.24477421134E+02  0.17770000000E+01 0. -1.
         15    1    1    2    0    0 -0.56538876474E+00  0.73428490699E+00 -0.34983382917E+02  0.35040742688E+02  0.17770000000E+01 0. -1.
</event>
<event>
 6    1  0.8353910E-003  0.2255953E+03  0.7546771E-02  0.1038538E+00
        -11   -1    0    0    0    0  0.00000000000E+00  0.00000000000E+00  0.18250000000E+03  0.18250000000E+03  0.00000000000E+00 0. -1.
         11   -1    0    0    0    0 -0.00000000000E+00 -0.00000000000E+00 -0.18250000000E+03  0.18250000000E+03  0.00000000000E+00 0.  1.
        -11    1    1    2    0    0 -0.91595698654E+01 -0.58922174313E+00  0.13910219986E+03  0.13940468754E+03  0.00000000000E+00 0. -1.
         11    1    1    2    0    0 -0.23224224676E+01 -0.93841455854E+00 -0.12692334198E+03  0.12694805634E+03  0.00000000000E+00 0.  1.
        -15    1    1    2    0    0  0.22167459659E+01  0.20056329060E+01 -0.54841346602E+02  0.54951501819E+02  0.17770000000E+01 0. -1.
         15    1    1    2    0    0  0.92652463670E+01 -0.47799660430E+00  0.42662488725E+02  0.43695754304E+02  0.17770000000E+01 0. -1.
</event>
<event>
 6    1  0.8353910E-003  0.1829228E+03  0.7546771E-02  0.1068119E+00
        -11   -1    0    0    0    0  0.00000000000E+00  0.00000000000E+00  0.18250000000E+03  0.18250000000E+03  0.00000000000E+00 0. -1.
         11   -1    0    0    0    0 -0.00000000000E+00 -0.00000000000E+00 -0.18250000000E+03  0.18250000000E+03  0.00000000000E+00 0.  1.
        -11    1    1    2    0    0  0.30448930101E-01 -0.43017337294E+01  0.13282218000E+03  0.13289182571E+03  0.00000000000E+00 0. -1.
         11    1    1    2    0    0 -0.36853682819E+01 -0.51464165848E+00 -0.18203919921E+03  0.18207722769E+03  0.00000000000E+00 0.  1.
        -15    1    1    2    0    0  0.14750844863E+01  0.55243921230E+01  0.36462761809E+02  0.36951123262E+02  0.17770000000E+01 0. -1.
         15    1    1    2    0    0  0.21798348655E+01 -0.70801673507E+00  0.12754257402E+02  0.13079823340E+02  0.17770000000E+01 0.  1.
</event>
<event>
 6    1  0.8353910E-003  0.1836148E+03  0.7546771E-02  0.1067571E+00
        -11   -1    0    0    0    0  0.00000000000E+00  0.00000000000E+00  0.18250000000E+03  0.18250000000E+03  0.00000000000E+00 0. -1.
         11   -1    0    0    0    0 -0.00000000000E+00 -0.00000000000E+00 -0.18250000000E+03  0.18250000000E+03  0.00000000000E+00 0. -1.
        -11    1    1    2    0    0 -0.46917678077E+01  0.15212120661E+01  0.12794302014E+03  0.12803805361E+03  0.00000000000E+00 0. -1.
         11    1    1    2    0    0 -0.32162037687E+01  0.81206228701E+00 -0.18135483924E+03  0.18138517339E+03  0.00000000000E+00 0. -1.
        -15    1    1    2    0    0  0.42642907351E+01 -0.20181719141E+01  0.53789708405E+01  0.73721265352E+01  0.17770000000E+01 0. -1.
         15    1    1    2    0    0  0.36436808413E+01 -0.31510243908E+00  0.48032848260E+02  0.48204646462E+02  0.17770000000E+01 0. -1.
</event>
<event>
 6    1  0.8353910E-003  0.1859142E+03  0.7546771E-02  0.1065769E+00
        -11   -1    0    0    0    0  0.00000000000E+00  0.00000000000E+00  0.18250000000E+03  0.18250000000E+03  0.00000000000E+00 0. -1.
         11   -1    0    0    0    0 -0.00000000000E+00 -0.00000000000E+00 -0.18250000000E+03  0.18250000000E+03  0.00000000000E+00 0.  1.
        -11    1    1    2    0    0  0.92508231800E+01 -0.22985177098E+00  0.82747469369E+02  0.83263282714E+02  0.00000000000E+00 0. -1.
         11    1    1    2    0    0 -0.85493768256E+01 -0.92942751783E+01 -0.17863997933E+03  0.17908578282E+03  0.00000000000E+00 0.  1.
        -15    1    1    2    0    0 -0.79313456094E+01  0.75590524557E+00  0.88721142976E+02  0.89095884169E+02  0.17770000000E+01 0. -1.
         15    1    1    2    0    0  0.72298992550E+01  0.87682217037E+01  0.71713669828E+01  0.13555050294E+02  0.17770000000E+01 0. -1.
</event>
<event>
 6    1  0.8353910E-003  0.1831233E+03  0.7546771E-02  0.1067960E+00
        -11   -1    0    0    0    0  0.00000000000E+00  0.00000000000E+00  0.18250000000E+03  0.18250000000E+03  0.00000000000E+00 0.  1.
         11   -1    0    0    0    0 -0.00000000000E+00 -0.00000000000E+00 -0.18250000000E+03  0.18250000000E+03  0.00000000000E+00 0. -1.
        -11    1    1    2    0    0  0.84438903206E+00  0.11502496933E+01  0.91247648367E+02  0.91258804505E+02  0.00000000000E+00 0.  1.
         11    1    1    2    0    0  0.95232216057E+00 -0.38616812232E+01 -0.18183316311E+03  0.18187665795E+03  0.00000000000E+00 0. -1.
        -15    1    1    2    0    0 -0.26773017545E+01  0.21722715692E+01  0.53702963256E+01  0.66245392353E+01  0.17770000000E+01 0. -1.
         15    1    1    2    0    0  0.88059056186E+00  0.53915996068E+00  0.85215218418E+02  0.85239998312E+02  0.17770000000E+01 0.  1.
</event>
<event>
 6    1  0.8353910E-003  0.1850453E+03  0.7546771E-02  0.1066447E+00
        -11   -1    0    0    0    0  0.00000000000E+00  0.00000000000E+00  0.18250000000E+03  0.18250000000E+03  0.00000000000E+00 0.  1.
         11   -1    0    0    0    0 -0.00000000000E+00 -0.00000000000E+00 -0.18250000000E+03  0.18250000000E+03  0.00000000000E+00 0.  1.
        -11    1    1    2    0    0 -0.15057325604E+00 -0.20602325404E+01  0.12043948190E+03  0.12045719585E+03  0.00000000000E+00 0.  1.
         11    1    1    2    0    0  0.25116455033E+01 -0.59895539427E+00 -0.17993613091E+03  0.17995465628E+03  0.00000000000E+00 0.  1.
        -15    1    1    2    0    0  0.13285233409E+01 -0.18787750076E+01  0.58283938714E+02  0.58356405054E+02  0.17770000000E+01 0.  1.
         15    1    1    2    0    0 -0.36895955881E+01  0.45379629422E+01  0.12127102924E+01  0.62317428158E+01  0.17770000000E+01 0. -1.
</event>
<event>
 6    1  0.8353910E-003  0.1830563E+03  0.7546771E-02  0.1068013E+00
        -11   -1    0    0    0    0  0.00000000000E+00  0.00000000000E+00  0.18250000000E+03  0.18250000000E+03  0.00000000000E+00 0.  1.
         11   -1    0    0    0    0 -0.00000000000E+00 -0.00000000000E+00 -0.18250000000E+03  0.18250000000E+03  0.00000000000E+00 0.  1.
        -11    1    1    2    0    0 -0.17880677561E+01  0.10317697211E+01  0.14032288054E+03  0.14033806518E+03  0.00000000000E+00 0.  1.
         11    1    1    2    0    0  0.31060610543E+01  0.80483626799E+00 -0.18191540839E+03  0.18194370335E+03  0.00000000000E+00 0.  1.
        -15    1    1    2    0    0 -0.11229713821E+01 -0.11203604957E+01  0.40363352254E+02  0.40433577711E+02  0.17770000000E+01 0.  1.
         15    1    1    2    0    0 -0.19502191605E+00 -0.71624549334E+00  0.12291755975E+01  0.22846537602E+01  0.17770000000E+01 0. -1.
</event>
<event>
 6    1  0.8353910E-003  0.1853301E+03  0.7546771E-02  0.1066224E+00
        -11   -1    0    0    0    0  0.00000000000E+00  0.00000000000E+00  0.18250000000E+03  0.18250000000E+03  0.00000000000E+00 0. -1.
         11   -1    0    0    0    0 -0.00000000000E+00 -0.00000000000E+00 -0.18250000000E+03  0.18250000000E+03  0.00000000000E+00 0. -1.
        -11    1    1    2    0    0  0.24307937991E+01  0.19891398617E+01  0.17964242004E+03  0.17966987648E+03  0.00000000000E+00 0. -1.
         11    1    1    2    0    0 -0.19120674091E+01 -0.41907471463E+01 -0.17817794125E+03  0.17823747392E+03  0.00000000000E+00 0. -1.
        -15    1    1    2    0    0 -0.23895757821E+01 -0.46420433927E+00 -0.15343861886E+01  0.33819562480E+01  0.17770000000E+01 0.  1.
         15    1    1    2    0    0  0.18708493922E+01  0.26658116238E+01  0.69907392579E-01  0.37106933457E+01  0.17770000000E+01 0. -1.
</event>
<event>
 6    1  0.8353910E-003  0.1827413E+03  0.7546771E-02  0.1068263E+00
        -11   -1    0    0    0    0  0.00000000000E+00  0.00000000000E+00  0.18250000000E+03  0.18250000000E+03  0.00000000000E+00 0.  1.
         11   -1    0    0    0    0 -0.00000000000E+00 -0.00000000000E+00 -0.18250000000E+03  0.18250000000E+03  0.00000000000E+00 0. -1.
        -11    1    1    2    0    0 -0.30703204680E+00 -0.43584012989E+00  0.27801807913E+02  0.27806919076E+02  0.00000000000E+00 0.  1.
         11    1    1    2    0    0 -0.24932666216E+01 -0.14429147561E+01 -0.18223588638E+03  0.18225865320E+03  0.00000000000E+00 0. -1.
        -15    1    1    2    0    0 -0.35740371707E+01 -0.80737629325E+00  0.92560984589E+02  0.92650521829E+02  0.17770000000E+01 0.  1.
         15    1    1    2    0    0  0.63743358391E+01  0.26861311793E+01  0.61873093880E+02  0.62283905894E+02  0.17770000000E+01 0.  1.
</event>
<event>
 6    1  0.8353910E-003  0.1836492E+03  0.7546771E-02  0.1067544E+00
        -11   -1    0    0    0    0  0.00000000000E+00  0.00000000000E+00  0.18250000000E+03  0.18250000000E+03  0.00000000000E+00 0. -1.
         11   -1    0    0    0    0 -0.00000000000E+00 -0.00000000000E+00 -0.18250000000E+03  0.18250000000E+03  0.00000000000E+00 0.  1.
        -11    1    1    2    0    0 -0.17679197906E+01  0.14791155725E+01  0.74077611691E+02  0.74113466233E+02  0.00000000000E+00 0. -1.
         11    1    1    2    0    0  0.27127832203E+01  0.42243129097E+01 -0.18128131923E+03  0.18135082221E+03  0.00000000000E+00 0.  1.
        -15    1    1    2    0    0  0.32338211201E+01 -0.53810186329E+01  0.10339393698E+03  0.10359959891E+03  0.17770000000E+01 0.  1.
         15    1    1    2    0    0 -0.41786845499E+01 -0.32240984930E+00  0.38097705588E+01  0.59361126496E+01  0.17770000000E+01 0. -1.
</event>
<event>
 6    1  0.8353910E-003  0.1833283E+03  0.7546771E-02  0.1067797E+00
        -11   -1    0    0    0    0  0.00000000000E+00  0.00000000000E+00  0.18250000000E+03  0.18250000000E+03  0.00000000000E+00 0.  1.
         11   -1    0    0    0    0 -0.00000000000E+00 -0.00000000000E+00 -0.18250000000E+03  0.18250000000E+03  0.00000000000E+00 0.  1.
        -11    1    1    2    0    0 -0.93052176782E+00  0.25382476009E+01  0.18165155827E+03  0.18167167417E+03  0.00000000000E+00 0.  1.
         11    1    1    2    0    0  0.37271652627E+01 -0.42731621149E+00 -0.16188626065E+03  0.16192972472E+03  0.00000000000E+00 0.  1.
        -15    1    1    2    0    0  0.68203780338E+00  0.33409148977E+00 -0.13408849185E+02  0.13547389348E+02  0.17770000000E+01 0.  1.
         15    1    1    2    0    0 -0.34786812982E+01 -0.24450228792E+01 -0.63564484380E+01  0.78512117663E+01  0.17770000000E+01 0. -1.
</event>
<event>
 6    1  0.8353910E-003  0.1412104E+03  0.7546771E-02  0.1107092E+00
        -11   -1    0    0    0    0  0.00000000000E+00  0.00000000000E+00  0.18250000000E+03  0.18250000000E+03  0.00000000000E+00 0.  1.
         11   -1    0    0    0    0 -0.00000000000E+00 -0.00000000000E+00 -0.18250000000E+03  0.18250000000E+03  0.00000000000E+00 0.  1.
        -11    1    1    2    0    0  0.14438479387E+01 -0.66201676907E-01  0.33841948893E+02  0.33872800067E+02  0.00000000000E+00 0.  1.
         11    1    1    2    0    0 -0.57872180417E+01  0.56529265406E+00 -0.15605235981E+03  0.15616065590E+03  0.00000000000E+00 0.  1.
        -15    1    1    2    0    0 -0.25479011150E+01 -0.43441116741E+02 -0.17487917501E+01  0.43587136008E+02  0.17770000000E+01 0. -1.
         15    1    1    2    0    0  0.68912712180E+01  0.42942025764E+02  0.12395920267E+03  0.13137940802E+03  0.17770000000E+01 0.  1.
</event>
<event>
 6    1  0.8353910E-003  0.1863313E+03  0.7546771E-02  0.1065445E+00
        -11   -1    0    0    0    0  0.00000000000E+00  0.00000000000E+00  0.18250000000E+03  0.18250000000E+03  0.00000000000E+00 0.  1.
         11   -1    0    0    0    0 -0.00000000000E+00 -0.00000000000E+00 -0.18250000000E+03  0.18250000000E+03  0.00000000000E+00 0.  1.
        -11    1    1    2    0    0 -0.29396304406E+01  0.84371131952E+00  0.17864255006E+03  0.17866872689E+03  0.00000000000E+00 0.  1.
         11    1    1    2    0    0  0.36568198264E+01  0.73238832973E+00 -0.16638405714E+03  0.16642584894E+03  0.00000000000E+00 0.  1.
        -15    1    1    2    0    0  0.42265498232E+01 -0.53372795475E+01 -0.12578733297E+01  0.71477444477E+01  0.17770000000E+01 0. -1.
         15    1    1    2    0    0 -0.49437392090E+01  0.37611798982E+01 -0.11000619593E+02  0.12757679727E+02  0.17770000000E+01 0.  1.
</event>
<event>
 6    1  0.8353910E-003  0.1767749E+03  0.7546771E-02  0.1073106E+00
        -11   -1    0    0    0    0  0.00000000000E+00  0.00000000000E+00  0.18250000000E+03  0.18250000000E+03  0.00000000000E+00 0. -1.
         11   -1    0    0    0    0 -0.00000000000E+00 -0.00000000000E+00 -0.18250000000E+03  0.18250000000E+03  0.00000000000E+00 0.  1.
        -11    1    1    2    0    0  0.25025275051E+01  0.36561048497E-01  0.17803507129E+03  0.17805266240E+03  0.00000000000E+00 0. -1.
         11    1    1    2    0    0  0.64873159680E+01  0.45412366170E+00 -0.17550041741E+03  0.17562086439E+03  0.00000000000E+00 0.  1.
        -15    1    1    2    0    0 -0.19568483563E+01 -0.23436947380E+01 -0.11290310091E+01  0.37087195276E+01  0.17770000000E+01 0. -1.
         15    1    1    2    0    0 -0.70329951168E+01  0.18530100278E+01 -0.14056228685E+01  0.76177536797E+01  0.17770000000E+01 0.  1.
</event>
<event>
 6    1  0.8353910E-003  0.1948357E+03  0.7546771E-02  0.1059039E+00
        -11   -1    0    0    0    0  0.00000000000E+00  0.00000000000E+00  0.18250000000E+03  0.18250000000E+03  0.00000000000E+00 0.  1.
         11   -1    0    0    0    0 -0.00000000000E+00 -0.00000000000E+00 -0.18250000000E+03  0.18250000000E+03  0.00000000000E+00 0. -1.
        -11    1    1    2    0    0 -0.21670432047E+02  0.35131558034E+02  0.16508196681E+03  0.17016430225E+03  0.00000000000E+00 0.  1.
         11    1    1    2    0    0  0.63731024779E+01 -0.50098655179E+01 -0.12608955224E+03  0.12634987286E+03  0.00000000000E+00 0. -1.
        -15    1    1    2    0    0 -0.15070948615E+02 -0.36337919588E+01 -0.75069754229E+01  0.17316187374E+02  0.17770000000E+01 0.  1.
         15    1    1    2    0    0  0.30368278184E+02 -0.26487900557E+02 -0.31485439153E+02  0.51169637515E+02  0.17770000000E+01 0. -1.
</event>
<event>
 6    1  0.8353910E-003  0.1849817E+03  0.7546771E-02  0.1066496E+00
        -11   -1    0    0    0    0  0.00000000000E+00  0.00000000000E+00  0.18250000000E+03  0.18250000000E+03  0.00000000000E+00 0.  1.
         11   -1    0    0    0    0 -0.00000000000E+00 -0.00000000000E+00 -0.18250000000E+03  0.18250000000E+03  0.00000000000E+00 0.  1.
        -11    1    1    2    0    0  0.19084991531E+01 -0.24253210255E+01  0.16501332072E+03  0.16504217815E+03  0.00000000000E+00 0.  1.
         11    1    1    2    0    0 -0.10616175092E+01  0.45637244181E+01 -0.17995733306E+03  0.18001832222E+03  0.00000000000E+00 0.  1.
        -15    1    1    2    0    0  0.27317604986E+01 -0.38609837760E+01  0.76766286083E+00  0.51104546186E+01  0.17770000000E+01 0.  1.
         15    1    1    2    0    0 -0.35786421425E+01  0.17225803834E+01  0.14176349474E+02  0.14829045019E+02  0.17770000000E+01 0.  1.
</event>
<event>
 6    1  0.8353910E-003  0.1839886E+03  0.7546771E-02  0.1067276E+00
        -11   -1    0    0    0    0  0.00000000000E+00  0.00000000000E+00  0.18250000000E+03  0.18250000000E+03  0.00000000000E+00 0.  1.
         11   -1    0    0    0    0 -0.00000000000E+00 -0.00000000000E+00 -0.18250000000E+03  0.18250000000E+03  0.00000000000E+00 0.  1.
        -11    1    1    2    0    0  0.21968025086E+01  0.26545594431E+01  0.11272448548E+03  0.11277713533E+03  0.00000000000E+00 0.  1.
         11    1    1    2    0    0 -0.33148089549E+01 -0.49807622946E+00 -0.18098038004E+03  0.18101141953E+03  0.00000000000E+00 0.  1.
        -15    1    1    2    0    0 -0.45611022357E+01 -0.38929132873E+01  0.60639892021E+01  0.87113788524E+01  0.17770000000E+01 0. -1.
         15    1    1    2    0    0  0.56791086821E+01  0.17364300737E+01  0.62191905363E+02  0.62500066292E+02  0.17770000000E+01 0.  1.
</event>
<event>
 6    1  0.8353910E-003  0.1772388E+03  0.7546771E-02  0.1072722E+00
        -11   -1    0    0    0    0  0.00000000000E+00  0.00000000000E+00  0.18250000000E+03  0.18250000000E+03  0.00000000000E+00 0.  1.
         11   -1    0    0    0    0 -0.00000000000E+00 -0.00000000000E+00 -0.18250000000E+03  0.18250000000E+03  0.00000000000E+00 0. -1.
        -11    1    1    2    0    0 -0.26597254368E+01  0.11298997076E+01  0.17590617233E+03  0.17592990729E+03  0.00000000000E+00 0.  1.
         11    1    1    2    0    0 -0.33251098322E+01 -0.15004245047E+00 -0.17857855127E+03  0.17860956817E+03  0.00000000000E+00 0. -1.
        -15    1    1    2    0    0 -0.31253293803E+00  0.14317514389E+01 -0.10772751208E+01  0.25428015467E+01  0.17770000000E+01 0.  1.
         15    1    1    2    0    0  0.62973682071E+01 -0.24116086960E+01  0.37496540616E+01  0.79177229946E+01  0.17770000000E+01 0.  1.
</event>
<event>
 6    1  0.8353910E-003  0.1845396E+03  0.7546771E-02  0.1066843E+00
        -11   -1    0    0    0    0  0.00000000000E+00  0.00000000000E+00  0.18250000000E+03  0.18250000000E+03  0.00000000000E+00 0.  1.
         11   -1    0    0    0    0 -0.00000000000E+00 -0.00000000000E+00 -0.18250000000E+03  0.18250000000E+03  0.00000000000E+00 0. -1.
        -11    1    1    2    0    0  0.53372245641E+00 -0.33137853898E+01  0.18042917910E+03  0.18046039649E+03  0.00000000000E+00 0.  1.
         11    1    1    2    0    0 -0.38617297816E+01 -0.14115460661E+01 -0.14932115126E+03  0.14937774812E+03  0.00000000000E+00 0. -1.
        -15    1    1    2    0    0  0.15865370773E+00  0.98120676998E+01 -0.16617121154E+02  0.19380100309E+02  0.17770000000E+01 0. -1.
         15    1    1    2    0    0  0.31693536174E+01 -0.50867362439E+01 -0.14490906684E+02  0.15781755083E+02  0.17770000000E+01 0.  1.
</event>
<event>
 6    1  0.8353910E-003  0.1831755E+03  0.7546771E-02  0.1067918E+00
        -11   -1    0    0    0    0  0.00000000000E+00  0.00000000000E+00  0.18250000000E+03  0.18250000000E+03  0.00000000000E+00 0. -1.
         11   -1    0    0    0    0 -0.00000000000E+00 -0.00000000000E+00 -0.18250000000E+03  0.18250000000E+03  0.00000000000E+00 0.  1.
        -11    1    1    2    0    0  0.43991796179E+01 -0.67768161275E+01  0.18164490909E+03  0.18182450609E+03  0.00000000000E+00 0. -1.
         11    1    1    2    0    0  0.78765180071E+00 -0.19958092099E+01 -0.75783182844E+02  0.75813550581E+02  0.00000000000E+00 0.  1.
        -15    1    1    2    0    0 -0.16732714937E+01  0.10562746036E+02 -0.42785704663E+02  0.44137803455E+02  0.17770000000E+01 0. -1.
         15    1    1    2    0    0 -0.35135599249E+01 -0.17901206985E+01 -0.63076021579E+02  0.63224139873E+02  0.17770000000E+01 0.  1.
</event>
<event>
 6    1  0.8353910E-003  0.1854146E+03  0.7546771E-02  0.1066158E+00
        -11   -1    0    0    0    0  0.00000000000E+00  0.00000000000E+00  0.18250000000E+03  0.18250000000E+03  0.00000000000E+00 0. -1.
         11   -1    0    0    0    0 -0.00000000000E+00 -0.00000000000E+00 -0.18250000000E+03  0.18250000000E+03  0.00000000000E+00 0. -1.
        -11    1    1    2    0    0 -0.37036244607E+01  0.29937105208E+01  0.17467092283E+03  0.17473583038E+03  0.00000000000E+00 0. -1.
         11    1    1    2    0    0 -0.29350000504E+01 -0.32533421205E+00 -0.17956115304E+03  0.17958543301E+03  0.00000000000E+00 0. -1.
        -15    1    1    2    0    0  0.39479860657E+01  0.39999419988E+00  0.41632790332E+00  0.43677966136E+01  0.17770000000E+01 0.  1.
         15    1    1    2    0    0  0.26906384453E+01 -0.30683705087E+01  0.44739023018E+01  0.63109399956E+01  0.17770000000E+01 0. -1.
</event>
<event>
 6    1  0.8353910E-003  0.1831172E+03  0.7546771E-02  0.1067965E+00
        -11   -1    0    0    0    0  0.00000000000E+00  0.00000000000E+00  0.18250000000E+03  0.18250000000E+03  0.00000000000E+00 0. -1.
         11   -1    0    0    0    0 -0.00000000000E+00 -0.00000000000E+00 -0.18250000000E+03  0.18250000000E+03  0.00000000000E+00 0.  1.
        -11    1    1    2    0    0 -0.22007962357E+01  0.19585473416E+01  0.18185898438E+03  0.18188284584E+03  0.00000000000E+00 0. -1.
         11    1    1    2    0    0  0.55448397129E+00 -0.22803338078E+01 -0.17089364932E+03  0.17090976202E+03  0.00000000000E+00 0.  1.
        -15    1    1    2    0    0 -0.85163697506E+00  0.44009092485E-01 -0.64365634166E+01  0.67315897048E+01  0.17770000000E+01 0. -1.
         15    1    1    2    0    0  0.24979492394E+01  0.27777737372E+00 -0.45287716460E+01  0.54758024338E+01  0.17770000000E+01 0.  1.
</event>
<event>
 6    1  0.8353910E-003  0.1835522E+03  0.7546771E-02  0.1067620E+00
        -11   -1    0    0    0    0  0.00000000000E+00  0.00000000000E+00  0.18250000000E+03  0.18250000000E+03  0.00000000000E+00 0.  1.
         11   -1    0    0    0    0 -0.00000000000E+00 -0.00000000000E+00 -0.18250000000E+03  0.18250000000E+03  0.00000000000E+00 0.  1.
        -11    1    1    2    0    0 -0.16940307689E+01 -0.20472424636E+01  0.16735296215E+03  0.16737405678E+03  0.00000000000E+00 0.  1.
         11    1    1    2    0    0  0.42016365743E+00  0.24845187247E+01 -0.18143027072E+03  0.18144776798E+03  0.00000000000E+00 0.  1.
        -15    1    1    2    0    0  0.17382384905E+01  0.23290677212E+01  0.11443967539E+02  0.11940190599E+02  0.17770000000E+01 0.  1.
         15    1    1    2    0    0 -0.46437137905E+00 -0.27663439823E+01  0.26333410321E+01  0.42379846386E+01  0.17770000000E+01 0.  1.
</event>
<event>
 6    1  0.8353910E-003  0.1826726E+03  0.7546771E-02  0.1068318E+00
        -11   -1    0    0    0    0  0.00000000000E+00  0.00000000000E+00  0.18250000000E+03  0.18250000000E+03  0.00000000000E+00 0.  1.
         11   -1    0    0    0    0 -0.00000000000E+00 -0.00000000000E+00 -0.18250000000E+03  0.18250000000E+03  0.00000000000E+00 0.  1.
        -11    1    1    2    0    0  0.16783855467E+01  0.10510203233E+01  0.10751877321E+03  0.10753700858E+03  0.00000000000E+00 0.  1.
         11    1    1    2    0    0 -0.10779214983E+01 -0.54254927475E+01 -0.18224347186E+03  0.18232740036E+03  0.00000000000E+00 0.  1.
        -15    1    1    2    0    0 -0.20290557271E+01  0.18047083695E+01  0.16890127134E+02  0.17199074483E+02  0.17770000000E+01 0.  1.
         15    1    1    2    0    0  0.14285916786E+01  0.25697640547E+01  0.57834571517E+02  0.57936516576E+02  0.17770000000E+01 0. -1.
</event>
<event>
 6    1  0.8353910E-003  0.1874887E+03  0.7546771E-02  0.1064552E+00
        -11   -1    0    0    0    0  0.00000000000E+00  0.00000000000E+00  0.18250000000E+03  0.18250000000E+03  0.00000000000E+00 0.  1.
         11   -1    0    0    0    0 -0.00000000000E+00 -0.00000000000E+00 -0.18250000000E+03  0.18250000000E+03  0.00000000000E+00 0.  1.
        -11    1    1    2    0    0 -0.49547074958E+00  0.54223933964E+01  0.16377188796E+03  0.16386237863E+03  0.00000000000E+00 0.  1.
         11    1    1    2    0    0 -0.10344472885E-01  0.97687446302E+01 -0.17724229135E+03  0.17751129069E+03  0.00000000000E+00 0.  1.
        -15    1    1    2    0    0  0.34915495830E+01 -0.11577271141E+02  0.14000889101E+02  0.18585121742E+02  0.17770000000E+01 0.  1.
         15    1    1    2    0    0 -0.29857343606E+01 -0.36138668854E+01 -0.53048571776E+00  0.50412089457E+01  0.17770000000E+01 0. -1.
</event>
<event>
 6    1  0.8353910E-003  0.1826296E+03  0.7546771E-02  0.1068352E+00
        -11   -1    0    0    0    0  0.00000000000E+00  0.00000000000E+00  0.18250000000E+03  0.18250000000E+03  0.00000000000E+00 0. -1.
         11   -1    0    0    0    0 -0.00000000000E+00 -0.00000000000E+00 -0.18250000000E+03  0.18250000000E+03  0.00000000000E+00 0.  1.
        -11    1    1    2    0    0  0.25962977548E+01  0.12379328400E+01  0.12479925120E+03  0.12483239299E+03  0.00000000000E+00 0. -1.
         11    1    1    2    0    0 -0.21729779779E+01  0.11717747575E+01 -0.18235371816E+03  0.18237042912E+03  0.00000000000E+00 0.  1.
        -15    1    1    2    0    0 -0.91910444723E+00 -0.11132184446E+01  0.43741476159E+02  0.43801352420E+02  0.17770000000E+01 0.  1.
         15    1    1    2    0    0  0.49578467037E+00 -0.12964891528E+01  0.13812990808E+02  0.13995825471E+02  0.17770000000E+01 0. -1.
</event>
<event>
 6    1  0.8353910E-003  0.1871129E+03  0.7546771E-02  0.1064841E+00
        -11   -1    0    0    0    0  0.00000000000E+00  0.00000000000E+00  0.18250000000E+03  0.18250000000E+03  0.00000000000E+00 0.  1.
         11   -1    0    0    0    0 -0.00000000000E+00 -0.00000000000E+00 -0.18250000000E+03  0.18250000000E+03  0.00000000000E+00 0. -1.
        -11    1    1    2    0    0 -0.32256209017E+01 -0.74106395771E+00  0.16649250600E+03  0.16652539854E+03  0.00000000000E+00 0.  1.
         11    1    1    2    0    0  0.72500025285E+01 -0.35663285976E+01 -0.17770353036E+03  0.17788711572E+03  0.00000000000E+00 0. -1.
        -15    1    1    2    0    0 -0.58822669259E+01  0.70354996672E+01  0.63034912770E+00  0.93623922572E+01  0.17770000000E+01 0.  1.
         15    1    1    2    0    0  0.18578852991E+01 -0.27281071118E+01  0.10580675237E+02  0.11225093481E+02  0.17770000000E+01 0.  1.
</event>
<event>
 6    1  0.8353910E-003  0.1828642E+03  0.7546771E-02  0.1068165E+00
        -11   -1    0    0    0    0  0.00000000000E+00  0.00000000000E+00  0.18250000000E+03  0.18250000000E+03  0.00000000000E+00 0. -1.
         11   -1    0    0    0    0 -0.00000000000E+00 -0.00000000000E+00 -0.18250000000E+03  0.18250000000E+03  0.00000000000E+00 0.  1.
        -11    1    1    2    0    0 -0.27220528850E+01  0.19461265107E+01  0.18210510347E+03  0.18213584406E+03  0.00000000000E+00 0. -1.
         11    1    1    2    0    0 -0.14587373049E+01  0.11281272906E+01 -0.12977129989E+03  0.12978440145E+03  0.00000000000E+00 0.  1.
        -15    1    1    2    0    0  0.34930459853E+01 -0.35457403819E+01 -0.20002502677E+02  0.20688921854E+02  0.17770000000E+01 0. -1.
         15    1    1    2    0    0  0.68774420457E+00  0.47148658067E+00 -0.32331300907E+02  0.32390832638E+02  0.17770000000E+01 0.  1.
</event>
<event>
 6    1  0.8353910E-003  0.1677602E+03  0.7546771E-02  0.1080833E+00
        -11   -1    0    0    0    0  0.00000000000E+00  0.00000000000E+00  0.18250000000E+03  0.18250000000E+03  0.00000000000E+00 0. -1.
         11   -1    0    0    0    0 -0.00000000000E+00 -0.00000000000E+00 -0.18250000000E+03  0.18250000000E+03  0.00000000000E+00 0. -1.
        -11    1    1    2    0    0 -0.26322133978E+01  0.12820725609E+01  0.17017606469E+03  0.17020124926E+03  0.00000000000E+00 0. -1.
         11    1    1    2    0    0  0.13276980241E+01  0.20328308254E+02 -0.16480559158E+03  0.16605988653E+03  0.00000000000E+00 0. -1.
        -15    1    1    2    0    0  0.53136171706E+01 -0.17388590115E+02 -0.10240443260E+02  0.20943304438E+02  0.17770000000E+01 0. -1.
         15    1    1    2    0    0 -0.40091017969E+01 -0.42217907002E+01  0.48699701462E+01  0.77955597720E+01  0.17770000000E+01 0.  1.
</event>
<event>
 6    1  0.8353910E-003  0.1839702E+03  0.7546771E-02  0.1067291E+00
        -11   -1    0    0    0    0  0.00000000000E+00  0.00000000000E+00  0.18250000000E+03  0.18250000000E+03  0.00000000000E+00 0. -1.
         11   -1    0    0    0    0 -0.00000000000E+00 -0.00000000000E+00 -0.18250000000E+03  0.18250000000E+03  0.00000000000E+00 0.  1.
        -11    1    1    2    0    0 -0.24705165364E+01 -0.32613377837E+00  0.17531293594E+03  0.17533064571E+03  0.00000000000E+00 0. -1.
         11    1    1    2    0    0 -0.44588982754E+00 -0.28491466334E+01 -0.18100683665E+03  0.18102980796E+03  0.00000000000E+00 0.  1.
        -15    1    1    2    0    0  0.27452883325E+01  0.19431165905E+01  0.18595245164E+01  0.42341316158E+01  0.17770000000E+01 0.  1.
         15    1    1    2    0    0  0.17111803143E+00  0.12321638213E+01  0.38343761943E+01  0.44054147208E+01  0.17770000000E+01 0. -1.
</event>
<event>
 6    1  0.8353910E-003  0.1860585E+03  0.7546771E-02  0.1065657E+00
        -11   -1    0    0    0    0  0.00000000000E+00  0.00000000000E+00  0.18250000000E+03  0.18250000000E+03  0.00000000000E+00 0.  1.
         11   -1    0    0    0    0 -0.00000000000E+00 -0.00000000000E+00 -0.18250000000E+03  0.18250000000E+03  0.00000000000E+00 0. -1.
        -11    1    1    2    0    0  0.26769149487E+01  0.34333337464E+01  0.16765785387E+03  0.16771436915E+03  0.00000000000E+00 0.  1.
         11    1    1    2    0    0 -0.69749593106E+01 -0.50353540592E+01 -0.17873457304E+03  0.17894147771E+03  0.00000000000E+00 0. -1.
        -15    1    1    2    0    0 -0.20301472065E+01 -0.24123706242E+01  0.99153045724E+01  0.10555189410E+02  0.17770000000E+01 0.  1.
         15    1    1    2    0    0  0.63281915684E+01  0.40143909370E+01  0.11614145925E+01  0.77889637293E+01  0.17770000000E+01 0. -1.
</event>
<event>
 6    1  0.8353910E-003  0.1836615E+03  0.7546771E-02  0.1067534E+00
        -11   -1    0    0    0    0  0.00000000000E+00  0.00000000000E+00  0.18250000000E+03  0.18250000000E+03  0.00000000000E+00 0. -1.
         11   -1    0    0    0    0 -0.00000000000E+00 -0.00000000000E+00 -0.18250000000E+03  0.18250000000E+03  0.00000000000E+00 0.  1.
        -11    1    1    2    0    0 -0.29774141571E+01 -0.51018049452E+01  0.18124229063E+03  0.18133852686E+03  0.00000000000E+00 0. -1.
         11    1    1    2    0    0 -0.32986343643E+01 -0.18871838379E+01 -0.15756733932E+03  0.15761316211E+03  0.00000000000E+00 0.  1.
        -15    1    1    2    0    0  0.47130848058E+01  0.61629699376E+01 -0.14543680703E+02  0.16579256444E+02  0.17770000000E+01 0.  1.
         15    1    1    2    0    0  0.15629637156E+01  0.82601884548E+00 -0.91312706139E+01  0.94690545850E+01  0.17770000000E+01 0. -1.
</event>
<event>
 6    1  0.8353910E-003  0.1858251E+03  0.7546771E-02  0.1065838E+00
        -11   -1    0    0    0    0  0.00000000000E+00  0.00000000000E+00  0.18250000000E+03  0.18250000000E+03  0.00000000000E+00 0. -1.
         11   -1    0    0    0    0 -0.00000000000E+00 -0.00000000000E+00 -0.18250000000E+03  0.18250000000E+03  0.00000000000E+00 0.  1.
        -11    1    1    2    0    0 -0.17758271569E+01 -0.56053836301E+01  0.17479473489E+03  0.17489360546E+03  0.00000000000E+00 0. -1.
         11    1    1    2    0    0 -0.41338211890E+00  0.58079282580E+01 -0.17908024596E+03  0.17917487940E+03  0.00000000000E+00 0.  1.
        -15    1    1    2    0    0  0.47296402497E+01  0.17494889857E+01  0.48571816172E+01  0.72235829659E+01  0.17770000000E+01 0.  1.
         15    1    1    2    0    0 -0.25404309739E+01 -0.19520336136E+01 -0.57167054119E+00  0.37079321689E+01  0.17770000000E+01 0. -1.
</event>
<event>
 6    1  0.8353910E-003  0.1828435E+03  0.7546771E-02  0.1068182E+00
        -11   -1    0    0    0    0  0.00000000000E+00  0.00000000000E+00  0.18250000000E+03  0.18250000000E+03  0.00000000000E+00 0.  1.
         11   -1    0    0    0    0 -0.00000000000E+00 -0.00000000000E+00 -0.18250000000E+03  0.18250000000E+03  0.00000000000E+00 0.  1.
        -11    1    1    2    0    0 -0.40903700700E+01 -0.20320850658E+00  0.18211047082E+03  0.18215651512E+03  0.00000000000E+00 0.  1.
         11    1    1    2    0    0 -0.17610676204E+01 -0.88821917501E+00 -0.19179255074E+02  0.19280407611E+02  0.00000000000E+00 0.  1.
        -15    1    1    2    0    0  0.35099143491E+01 -0.35662468388E+01 -0.26826209718E+02  0.27346679361E+02  0.17770000000E+01 0.  1.
         15    1    1    2    0    0  0.23415233414E+01  0.46576745204E+01 -0.13610500603E+03  0.13621639790E+03  0.17770000000E+01 0. -1.
</event>
<event>
 6    1  0.8353910E-003  0.1905609E+03  0.7546771E-02  0.1062213E+00
        -11   -1    0    0    0    0  0.00000000000E+00  0.00000000000E+00  0.18250000000E+03  0.18250000000E+03  0.00000000000E+00 0.  1.
         11   -1    0    0    0    0 -0.00000000000E+00 -0.00000000000E+00 -0.18250000000E+03  0.18250000000E+03  0.00000000000E+00 0. -1.
        -11    1    1    2    0    0  0.53394321226E+01 -0.42060968384E+01  0.16083554167E+03  0.16097910501E+03  0.00000000000E+00 0.  1.
         11    1    1    2    0    0  0.45395049046E+01 -0.12074099191E+02 -0.17396149999E+03  0.17443908522E+03  0.00000000000E+00 0. -1.
        -15    1    1    2    0    0 -0.60390082465E-01  0.42522008347E+01  0.13170594124E+02  0.13953749943E+02  0.17770000000E+01 0.  1.
         15    1    1    2    0    0 -0.98185469447E+01  0.12027995195E+02 -0.44635803280E-01  0.15628059824E+02  0.17770000000E+01 0. -1.
</event>
<event>
 6    1  0.8353910E-003  0.1871282E+03  0.7546771E-02  0.1064829E+00
        -11   -1    0    0    0    0  0.00000000000E+00  0.00000000000E+00  0.18250000000E+03  0.18250000000E+03  0.00000000000E+00 0.  1.
         11   -1    0    0    0    0 -0.00000000000E+00 -0.00000000000E+00 -0.18250000000E+03  0.18250000000E+03  0.00000000000E+00 0.  1.
        -11    1    1    2    0    0 -0.48868407432E+01 -0.94970530041E+00  0.17780211182E+03  0.17787179124E+03  0.00000000000E+00 0.  1.
         11    1    1    2    0    0  0.78542002741E+00 -0.27181866356E+01 -0.17014992684E+03  0.17017344983E+03  0.00000000000E+00 0.  1.
        -15    1    1    2    0    0  0.97710099904E+00  0.34236471357E+01 -0.11207683287E+02  0.11893106395E+02  0.17770000000E+01 0.  1.
         15    1    1    2    0    0  0.31243197167E+01  0.24424480027E+00  0.35554983031E+01  0.50616525363E+01  0.17770000000E+01 0.  1.
</event>
<event>
 6    1  0.8353910E-003  0.1844091E+03  0.7546771E-02  0.1066945E+00
        -11   -1    0    0    0    0  0.00000000000E+00  0.00000000000E+00  0.18250000000E+03  0.18250000000E+03  0.00000000000E+00 0. -1.
         11   -1    0    0    0    0 -0.00000000000E+00 -0.00000000000E+00 -0.18250000000E+03  0.18250000000E+03  0.00000000000E+00 0. -1.
        -11    1    1    2    0    0  0.47669816234E+01  0.45419678509E+01  0.16262407597E+03  0.16275731526E+03  0.00000000000E+00 0. -1.
         11    1    1    2    0    0  0.10888246108E+01 -0.25348163326E+01 -0.18056985272E+03  0.18059092597E+03  0.00000000000E+00 0. -1.
        -15    1    1    2    0    0 -0.54592062709E+01  0.14241491690E+01  0.16463911469E+02  0.17494263169E+02  0.17770000000E+01 0. -1.
         15    1    1    2    0    0 -0.39659996328E+00 -0.34313006872E+01  0.14818652863E+01  0.41574956000E+01  0.17770000000E+01 0.  1.
</event>
<event>
 6    1  0.8353910E-003  0.1831329E+03  0.7546771E-02  0.1067952E+00
        -11   -1    0    0    0    0  0.00000000000E+00  0.00000000000E+00  0.18250000000E+03  0.18250000000E+03  0.00000000000E+00 0.  1.
         11   -1    0    0    0    0 -0.00000000000E+00 -0.00000000000E+00 -0.18250000000E+03  0.18250000000E+03  0.00000000000E+00 0.  1.
        -11    1    1    2    0    0 -0.33764949644E+01  0.37332033684E+01  0.17128123829E+03  0.17135518701E+03  0.00000000000E+00 0.  1.
         11    1    1    2    0    0  0.16272051734E+01 -0.34095739206E+01 -0.18182781788E+03  0.18186706229E+03  0.00000000000E+00 0.  1.
        -15    1    1    2    0    0  0.23025703273E+01 -0.23460613048E+00  0.38745824885E+01  0.48504627211E+01  0.17770000000E+01 0. -1.
         15    1    1    2    0    0 -0.55328053636E+00 -0.89023317299E-01  0.66719970992E+01  0.69272879826E+01  0.17770000000E+01 0. -1.
</event>
<event>
 6    1  0.8353910E-003  0.1844904E+03  0.7546771E-02  0.1066881E+00
        -11   -1    0    0    0    0  0.00000000000E+00  0.00000000000E+00  0.18250000000E+03  0.18250000000E+03  0.00000000000E+00 0. -1.
         11   -1    0    0    0    0 -0.00000000000E+00 -0.00000000000E+00 -0.18250000000E+03  0.18250000000E+03  0.00000000000E+00 0.  1.
        -11    1    1    2    0    0 -0.21934165233E+01  0.15795061961E+00  0.15191321311E+03  0.15192912934E+03  0.00000000000E+00 0. -1.
         11    1    1    2    0    0 -0.11273400760E+01  0.46874507088E+01 -0.18044521046E+03  0.18050960382E+03  0.00000000000E+00 0.  1.
        -15    1    1    2    0    0  0.33886331425E+01 -0.71083143213E+01  0.28564218546E+02  0.29683046966E+02  0.17770000000E+01 0. -1.
         15    1    1    2    0    0 -0.67876543169E-01  0.22629129929E+01 -0.32221195947E-01  0.28782198742E+01  0.17770000000E+01 0.  1.
</event>
<event>
 6    1  0.8353910E-003  0.1880481E+03  0.7546771E-02  0.1064122E+00
        -11   -1    0    0    0    0  0.00000000000E+00  0.00000000000E+00  0.18250000000E+03  0.18250000000E+03  0.00000000000E+00 0.  1.
         11   -1    0    0    0    0 -0.00000000000E+00 -0.00000000000E+00 -0.18250000000E+03  0.18250000000E+03  0.00000000000E+00 0.  1.
        -11    1    1    2    0    0 -0.26117635870E+01 -0.38543682650E+01  0.17422630615E+03  0.17428850570E+03  0.00000000000E+00 0.  1.
         11    1    1    2    0    0  0.20177498964E+01  0.27582231202E+01 -0.17691888566E+03  0.17695188954E+03  0.00000000000E+00 0.  1.
        -15    1    1    2    0    0 -0.54565020064E+01 -0.17256940942E+01  0.32705521147E+01  0.68268348733E+01  0.17770000000E+01 0.  1.
         15    1    1    2    0    0  0.60505156970E+01  0.28218392390E+01 -0.57797260637E+00  0.69327698810E+01  0.17770000000E+01 0. -1.
</event>
<event>
 6    1  0.8353910E-003  0.1495170E+03  0.7546771E-02  0.1098237E+00
        -11   -1    0    0    0    0  0.00000000000E+00  0.00000000000E+00  0.18250000000E+03  0.18250000000E+03  0.00000000000E+00 0. -1.
         11   -1    0    0    0    0 -0.00000000000E+00 -0.00000000000E+00 -0.18250000000E+03  0.18250000000E+03  0.00000000000E+00 0.  1.
        -11    1    1    2    0    0  0.19510756527E+02 -0.25043407528E+02  0.13658529166E+03  0.14022618792E+03  0.00000000000E+00 0. -1.
         11    1    1    2    0    0  0.12785083013E+02  0.38444675960E+01 -0.16179509336E+03  0.16234497378E+03  0.00000000000E+00 0.  1.
        -15    1    1    2    0    0 -0.10194435853E+02 -0.40574462912E+01 -0.91265636344E+01  0.14381977804E+02  0.17770000000E+01 0. -1.
         15    1    1    2    0    0 -0.22101403686E+02  0.25256386223E+02  0.34336365333E+02  0.48046860493E+02  0.17770000000E+01 0.  1.
</event>
<event>
 6    1  0.8353910E-003  0.1833248E+03  0.7546771E-02  0.1067800E+00
        -11   -1    0    0    0    0  0.00000000000E+00  0.00000000000E+00  0.18250000000E+03  0.18250000000E+03  0.00000000000E+00 0. -1.
         11   -1    0    0    0    0 -0.00000000000E+00 -0.00000000000E+00 -0.18250000000E+03  0.18250000000E+03  0.00000000000E+00 0.  1.
        -11    1    1    2    0    0  0.19391203581E+01 -0.36433817062E+01  0.18162828611E+03  0.18167517368E+03  0.00000000000E+00 0. -1.
         11    1    1    2    0    0 -0.40246087134E+01  0.16597757045E+01 -0.48191069338E+02  0.48387307164E+02  0.00000000000E+00 0.  1.
        -15    1    1    2    0    0  0.18764976611E+01 -0.29616531858E+01 -0.12454181430E+03  0.12460382768E+03  0.17770000000E+01 0.  1.
         15    1    1    2    0    0  0.20899069424E+00  0.49452591875E+01 -0.88954024675E+01  0.10333691480E+02  0.17770000000E+01 0. -1.
</event>
<event>
 6    1  0.8353910E-003  0.1833218E+03  0.7546771E-02  0.1067802E+00
        -11   -1    0    0    0    0  0.00000000000E+00  0.00000000000E+00  0.18250000000E+03  0.18250000000E+03  0.00000000000E+00 0.  1.
         11   -1    0    0    0    0 -0.00000000000E+00 -0.00000000000E+00 -0.18250000000E+03  0.18250000000E+03  0.00000000000E+00 0.  1.
        -11    1    1    2    0    0 -0.17539933220E+01 -0.19366190416E+01  0.11790445264E+03  0.11793340043E+03  0.00000000000E+00 0.  1.
         11    1    1    2    0    0  0.12715915944E+01  0.63025696675E+01 -0.18156434821E+03  0.18167815464E+03  0.00000000000E+00 0.  1.
        -15    1    1    2    0    0  0.47798180890E+01  0.21506265742E+01  0.40663259295E+02  0.41038155917E+02  0.17770000000E+01 0.  1.
         15    1    1    2    0    0 -0.42974163614E+01 -0.65165772001E+01  0.22996636284E+02  0.24350289016E+02  0.17770000000E+01 0. -1.
</event>
<event>
 6    1  0.8353910E-003  0.1826707E+03  0.7546771E-02  0.1068319E+00
        -11   -1    0    0    0    0  0.00000000000E+00  0.00000000000E+00  0.18250000000E+03  0.18250000000E+03  0.00000000000E+00 0.  1.
         11   -1    0    0    0    0 -0.00000000000E+00 -0.00000000000E+00 -0.18250000000E+03  0.18250000000E+03  0.00000000000E+00 0. -1.
        -11    1    1    2    0    0  0.37933219993E+00  0.20123068997E+01  0.73114136644E+02  0.73142807227E+02  0.00000000000E+00 0.  1.
         11    1    1    2    0    0 -0.22098322282E+01  0.21785779842E+01 -0.18230292029E+03  0.18232932926E+03  0.00000000000E+00 0. -1.
        -15    1    1    2    0    0  0.33218130003E+01 -0.20324074307E+01  0.33442884776E+02  0.33715714329E+02  0.17770000000E+01 0.  1.
         15    1    1    2    0    0 -0.14913129720E+01 -0.21584774532E+01  0.75745898872E+02  0.75812149187E+02  0.17770000000E+01 0. -1.
</event>
<event>
 6    1  0.8353910E-003  0.1940947E+03  0.7546771E-02  0.1059583E+00
        -11   -1    0    0    0    0  0.00000000000E+00  0.00000000000E+00  0.18250000000E+03  0.18250000000E+03  0.00000000000E+00 0.  1.
         11   -1    0    0    0    0 -0.00000000000E+00 -0.00000000000E+00 -0.18250000000E+03  0.18250000000E+03  0.00000000000E+00 0. -1.
        -11    1    1    2    0    0 -0.58493134915E+01  0.92696804268E+00  0.12321311054E+03  0.12335535800E+03  0.00000000000E+00 0.  1.
         11    1    1    2    0    0  0.16977373650E+01  0.16428079579E+01 -0.17088897519E+03  0.17090530410E+03  0.00000000000E+00 0. -1.
        -15    1    1    2    0    0  0.55751748816E+01  0.17665407824E+02  0.46792645019E+02  0.50357308958E+02  0.17770000000E+01 0.  1.
         15    1    1    2    0    0 -0.14235987551E+01 -0.20235183825E+02  0.88321962555E+00  0.20382028941E+02  0.17770000000E+01 0. -1.
</event>
<event>
 6    1  0.8353910E-003  0.1839627E+03  0.7546771E-02  0.1067296E+00
        -11   -1    0    0    0    0  0.00000000000E+00  0.00000000000E+00  0.18250000000E+03  0.18250000000E+03  0.00000000000E+00 0.  1.
         11   -1    0    0    0    0 -0.00000000000E+00 -0.00000000000E+00 -0.18250000000E+03  0.18250000000E+03  0.00000000000E+00 0. -1.
        -11    1    1    2    0    0 -0.31410883408E+01  0.24748215908E+01  0.15641229396E+03  0.15646340429E+03  0.00000000000E+00 0.  1.
         11    1    1    2    0    0 -0.69981989976E+00 -0.37233320049E+01 -0.18099769517E+03  0.18103734036E+03  0.00000000000E+00 0. -1.
        -15    1    1    2    0    0  0.12061674993E+01 -0.24610860191E+01  0.10039913520E+01  0.34172374902E+01  0.17770000000E+01 0. -1.
         15    1    1    2    0    0  0.26347407412E+01  0.37095964332E+01  0.23581409854E+02  0.24082017859E+02  0.17770000000E+01 0. -1.
</event>
<event>
 6    1  0.8353910E-003  0.1825806E+03  0.7546771E-02  0.1068391E+00
        -11   -1    0    0    0    0  0.00000000000E+00  0.00000000000E+00  0.18250000000E+03  0.18250000000E+03  0.00000000000E+00 0. -1.
         11   -1    0    0    0    0 -0.00000000000E+00 -0.00000000000E+00 -0.18250000000E+03  0.18250000000E+03  0.00000000000E+00 0. -1.
        -11    1    1    2    0    0 -0.12972769770E+01  0.24471954496E+01  0.18239841781E+03  0.18241944664E+03  0.00000000000E+00 0. -1.
         11    1    1    2    0    0 -0.70136257918E+00  0.27283370825E+00 -0.47599562603E+01  0.48190799225E+01  0.00000000000E+00 0. -1.
        -15    1    1    2    0    0  0.32761150889E+01 -0.17350287247E+01 -0.96510172478E+02  0.96597693427E+02  0.17770000000E+01 0. -1.
         15    1    1    2    0    0 -0.12774755327E+01 -0.98500043308E+00 -0.81128289069E+02  0.81163780012E+02  0.17770000000E+01 0.  1.
</event>
<event>
 6    1  0.8353910E-003  0.1925902E+03  0.7546771E-02  0.1060695E+00
        -11   -1    0    0    0    0  0.00000000000E+00  0.00000000000E+00  0.18250000000E+03  0.18250000000E+03  0.00000000000E+00 0.  1.
         11   -1    0    0    0    0 -0.00000000000E+00 -0.00000000000E+00 -0.18250000000E+03  0.18250000000E+03  0.00000000000E+00 0. -1.
        -11    1    1    2    0    0  0.25560172656E+01 -0.69460681560E+01  0.16523620662E+03  0.16540188954E+03  0.00000000000E+00 0.  1.
         11    1    1    2    0    0 -0.31980647835E-01 -0.24186090115E+01 -0.17239280810E+03  0.17240977634E+03  0.00000000000E+00 0. -1.
        -15    1    1    2    0    0  0.83955679135E+00 -0.94711326263E+00 -0.80978952691E+01  0.83866272081E+01  0.17770000000E+01 0. -1.
         15    1    1    2    0    0 -0.33635934091E+01  0.10311790430E+02  0.15254496752E+02  0.18801706908E+02  0.17770000000E+01 0. -1.
</event>
<event>
 6    1  0.8353910E-003  0.1830332E+03  0.7546771E-02  0.1068031E+00
        -11   -1    0    0    0    0  0.00000000000E+00  0.00000000000E+00  0.18250000000E+03  0.18250000000E+03  0.00000000000E+00 0.  1.
         11   -1    0    0    0    0 -0.00000000000E+00 -0.00000000000E+00 -0.18250000000E+03  0.18250000000E+03  0.00000000000E+00 0.  1.
        -11    1    1    2    0    0  0.96840358451E+00  0.58272962743E+00  0.82020051356E+02  0.82027837980E+02  0.00000000000E+00 0.  1.
         11    1    1    2    0    0  0.34645149915E+01 -0.58439211934E+01 -0.18183991891E+03  0.18196678375E+03  0.00000000000E+00 0.  1.
        -15    1    1    2    0    0 -0.46265577700E+01  0.42045468067E+01  0.17638957906E+02  0.18798239695E+02  0.17770000000E+01 0.  1.
         15    1    1    2    0    0  0.19363919392E+00  0.10566447593E+01  0.82180909644E+02  0.82207138578E+02  0.17770000000E+01 0. -1.
</event>
<event>
 6    1  0.8353910E-003  0.1838842E+03  0.7546771E-02  0.1067358E+00
        -11   -1    0    0    0    0  0.00000000000E+00  0.00000000000E+00  0.18250000000E+03  0.18250000000E+03  0.00000000000E+00 0.  1.
         11   -1    0    0    0    0 -0.00000000000E+00 -0.00000000000E+00 -0.18250000000E+03  0.18250000000E+03  0.00000000000E+00 0. -1.
        -11    1    1    2    0    0  0.16302182979E+01 -0.24536869604E+01  0.18109184592E+03  0.18111580508E+03  0.00000000000E+00 0.  1.
         11    1    1    2    0    0 -0.23422890098E+01  0.15174293124E+01 -0.17474104215E+03  0.17476332774E+03  0.00000000000E+00 0. -1.
        -15    1    1    2    0    0  0.12049083227E+01 -0.12496145059E+01 -0.56565127375E+01  0.61779613004E+01  0.17770000000E+01 0. -1.
         15    1    1    2    0    0 -0.49283761076E+00  0.21858721539E+01 -0.69429102735E+00  0.29429058793E+01  0.17770000000E+01 0.  1.
</event>
<event>
 6    1  0.8353910E-003  0.1831096E+03  0.7546771E-02  0.1067971E+00
        -11   -1    0    0    0    0  0.00000000000E+00  0.00000000000E+00  0.18250000000E+03  0.18250000000E+03  0.00000000000E+00 0.  1.
         11   -1    0    0    0    0 -0.00000000000E+00 -0.00000000000E+00 -0.18250000000E+03  0.18250000000E+03  0.00000000000E+00 0. -1.
        -11    1    1    2    0    0 -0.43226291755E+01  0.18748883155E+01  0.14958802593E+03  0.14966221243E+03  0.00000000000E+00 0.  1.
         11    1    1    2    0    0  0.49508115104E+01 -0.48118856856E+01 -0.18175936145E+03  0.18189043475E+03  0.00000000000E+00 0. -1.
        -15    1    1    2    0    0 -0.56047584788E+00 -0.10747639260E+01  0.24618225742E+02  0.24712021737E+02  0.17770000000E+01 0.  1.
         15    1    1    2    0    0 -0.67706487031E-01  0.40117612961E+01  0.75531097798E+01  0.87353310877E+01  0.17770000000E+01 0. -1.
</event>
<event>
 6    1  0.8353910E-003  0.1836153E+03  0.7546771E-02  0.1067570E+00
        -11   -1    0    0    0    0  0.00000000000E+00  0.00000000000E+00  0.18250000000E+03  0.18250000000E+03  0.00000000000E+00 0. -1.
         11   -1    0    0    0    0 -0.00000000000E+00 -0.00000000000E+00 -0.18250000000E+03  0.18250000000E+03  0.00000000000E+00 0.  1.
        -11    1    1    2    0    0 -0.20452929658E+01 -0.63625300202E+01  0.18126153604E+03  0.18138470018E+03  0.00000000000E+00 0. -1.
         11    1    1    2    0    0 -0.17943769629E+01 -0.59677928779E+00 -0.14005947931E+03  0.14007224450E+03  0.00000000000E+00 0.  1.
        -15    1    1    2    0    0 -0.62093595518E+00  0.26133775386E+00 -0.27414079245E+02  0.27479871338E+02  0.17770000000E+01 0.  1.
         15    1    1    2    0    0  0.44606058839E+01  0.66979715541E+01 -0.13787977484E+02  0.16063183990E+02  0.17770000000E+01 0.  1.
</event>
<event>
 6    1  0.8353910E-003  0.1834616E+03  0.7546771E-02  0.1067692E+00
        -11   -1    0    0    0    0  0.00000000000E+00  0.00000000000E+00  0.18250000000E+03  0.18250000000E+03  0.00000000000E+00 0.  1.
         11   -1    0    0    0    0 -0.00000000000E+00 -0.00000000000E+00 -0.18250000000E+03  0.18250000000E+03  0.00000000000E+00 0. -1.
        -11    1    1    2    0    0  0.23290925943E+01 -0.29645065798E+01  0.18149924463E+03  0.18153839476E+03  0.00000000000E+00 0.  1.
         11    1    1    2    0    0 -0.35215042672E+01 -0.69047770557E+00 -0.10565279953E+03  0.10571372569E+03  0.00000000000E+00 0. -1.
        -15    1    1    2    0    0  0.33308661693E+01 -0.12433813037E+01 -0.67853120382E+02  0.67969436816E+02  0.17770000000E+01 0.  1.
         15    1    1    2    0    0 -0.21384544964E+01  0.48983655892E+01 -0.79933247201E+01  0.97784427267E+01  0.17770000000E+01 0. -1.
</event>
<event>
 6    1  0.9043699E-003  0.1911953E+03  0.7546771E-02  0.1061737E+00
        -11   -1    0    0    0    0  0.00000000000E+00  0.00000000000E+00  0.18250000000E+03  0.18250000000E+03  0.00000000000E+00 0.  1.
         11   -1    0    0    0    0 -0.00000000000E+00 -0.00000000000E+00 -0.18250000000E+03  0.18250000000E+03  0.00000000000E+00 0.  1.
        -11    1    1    2    0    0  0.16645408379E+01  0.15797275483E+01  0.15899850847E+03  0.15901506825E+03  0.00000000000E+00 0.  1.
         11    1    1    2    0    0  0.12615475865E+02  0.67034821824E+01 -0.17321659836E+03  0.17380470894E+03  0.00000000000E+00 0.  1.
        -15    1    1    2    0    0 -0.18262146692E+02 -0.46141678323E+01  0.24147794824E+01  0.19073160082E+02  0.17770000000E+01 0.  1.
         15    1    1    2    0    0  0.39821299884E+01 -0.36690418984E+01  0.11803310407E+02  0.13107062725E+02  0.17770000000E+01 0. -1.
</event>
<event>
 6    1  0.8353910E-003  0.1685531E+03  0.7546771E-02  0.1080132E+00
        -11   -1    0    0    0    0  0.00000000000E+00  0.00000000000E+00  0.18250000000E+03  0.18250000000E+03  0.00000000000E+00 0.  1.
         11   -1    0    0    0    0 -0.00000000000E+00 -0.00000000000E+00 -0.18250000000E+03  0.18250000000E+03  0.00000000000E+00 0.  1.
        -11    1    1    2    0    0 -0.14924749882E+01 -0.56794923185E+01  0.16860432627E+03  0.16870655871E+03  0.00000000000E+00 0.  1.
         11    1    1    2    0    0  0.87833178027E+00  0.46143764795E+01 -0.16833642136E+03  0.16840194385E+03  0.00000000000E+00 0.  1.
        -15    1    1    2    0    0 -0.25217117757E+01 -0.59953329093E+01 -0.11981064609E+02  0.13747970219E+02  0.17770000000E+01 0. -1.
         15    1    1    2    0    0  0.31358549836E+01  0.70604487483E+01  0.11713159700E+02  0.14143527218E+02  0.17770000000E+01 0. -1.
</event>
<event>
 6    1  0.8353910E-003  0.1828558E+03  0.7546771E-02  0.1068172E+00
        -11   -1    0    0    0    0  0.00000000000E+00  0.00000000000E+00  0.18250000000E+03  0.18250000000E+03  0.00000000000E+00 0. -1.
         11   -1    0    0    0    0 -0.00000000000E+00 -0.00000000000E+00 -0.18250000000E+03  0.18250000000E+03  0.00000000000E+00 0.  1.
        -11    1    1    2    0    0 -0.26051780490E+01 -0.17179718597E+01  0.15933047864E+03  0.15936103603E+03  0.00000000000E+00 0. -1.
         11    1    1    2    0    0 -0.73763478477E+00  0.28843368756E+01 -0.18211988417E+03  0.18214421680E+03  0.00000000000E+00 0.  1.
        -15    1    1    2    0    0  0.14790767929E+01 -0.19328345575E+01  0.11241963080E+02  0.11638856494E+02  0.17770000000E+01 0. -1.
         15    1    1    2    0    0  0.18637360408E+01  0.76646954154E+00  0.11547442447E+02  0.11855890674E+02  0.17770000000E+01 0.  1.
</event>
<event>
 6    1  0.8353910E-003  0.1828042E+03  0.7546771E-02  0.1068213E+00
        -11   -1    0    0    0    0  0.00000000000E+00  0.00000000000E+00  0.18250000000E+03  0.18250000000E+03  0.00000000000E+00 0. -1.
         11   -1    0    0    0    0 -0.00000000000E+00 -0.00000000000E+00 -0.18250000000E+03  0.18250000000E+03  0.00000000000E+00 0.  1.
        -11    1    1    2    0    0  0.12989485987E+01  0.27947289149E+01  0.15457028440E+03  0.15460100451E+03  0.00000000000E+00 0. -1.
         11    1    1    2    0    0  0.11457317482E+01 -0.25191599904E+01 -0.18217481025E+03  0.18219582969E+03  0.00000000000E+00 0.  1.
        -15    1    1    2    0    0 -0.12610811028E+01  0.48575605736E+00  0.48864341894E+01  0.53722669872E+01  0.17770000000E+01 0.  1.
         15    1    1    2    0    0 -0.11835992441E+01 -0.76132498191E+00  0.22718091660E+02  0.22830898812E+02  0.17770000000E+01 0. -1.
</event>
<event>
 6    1  0.8353910E-003  0.1908476E+03  0.7546771E-02  0.1061998E+00
        -11   -1    0    0    0    0  0.00000000000E+00  0.00000000000E+00  0.18250000000E+03  0.18250000000E+03  0.00000000000E+00 0. -1.
         11   -1    0    0    0    0 -0.00000000000E+00 -0.00000000000E+00 -0.18250000000E+03  0.18250000000E+03  0.00000000000E+00 0. -1.
        -11    1    1    2    0    0 -0.19421749889E+01 -0.20050316540E+01  0.16812395842E+03  0.16814713078E+03  0.00000000000E+00 0. -1.
         11    1    1    2    0    0  0.27652842928E+01  0.20691735868E+01 -0.17411810315E+03  0.17415235319E+03  0.00000000000E+00 0. -1.
        -15    1    1    2    0    0  0.38240379645E+01  0.39453414033E+01 -0.64832570811E+01  0.86821274191E+01  0.17770000000E+01 0.  1.
         15    1    1    2    0    0 -0.46471472684E+01 -0.40094833362E+01  0.12477401814E+02  0.14018388616E+02  0.17770000000E+01 0. -1.
</event>
<event>
 6    1  0.8353910E-003  0.1826271E+03  0.7546771E-02  0.1068354E+00
        -11   -1    0    0    0    0  0.00000000000E+00  0.00000000000E+00  0.18250000000E+03  0.18250000000E+03  0.00000000000E+00 0. -1.
         11   -1    0    0    0    0 -0.00000000000E+00 -0.00000000000E+00 -0.18250000000E+03  0.18250000000E+03  0.00000000000E+00 0. -1.
        -11    1    1    2    0    0 -0.65137020616E+00  0.85936082286E+00  0.10892218284E+02  0.10945464966E+02  0.00000000000E+00 0. -1.
         11    1    1    2    0    0 -0.10231279788E+02 -0.21940423676E+01 -0.18207247366E+03  0.18237291074E+03  0.00000000000E+00 0. -1.
        -15    1    1    2    0    0  0.28444913309E+01  0.30366389631E+01  0.74150280462E+02  0.74288182968E+02  0.17770000000E+01 0. -1.
         15    1    1    2    0    0  0.80381586634E+01 -0.17019574184E+01  0.97029974909E+02  0.97393441328E+02  0.17770000000E+01 0.  1.
</event>
<event>
 6    1  0.8353910E-003  0.1885576E+03  0.7546771E-02  0.1063733E+00
        -11   -1    0    0    0    0  0.00000000000E+00  0.00000000000E+00  0.18250000000E+03  0.18250000000E+03  0.00000000000E+00 0. -1.
         11   -1    0    0    0    0 -0.00000000000E+00 -0.00000000000E+00 -0.18250000000E+03  0.18250000000E+03  0.00000000000E+00 0. -1.
        -11    1    1    2    0    0 -0.23323767737E+01 -0.17651648644E+01  0.13973691458E+03  0.13976752514E+03  0.00000000000E+00 0. -1.
         11    1    1    2    0    0  0.39084545863E+01 -0.37160747596E+01 -0.17635996503E+03  0.17644240560E+03  0.00000000000E+00 0. -1.
        -15    1    1    2    0    0  0.44527020434E+01 -0.20091233283E+01  0.38486604759E+02  0.38836060651E+02  0.17770000000E+01 0. -1.
         15    1    1    2    0    0 -0.60287798560E+01  0.74903629523E+01 -0.18635543138E+01  0.99540086092E+01  0.17770000000E+01 0.  1.
</event>
<event>
 6    1  0.8353910E-003  0.1842157E+03  0.7546771E-02  0.1067097E+00
        -11   -1    0    0    0    0  0.00000000000E+00  0.00000000000E+00  0.18250000000E+03  0.18250000000E+03  0.00000000000E+00 0. -1.
         11   -1    0    0    0    0 -0.00000000000E+00 -0.00000000000E+00 -0.18250000000E+03  0.18250000000E+03  0.00000000000E+00 0.  1.
        -11    1    1    2    0    0 -0.32381370656E+01 -0.46482928552E+01  0.18069553763E+03  0.18078431757E+03  0.00000000000E+00 0. -1.
         11    1    1    2    0    0 -0.79534780978E-03  0.22791875576E+01 -0.15784923993E+03  0.15786569369E+03  0.00000000000E+00 0.  1.
        -15    1    1    2    0    0 -0.13420174151E+01  0.63047165547E+01 -0.97936154796E+01  0.11858460893E+02  0.17770000000E+01 0. -1.
         15    1    1    2    0    0  0.45809498286E+01 -0.39356112571E+01 -0.13052682219E+02  0.14491527850E+02  0.17770000000E+01 0.  1.
</event>
<event>
 6    1  0.8353910E-003  0.1862843E+03  0.7546771E-02  0.1065482E+00
        -11   -1    0    0    0    0  0.00000000000E+00  0.00000000000E+00  0.18250000000E+03  0.18250000000E+03  0.00000000000E+00 0.  1.
         11   -1    0    0    0    0 -0.00000000000E+00 -0.00000000000E+00 -0.18250000000E+03  0.18250000000E+03  0.00000000000E+00 0.  1.
        -11    1    1    2    0    0 -0.27898023744E+01 -0.19320916234E+01  0.17868344948E+03  0.17871567109E+03  0.00000000000E+00 0.  1.
         11    1    1    2    0    0 -0.28121684352E+01  0.15806354371E+01 -0.10050321210E+03  0.10055497174E+03  0.00000000000E+00 0.  1.
        -15    1    1    2    0    0  0.10414646943E+02 -0.31723861025E+01 -0.78713436399E+02  0.79482650329E+02  0.17770000000E+01 0.  1.
         15    1    1    2    0    0 -0.48126761336E+01  0.35238422888E+01  0.53319901767E+00  0.62467068313E+01  0.17770000000E+01 0. -1.
</event>
<event>
 6    1  0.8353910E-003  0.1827587E+03  0.7546771E-02  0.1068249E+00
        -11   -1    0    0    0    0  0.00000000000E+00  0.00000000000E+00  0.18250000000E+03  0.18250000000E+03  0.00000000000E+00 0.  1.
         11   -1    0    0    0    0 -0.00000000000E+00 -0.00000000000E+00 -0.18250000000E+03  0.18250000000E+03  0.00000000000E+00 0.  1.
        -11    1    1    2    0    0  0.23839910097E+01 -0.92751006328E+00  0.18222332164E+03  0.18224127589E+03  0.00000000000E+00 0.  1.
         11    1    1    2    0    0  0.27136449664E+01 -0.22778326254E+01 -0.71399719670E+02  0.71487567867E+02  0.00000000000E+00 0.  1.
        -15    1    1    2    0    0 -0.16973836044E+01  0.22991494762E+01 -0.90846452732E+02  0.90908761418E+02  0.17770000000E+01 0. -1.
         15    1    1    2    0    0 -0.34002523718E+01  0.90619321242E+00 -0.19977149239E+02  0.20362394825E+02  0.17770000000E+01 0.  1.
</event>
<event>
 6    1  0.8353910E-003  0.1829658E+03  0.7546771E-02  0.1068085E+00
        -11   -1    0    0    0    0  0.00000000000E+00  0.00000000000E+00  0.18250000000E+03  0.18250000000E+03  0.00000000000E+00 0.  1.
         11   -1    0    0    0    0 -0.00000000000E+00 -0.00000000000E+00 -0.18250000000E+03  0.18250000000E+03  0.00000000000E+00 0.  1.
        -11    1    1    2    0    0  0.24741264075E+01  0.14102177458E+01  0.14173113466E+03  0.14175974234E+03  0.00000000000E+00 0.  1.
         11    1    1    2    0    0  0.33241092646E+01 -0.17808203458E+01 -0.18199515103E+03  0.18203421662E+03  0.00000000000E+00 0.  1.
        -15    1    1    2    0    0 -0.64553993028E+01 -0.36851348112E+00  0.32053854685E+02  0.32747752771E+02  0.17770000000E+01 0.  1.
         15    1    1    2    0    0  0.65716363070E+00  0.73911608117E+00  0.82101616796E+01  0.84582882679E+01  0.17770000000E+01 0.  1.
</event>
<event>
 6    1  0.8353910E-003  0.1892426E+03  0.7546771E-02  0.1063211E+00
        -11   -1    0    0    0    0  0.00000000000E+00  0.00000000000E+00  0.18250000000E+03  0.18250000000E+03  0.00000000000E+00 0. -1.
         11   -1    0    0    0    0 -0.00000000000E+00 -0.00000000000E+00 -0.18250000000E+03  0.18250000000E+03  0.00000000000E+00 0.  1.
        -11    1    1    2    0    0 -0.29004032699E+01  0.48100616996E+01  0.17566766902E+03  0.17575744357E+03  0.00000000000E+00 0. -1.
         11    1    1    2    0    0  0.35862394374E+01 -0.33276096602E+00 -0.14019078417E+03  0.14023704151E+03  0.00000000000E+00 0.  1.
        -15    1    1    2    0    0 -0.62618708380E+01 -0.96063916514E+00 -0.40179765124E+02  0.40714924885E+02  0.17770000000E+01 0. -1.
         15    1    1    2    0    0  0.55760346705E+01 -0.35166615685E+01  0.47028802805E+01  0.82905900373E+01  0.17770000000E+01 0.  1.
</event>
<event>
 6    1  0.8353910E-003  0.1836940E+03  0.7546771E-02  0.1067508E+00
        -11   -1    0    0    0    0  0.00000000000E+00  0.00000000000E+00  0.18250000000E+03  0.18250000000E+03  0.00000000000E+00 0.  1.
         11   -1    0    0    0    0 -0.00000000000E+00 -0.00000000000E+00 -0.18250000000E+03  0.18250000000E+03  0.00000000000E+00 0.  1.
        -11    1    1    2    0    0 -0.19730977278E+01  0.59462102609E+01  0.18119775071E+03  0.18130602691E+03  0.00000000000E+00 0.  1.
         11    1    1    2    0    0  0.35937640766E+01 -0.10095397075E+02 -0.13038584430E+03  0.13082545844E+03  0.00000000000E+00 0.  1.
        -15    1    1    2    0    0 -0.60433351521E+01 -0.21889446781E+01 -0.22640441181E+02  0.23602133048E+02  0.17770000000E+01 0. -1.
         15    1    1    2    0    0  0.44226688034E+01  0.63381314926E+01 -0.28171465230E+02  0.29266381607E+02  0.17770000000E+01 0.  1.
</event>
<event>
 6    1  0.8353910E-003  0.1849488E+03  0.7546771E-02  0.1066522E+00
        -11   -1    0    0    0    0  0.00000000000E+00  0.00000000000E+00  0.18250000000E+03  0.18250000000E+03  0.00000000000E+00 0.  1.
         11   -1    0    0    0    0 -0.00000000000E+00 -0.00000000000E+00 -0.18250000000E+03  0.18250000000E+03  0.00000000000E+00 0. -1.
        -11    1    1    2    0    0 -0.38045782526E+01  0.58120769923E+01  0.17991714849E+03  0.18005120209E+03  0.00000000000E+00 0.  1.
         11    1    1    2    0    0  0.32464714318E+01 -0.16537696691E+01 -0.17747677336E+03  0.17751416736E+03  0.00000000000E+00 0. -1.
        -15    1    1    2    0    0 -0.53081138736E+00 -0.29151322625E+01  0.63932990532E+00  0.35137200464E+01  0.17770000000E+01 0.  1.
         15    1    1    2    0    0  0.10889182082E+01 -0.12431750607E+01 -0.30797050362E+01  0.39209105072E+01  0.17770000000E+01 0. -1.
</event>
<event>
 6    1  0.8353910E-003  0.1830575E+03  0.7546771E-02  0.1068012E+00
        -11   -1    0    0    0    0  0.00000000000E+00  0.00000000000E+00  0.18250000000E+03  0.18250000000E+03  0.00000000000E+00 0.  1.
         11   -1    0    0    0    0 -0.00000000000E+00 -0.00000000000E+00 -0.18250000000E+03  0.18250000000E+03  0.00000000000E+00 0. -1.
        -11    1    1    2    0    0  0.14744996755E+01  0.61043884752E+00  0.10669165124E+03  0.10670358583E+03  0.00000000000E+00 0.  1.
         11    1    1    2    0    0  0.28780319222E+01 -0.38175823548E+01 -0.18187970459E+03  0.18194252923E+03  0.00000000000E+00 0. -1.
        -15    1    1    2    0    0 -0.73305011522E+01  0.69531159041E+00  0.62618605557E+02  0.63075091726E+02  0.17770000000E+01 0.  1.
         15    1    1    2    0    0  0.29779695545E+01  0.25118319169E+01  0.12569447790E+02  0.13278793206E+02  0.17770000000E+01 0. -1.
</event>
<event>
 6    1  0.8353910E-003  0.1915703E+03  0.7546771E-02  0.1061456E+00
        -11   -1    0    0    0    0  0.00000000000E+00  0.00000000000E+00  0.18250000000E+03  0.18250000000E+03  0.00000000000E+00 0.  1.
         11   -1    0    0    0    0 -0.00000000000E+00 -0.00000000000E+00 -0.18250000000E+03  0.18250000000E+03  0.00000000000E+00 0.  1.
        -11    1    1    2    0    0  0.32593466927E+01  0.57508430647E+01  0.16124593407E+03  0.16138137065E+03  0.00000000000E+00 0.  1.
         11    1    1    2    0    0 -0.43483037768E+01 -0.31653649076E+01 -0.17334629221E+03  0.17342970998E+03  0.00000000000E+00 0.  1.
        -15    1    1    2    0    0  0.10223915126E+02 -0.76813214879E+01 -0.14354378285E+01  0.12990356079E+02  0.17770000000E+01 0. -1.
         15    1    1    2    0    0 -0.91349580423E+01  0.50958433308E+01  0.13535795970E+02  0.17198563290E+02  0.17770000000E+01 0.  1.
</event>
<event>
 6    1  0.8353910E-003  0.1631137E+03  0.7546771E-02  0.1085027E+00
        -11   -1    0    0    0    0  0.00000000000E+00  0.00000000000E+00  0.18250000000E+03  0.18250000000E+03  0.00000000000E+00 0.  1.
         11   -1    0    0    0    0 -0.00000000000E+00 -0.00000000000E+00 -0.18250000000E+03  0.18250000000E+03  0.00000000000E+00 0. -1.
        -11    1    1    2    0    0  0.29738380394E+01 -0.81584043396E+01  0.16096902508E+03  0.16120307165E+03  0.00000000000E+00 0.  1.
         11    1    1    2    0    0 -0.33190507864E+01 -0.84621928276E+01 -0.16522546182E+03  0.16547530946E+03  0.00000000000E+00 0. -1.
        -15    1    1    2    0    0 -0.43397901694E+01  0.11500125993E+02  0.18555468503E+02  0.22328229149E+02  0.17770000000E+01 0. -1.
         15    1    1    2    0    0  0.46850029164E+01  0.51204711743E+01 -0.14299031757E+02  0.15993389746E+02  0.17770000000E+01 0. -1.
</event>
<event>
 6    1  0.8353910E-003  0.1861347E+03  0.7546771E-02  0.1065598E+00
        -11   -1    0    0    0    0  0.00000000000E+00  0.00000000000E+00  0.18250000000E+03  0.18250000000E+03  0.00000000000E+00 0. -1.
         11   -1    0    0    0    0 -0.00000000000E+00 -0.00000000000E+00 -0.18250000000E+03  0.18250000000E+03  0.00000000000E+00 0.  1.
        -11    1    1    2    0    0  0.95601016217E+00 -0.26355789723E+01  0.17884328491E+03  0.17886525876E+03  0.00000000000E+00 0. -1.
         11    1    1    2    0    0  0.45697262758E+01 -0.35717142892E+01 -0.15778731553E+03  0.15789387728E+03  0.00000000000E+00 0.  1.
        -15    1    1    2    0    0 -0.91711660603E+01 -0.16278876518E+01 -0.76085132910E+01  0.12157611139E+02  0.17770000000E+01 0.  1.
         15    1    1    2    0    0  0.36454296224E+01  0.78351809133E+01 -0.13447456090E+02  0.16083252823E+02  0.17770000000E+01 0. -1.
</event>
<event>
 6    1  0.8353910E-003  0.1845259E+03  0.7546771E-02  0.1066854E+00
        -11   -1    0    0    0    0  0.00000000000E+00  0.00000000000E+00  0.18250000000E+03  0.18250000000E+03  0.00000000000E+00 0. -1.
         11   -1    0    0    0    0 -0.00000000000E+00 -0.00000000000E+00 -0.18250000000E+03  0.18250000000E+03  0.00000000000E+00 0.  1.
        -11    1    1    2    0    0 -0.16386612714E+01  0.39690205618E+01  0.18042296855E+03  0.18047405884E+03  0.00000000000E+00 0. -1.
         11    1    1    2    0    0 -0.42217820015E+01  0.26314727874E+00 -0.16947429351E+03  0.16952707409E+03  0.00000000000E+00 0.  1.
        -15    1    1    2    0    0  0.71978191624E+00  0.11213599822E+01 -0.44562055665E+01  0.49790592754E+01  0.17770000000E+01 0. -1.
         15    1    1    2    0    0  0.51406613566E+01 -0.53535278227E+01 -0.64924694697E+01  0.10019807790E+02  0.17770000000E+01 0. -1.
</event>
<event>
 6    1  0.8353910E-003  0.1787131E+03  0.7546771E-02  0.1071510E+00
        -11   -1    0    0    0    0  0.00000000000E+00  0.00000000000E+00  0.18250000000E+03  0.18250000000E+03  0.00000000000E+00 0. -1.
         11   -1    0    0    0    0 -0.00000000000E+00 -0.00000000000E+00 -0.18250000000E+03  0.18250000000E+03  0.00000000000E+00 0.  1.
        -11    1    1    2    0    0  0.34160299171E+01 -0.18736533249E+01  0.17918178095E+03  0.17922413471E+03  0.00000000000E+00 0. -1.
         11    1    1    2    0    0 -0.53659590562E+01  0.22642194113E+01 -0.17811402007E+03  0.17820921512E+03  0.00000000000E+00 0.  1.
        -15    1    1    2    0    0  0.37833194425E+01  0.76820996749E+00 -0.18805209281E+01  0.46473369276E+01  0.17770000000E+01 0.  1.
         15    1    1    2    0    0 -0.18333903033E+01 -0.11587760539E+01  0.81276004851E+00  0.29193132486E+01  0.17770000000E+01 0. -1.
</event>
<event>
 6    1  0.8353910E-003  0.1842857E+03  0.7546771E-02  0.1067042E+00
        -11   -1    0    0    0    0  0.00000000000E+00  0.00000000000E+00  0.18250000000E+03  0.18250000000E+03  0.00000000000E+00 0.  1.
         11   -1    0    0    0    0 -0.00000000000E+00 -0.00000000000E+00 -0.18250000000E+03  0.18250000000E+03  0.00000000000E+00 0.  1.
        -11    1    1    2    0    0  0.64029275513E+00  0.28032680926E+01  0.18069139747E+03  0.18071427560E+03  0.00000000000E+00 0.  1.
         11    1    1    2    0    0  0.15444527659E+01  0.31626585264E+01 -0.16181251345E+03  0.16185078699E+03  0.00000000000E+00 0.  1.
        -15    1    1    2    0    0 -0.39681775158E+01 -0.67601236919E+01 -0.83892638085E+01  0.11618226258E+02  0.17770000000E+01 0. -1.
         15    1    1    2    0    0  0.17834319948E+01  0.79419707294E+00 -0.10489620217E+02  0.10816711144E+02  0.17770000000E+01 0.  1.
</event>
<event>
 6    1  0.8353910E-003  0.1837757E+03  0.7546771E-02  0.1067444E+00
        -11   -1    0    0    0    0  0.00000000000E+00  0.00000000000E+00  0.18250000000E+03  0.18250000000E+03  0.00000000000E+00 0.  1.
         11   -1    0    0    0    0 -0.00000000000E+00 -0.00000000000E+00 -0.18250000000E+03  0.18250000000E+03  0.00000000000E+00 0. -1.
        -11    1    1    2    0    0 -0.27826244620E+01 -0.39017857029E+00  0.17105289083E+03  0.17107596762E+03  0.00000000000E+00 0.  1.
         11    1    1    2    0    0  0.79883215036E+00  0.45160063422E+01 -0.18116627613E+03  0.18122431419E+03  0.00000000000E+00 0. -1.
        -15    1    1    2    0    0  0.27069524287E+01 -0.52505581671E+00  0.63586808966E+01  0.71549861500E+01  0.17770000000E+01 0.  1.
         15    1    1    2    0    0 -0.72316011705E+00 -0.36007719552E+01  0.37547044051E+01  0.55447320402E+01  0.17770000000E+01 0. -1.
</event>
<event>
 6    1  0.8353910E-003  0.2038401E+03  0.7546771E-02  0.1052633E+00
        -11   -1    0    0    0    0  0.00000000000E+00  0.00000000000E+00  0.18250000000E+03  0.18250000000E+03  0.00000000000E+00 0.  1.
         11   -1    0    0    0    0 -0.00000000000E+00 -0.00000000000E+00 -0.18250000000E+03  0.18250000000E+03  0.00000000000E+00 0. -1.
        -11    1    1    2    0    0 -0.12263199350E+01  0.82192397790E+01  0.10534595332E+03  0.10567322104E+03  0.00000000000E+00 0.  1.
         11    1    1    2    0    0  0.84017064627E+01 -0.11609564268E+01 -0.16093658277E+03  0.16115992108E+03  0.00000000000E+00 0. -1.
        -15    1    1    2    0    0 -0.44810116592E+01  0.36579227099E+02  0.21545400448E+02  0.42725651898E+02  0.17770000000E+01 0. -1.
         15    1    1    2    0    0 -0.26943748685E+01 -0.43637510451E+02  0.34045228994E+02  0.55441205980E+02  0.17770000000E+01 0.  1.
</event>
<event>
 6    1  0.8353910E-003  0.1865787E+03  0.7546771E-02  0.1065254E+00
        -11   -1    0    0    0    0  0.00000000000E+00  0.00000000000E+00  0.18250000000E+03  0.18250000000E+03  0.00000000000E+00 0.  1.
         11   -1    0    0    0    0 -0.00000000000E+00 -0.00000000000E+00 -0.18250000000E+03  0.18250000000E+03  0.00000000000E+00 0. -1.
        -11    1    1    2    0    0 -0.19399143298E+01 -0.39369824882E+01  0.17836730614E+03  0.17842129637E+03  0.00000000000E+00 0.  1.
         11    1    1    2    0    0 -0.91950432336E+01  0.34698292355E+01 -0.15354601483E+03  0.15386021970E+03  0.00000000000E+00 0. -1.
        -15    1    1    2    0    0  0.34834152762E+00 -0.52229060509E+01 -0.62341588922E+00  0.55629547730E+01  0.17770000000E+01 0.  1.
         15    1    1    2    0    0  0.10786616036E+02  0.56900593035E+01 -0.24197875413E+02  0.27155529159E+02  0.17770000000E+01 0. -1.
</event>
<event>
 6    1  0.8353910E-003  0.1869650E+03  0.7546771E-02  0.1064955E+00
        -11   -1    0    0    0    0  0.00000000000E+00  0.00000000000E+00  0.18250000000E+03  0.18250000000E+03  0.00000000000E+00 0.  1.
         11   -1    0    0    0    0 -0.00000000000E+00 -0.00000000000E+00 -0.18250000000E+03  0.18250000000E+03  0.00000000000E+00 0.  1.
        -11    1    1    2    0    0 -0.26949349618E+01  0.33991147661E+01  0.17366636135E+03  0.17372052763E+03  0.00000000000E+00 0.  1.
         11    1    1    2    0    0 -0.11715708504E+01 -0.26755959237E+01 -0.17801105729E+03  0.17803501877E+03  0.00000000000E+00 0.  1.
        -15    1    1    2    0    0  0.52815975401E+01 -0.34320663288E+01 -0.12146413604E+01  0.66563829890E+01  0.17770000000E+01 0.  1.
         15    1    1    2    0    0 -0.14150917279E+01  0.27085474863E+01  0.55593372972E+01  0.65880706028E+01  0.17770000000E+01 0. -1.
</event>
<event>
 6    1  0.8353910E-003  0.1896769E+03  0.7546771E-02  0.1062881E+00
        -11   -1    0    0    0    0  0.00000000000E+00  0.00000000000E+00  0.18250000000E+03  0.18250000000E+03  0.00000000000E+00 0. -1.
         11   -1    0    0    0    0 -0.00000000000E+00 -0.00000000000E+00 -0.18250000000E+03  0.18250000000E+03  0.00000000000E+00 0.  1.
        -11    1    1    2    0    0 -0.19953977050E+01 -0.16308758886E+01  0.17530418390E+03  0.17532312528E+03  0.00000000000E+00 0. -1.
         11    1    1    2    0    0 -0.84402350290E+01 -0.35426226022E+00 -0.16465510630E+03  0.16487166857E+03  0.00000000000E+00 0.  1.
        -15    1    1    2    0    0  0.89772188269E+01 -0.78995531819E+01 -0.42844924573E+01  0.12826067322E+02  0.17770000000E+01 0. -1.
         15    1    1    2    0    0  0.14584139071E+01  0.98846913307E+01 -0.63645851424E+01  0.11979138820E+02  0.17770000000E+01 0.  1.
</event>
<event>
 6    1  0.8353910E-003  0.1850145E+03  0.7546771E-02  0.1066471E+00
        -11   -1    0    0    0    0  0.00000000000E+00  0.00000000000E+00  0.18250000000E+03  0.18250000000E+03  0.00000000000E+00 0. -1.
         11   -1    0    0    0    0 -0.00000000000E+00 -0.00000000000E+00 -0.18250000000E+03  0.18250000000E+03  0.00000000000E+00 0.  1.
        -11    1    1    2    0    0 -0.42949822811E+01  0.12015391915E+01  0.17993027566E+03  0.17998554016E+03  0.00000000000E+00 0. -1.
         11    1    1    2    0    0  0.46251505471E+01 -0.54745965626E-01 -0.14067054125E+03  0.14074656724E+03  0.00000000000E+00 0.  1.
        -15    1    1    2    0    0  0.34341943112E+01  0.19805427679E+00  0.81373172731E+00  0.39563625198E+01  0.17770000000E+01 0.  1.
         15    1    1    2    0    0 -0.37643625773E+01 -0.13448475027E+01 -0.40073466135E+02  0.40311530081E+02  0.17770000000E+01 0. -1.
</event>
<event>
 6    1  0.8353910E-003  0.1834147E+03  0.7546771E-02  0.1067729E+00
        -11   -1    0    0    0    0  0.00000000000E+00  0.00000000000E+00  0.18250000000E+03  0.18250000000E+03  0.00000000000E+00 0.  1.
         11   -1    0    0    0    0 -0.00000000000E+00 -0.00000000000E+00 -0.18250000000E+03  0.18250000000E+03  0.00000000000E+00 0. -1.
        -11    1    1    2    0    0 -0.73875732619E+00 -0.28829821064E+01  0.18156095224E+03  0.18158534282E+03  0.00000000000E+00 0.  1.
         11    1    1    2    0    0  0.29032872468E+01  0.27243937081E+00 -0.16394131967E+03  0.16396725159E+03  0.00000000000E+00 0. -1.
        -15    1    1    2    0    0 -0.99610835128E+00  0.26916244913E+01 -0.25559218224E+01  0.42340925370E+01  0.17770000000E+01 0.  1.
         15    1    1    2    0    0 -0.11684215693E+01 -0.81081755749E-01 -0.15063710753E+02  0.15213313047E+02  0.17770000000E+01 0. -1.
</event>
<event>
 6    1  0.8353910E-003  0.1848369E+03  0.7546771E-02  0.1066610E+00
        -11   -1    0    0    0    0  0.00000000000E+00  0.00000000000E+00  0.18250000000E+03  0.18250000000E+03  0.00000000000E+00 0. -1.
         11   -1    0    0    0    0 -0.00000000000E+00 -0.00000000000E+00 -0.18250000000E+03  0.18250000000E+03  0.00000000000E+00 0.  1.
        -11    1    1    2    0    0  0.35791493270E+01  0.57501161096E+00  0.18012660290E+03  0.18016307619E+03  0.00000000000E+00 0. -1.
         11    1    1    2    0    0 -0.19728152233E+01 -0.92975865776E+00 -0.15756452647E+03  0.15757961940E+03  0.00000000000E+00 0.  1.
        -15    1    1    2    0    0  0.13333025650E+01  0.64482817380E+01 -0.53181419228E+01  0.86486065706E+01  0.17770000000E+01 0. -1.
         15    1    1    2    0    0 -0.29396366688E+01 -0.60935346912E+01 -0.17243934513E+02  0.18608697840E+02  0.17770000000E+01 0.  1.
</event>
<event>
 6    1  0.8353910E-003  0.1840603E+03  0.7546771E-02  0.1067220E+00
        -11   -1    0    0    0    0  0.00000000000E+00  0.00000000000E+00  0.18250000000E+03  0.18250000000E+03  0.00000000000E+00 0. -1.
         11   -1    0    0    0    0 -0.00000000000E+00 -0.00000000000E+00 -0.18250000000E+03  0.18250000000E+03  0.00000000000E+00 0. -1.
        -11    1    1    2    0    0  0.29930263311E+01  0.18160138208E+01  0.16419039757E+03  0.16422771620E+03  0.00000000000E+00 0. -1.
         11    1    1    2    0    0 -0.19194448662E+01 -0.22081858023E+01 -0.18091599474E+03  0.18093965156E+03  0.00000000000E+00 0. -1.
        -15    1    1    2    0    0 -0.13933074728E+01  0.19004150990E+01  0.90893192931E-02  0.29513886356E+01  0.17770000000E+01 0.  1.
         15    1    1    2    0    0  0.31972600797E+00 -0.15082431175E+01  0.16716507847E+02  0.16881243605E+02  0.17770000000E+01 0. -1.
</event>
<event>
 6    1  0.8353910E-003  0.1895164E+03  0.7546771E-02  0.1063003E+00
        -11   -1    0    0    0    0  0.00000000000E+00  0.00000000000E+00  0.18250000000E+03  0.18250000000E+03  0.00000000000E+00 0. -1.
         11   -1    0    0    0    0 -0.00000000000E+00 -0.00000000000E+00 -0.18250000000E+03  0.18250000000E+03  0.00000000000E+00 0. -1.
        -11    1    1    2    0    0  0.54025671962E+01  0.13821363645E+01  0.12259580041E+03  0.12272256643E+03  0.00000000000E+00 0. -1.
         11    1    1    2    0    0 -0.29655330266E+01 -0.37834810608E+01 -0.17541773267E+03  0.17548358912E+03  0.00000000000E+00 0. -1.
        -15    1    1    2    0    0 -0.94449073946E+01  0.98963153324E+00 -0.32856033627E+01  0.10204830460E+02  0.17770000000E+01 0.  1.
         15    1    1    2    0    0  0.70078732250E+01  0.14117131630E+01  0.56107535623E+02  0.56589013986E+02  0.17770000000E+01 0. -1.
</event>
<event>
 6    1  0.8353910E-003  0.1908906E+03  0.7546771E-02  0.1061965E+00
        -11   -1    0    0    0    0  0.00000000000E+00  0.00000000000E+00  0.18250000000E+03  0.18250000000E+03  0.00000000000E+00 0. -1.
         11   -1    0    0    0    0 -0.00000000000E+00 -0.00000000000E+00 -0.18250000000E+03  0.18250000000E+03  0.00000000000E+00 0.  1.
        -11    1    1    2    0    0 -0.18429773801E+01 -0.11233385120E+02  0.15945274883E+03  0.15985857692E+03  0.00000000000E+00 0. -1.
         11    1    1    2    0    0  0.13786921767E+01 -0.52338795897E+01 -0.17402526173E+03  0.17410940816E+03  0.00000000000E+00 0.  1.
        -15    1    1    2    0    0 -0.24003355680E+00 -0.15335240989E+01 -0.42853658316E+01  0.48919731787E+01  0.17770000000E+01 0.  1.
         15    1    1    2    0    0  0.70431876017E+00  0.18000788809E+02  0.18857878739E+02  0.26140041740E+02  0.17770000000E+01 0. -1.
</event>
<event>
 6    1  0.8480591E-003  0.1827268E+03  0.7546771E-02  0.1068274E+00
        -11   -1    0    0    0    0  0.00000000000E+00  0.00000000000E+00  0.18250000000E+03  0.18250000000E+03  0.00000000000E+00 0. -1.
         11   -1    0    0    0    0 -0.00000000000E+00 -0.00000000000E+00 -0.18250000000E+03  0.18250000000E+03  0.00000000000E+00 0. -1.
        -11    1    1    2    0    0  0.13260464497E+01 -0.31755620442E+01  0.18224068874E+03  0.18227317747E+03  0.00000000000E+00 0. -1.
         11    1    1    2    0    0 -0.20020753965E+01 -0.10724643420E+01 -0.11946692236E+03  0.11948851001E+03  0.00000000000E+00 0. -1.
        -15    1    1    2    0    0 -0.63050168669E-01  0.26618034170E+01 -0.54570408698E+02  0.54664215051E+02  0.17770000000E+01 0.  1.
         15    1    1    2    0    0  0.73907911554E+00  0.15862229693E+01 -0.82033576797E+01  0.85740974726E+01  0.17770000000E+01 0. -1.
</event>
<event>
 6    1  0.8353910E-003  0.1893673E+03  0.7546771E-02  0.1063116E+00
        -11   -1    0    0    0    0  0.00000000000E+00  0.00000000000E+00  0.18250000000E+03  0.18250000000E+03  0.00000000000E+00 0.  1.
         11   -1    0    0    0    0 -0.00000000000E+00 -0.00000000000E+00 -0.18250000000E+03  0.18250000000E+03  0.00000000000E+00 0. -1.
        -11    1    1    2    0    0 -0.29638836797E+01  0.40706805330E+01  0.17556052662E+03  0.17563272347E+03  0.00000000000E+00 0.  1.
         11    1    1    2    0    0 -0.26954755705E+01  0.71418441654E+00 -0.16891845718E+03  0.16894147159E+03  0.00000000000E+00 0. -1.
        -15    1    1    2    0    0  0.35161702036E+01 -0.85086550767E+01  0.28971121885E+01  0.98138500166E+01  0.17770000000E+01 0.  1.
         15    1    1    2    0    0  0.21431890467E+01  0.37237901271E+01 -0.95391816305E+01  0.10611954927E+02  0.17770000000E+01 0. -1.
</event>
<event>
 6    1  0.8353910E-003  0.1738369E+03  0.7546771E-02  0.1075568E+00
        -11   -1    0    0    0    0  0.00000000000E+00  0.00000000000E+00  0.18250000000E+03  0.18250000000E+03  0.00000000000E+00 0. -1.
         11   -1    0    0    0    0 -0.00000000000E+00 -0.00000000000E+00 -0.18250000000E+03  0.18250000000E+03  0.00000000000E+00 0. -1.
        -11    1    1    2    0    0 -0.27692743220E+00 -0.64408274034E+01  0.17635086089E+03  0.17646865751E+03  0.00000000000E+00 0. -1.
         11    1    1    2    0    0 -0.76347472808E+00 -0.22220318555E+01 -0.17133459909E+03  0.17135070810E+03  0.00000000000E+00 0. -1.
        -15    1    1    2    0    0  0.25309568387E+01 -0.24255522217E-01 -0.72791347492E+01  0.79088471061E+01  0.17770000000E+01 0.  1.
         15    1    1    2    0    0 -0.14905546784E+01  0.86871147812E+01  0.22628729530E+01  0.92717872857E+01  0.17770000000E+01 0. -1.
</event>
<event>
 6    1  0.8353910E-003  0.1833635E+03  0.7546771E-02  0.1067770E+00
        -11   -1    0    0    0    0  0.00000000000E+00  0.00000000000E+00  0.18250000000E+03  0.18250000000E+03  0.00000000000E+00 0. -1.
         11   -1    0    0    0    0 -0.00000000000E+00 -0.00000000000E+00 -0.18250000000E+03  0.18250000000E+03  0.00000000000E+00 0. -1.
        -11    1    1    2    0    0  0.97320900160E+00  0.72531482492E+01  0.18148900680E+03  0.18163649106E+03  0.00000000000E+00 0. -1.
         11    1    1    2    0    0  0.26250984979E+01 -0.46745154540E+01 -0.15344944776E+03  0.15354307297E+03  0.00000000000E+00 0. -1.
        -15    1    1    2    0    0 -0.11991341112E+01 -0.34448821774E+01 -0.44308618769E+01  0.60079448903E+01  0.17770000000E+01 0. -1.
         15    1    1    2    0    0 -0.23991733883E+01  0.86624938218E+00 -0.23608697161E+02  0.23812491083E+02  0.17770000000E+01 0.  1.
</event>
<event>
 6    1  0.8353910E-003  0.1842559E+03  0.7546771E-02  0.1067066E+00
        -11   -1    0    0    0    0  0.00000000000E+00  0.00000000000E+00  0.18250000000E+03  0.18250000000E+03  0.00000000000E+00 0.  1.
         11   -1    0    0    0    0 -0.00000000000E+00 -0.00000000000E+00 -0.18250000000E+03  0.18250000000E+03  0.00000000000E+00 0. -1.
        -11    1    1    2    0    0 -0.52073294800E+00  0.54923603216E+01  0.13914714239E+03  0.13925646994E+03  0.00000000000E+00 0.  1.
         11    1    1    2    0    0 -0.35098311445E+01  0.29097318603E+01 -0.18068655270E+03  0.18074406154E+03  0.00000000000E+00 0. -1.
        -15    1    1    2    0    0  0.44449167889E+01 -0.40851251927E+01  0.46781447729E+01  0.78414476097E+01  0.17770000000E+01 0.  1.
         15    1    1    2    0    0 -0.41435269631E+00 -0.43169669892E+01  0.36861265536E+02  0.37158020911E+02  0.17770000000E+01 0.  1.
</event>
<event>
 6    1  0.8353910E-003  0.1841356E+03  0.7546771E-02  0.1067160E+00
        -11   -1    0    0    0    0  0.00000000000E+00  0.00000000000E+00  0.18250000000E+03  0.18250000000E+03  0.00000000000E+00 0. -1.
         11   -1    0    0    0    0 -0.00000000000E+00 -0.00000000000E+00 -0.18250000000E+03  0.18250000000E+03  0.00000000000E+00 0.  1.
        -11    1    1    2    0    0 -0.24388104154E+01 -0.50762510797E+01  0.17264135086E+03  0.17273318196E+03  0.00000000000E+00 0. -1.
         11    1    1    2    0    0  0.28118518414E+01  0.14691394063E+01 -0.18083659176E+03  0.18086441828E+03  0.00000000000E+00 0.  1.
        -15    1    1    2    0    0 -0.88709220512E+00 -0.98838810286E+00  0.53856275689E+00  0.22828978219E+01  0.17770000000E+01 0. -1.
         15    1    1    2    0    0  0.51405077918E+00  0.45954997763E+01  0.76566781414E+01  0.91195019359E+01  0.17770000000E+01 0.  1.
</event>
<event>
 6    1  0.8353910E-003  0.1857322E+03  0.7546771E-02  0.1065911E+00
        -11   -1    0    0    0    0  0.00000000000E+00  0.00000000000E+00  0.18250000000E+03  0.18250000000E+03  0.00000000000E+00 0. -1.
         11   -1    0    0    0    0 -0.00000000000E+00 -0.00000000000E+00 -0.18250000000E+03  0.18250000000E+03  0.00000000000E+00 0. -1.
        -11    1    1    2    0    0 -0.76560580477E+00 -0.11673858878E+02  0.17888564637E+03  0.17926778743E+03  0.00000000000E+00 0. -1.
         11    1    1    2    0    0  0.22512515289E+01  0.48743013595E+01 -0.15045869747E+03  0.15055446387E+03  0.00000000000E+00 0. -1.
        -15    1    1    2    0    0  0.20144441061E+00  0.82003776358E+01 -0.20363140722E+01  0.86366126010E+01  0.17770000000E+01 0. -1.
         15    1    1    2    0    0 -0.16870901347E+01 -0.14008201172E+01 -0.26390634828E+02  0.26541136105E+02  0.17770000000E+01 0. -1.
</event>
<event>
 6    1  0.8353910E-003  0.1897418E+03  0.7546771E-02  0.1062832E+00
        -11   -1    0    0    0    0  0.00000000000E+00  0.00000000000E+00  0.18250000000E+03  0.18250000000E+03  0.00000000000E+00 0. -1.
         11   -1    0    0    0    0 -0.00000000000E+00 -0.00000000000E+00 -0.18250000000E+03  0.18250000000E+03  0.00000000000E+00 0. -1.
        -11    1    1    2    0    0  0.31969105706E+00  0.24068386537E+01  0.17524138541E+03  0.17525820447E+03  0.00000000000E+00 0. -1.
         11    1    1    2    0    0  0.23692539414E+02 -0.14700975343E+01 -0.50898763658E+02  0.56162102459E+02  0.00000000000E+00 0. -1.
        -15    1    1    2    0    0 -0.29498356200E+02  0.82409934351E+01 -0.11575321142E+03  0.11974986711E+03  0.17770000000E+01 0. -1.
         15    1    1    2    0    0  0.54861257287E+01 -0.91777345545E+01 -0.85894103333E+01  0.13829825955E+02  0.17770000000E+01 0.  1.
</event>
<event>
 6    1  0.8353910E-003  0.1850579E+03  0.7546771E-02  0.1066437E+00
        -11   -1    0    0    0    0  0.00000000000E+00  0.00000000000E+00  0.18250000000E+03  0.18250000000E+03  0.00000000000E+00 0. -1.
         11   -1    0    0    0    0 -0.00000000000E+00 -0.00000000000E+00 -0.18250000000E+03  0.18250000000E+03  0.00000000000E+00 0.  1.
        -11    1    1    2    0    0  0.97979190180E+00  0.36301695596E+01  0.17990281647E+03  0.17994210596E+03  0.00000000000E+00 0. -1.
         11    1    1    2    0    0 -0.38738435270E+01 -0.86290156143E+00 -0.17081004877E+03  0.17085615009E+03  0.00000000000E+00 0.  1.
        -15    1    1    2    0    0  0.22790552982E+01 -0.26004543296E+01  0.93440567434E+00  0.39984120269E+01  0.17770000000E+01 0. -1.
         15    1    1    2    0    0  0.61499632691E+00 -0.16681366852E+00 -0.10027173376E+02  0.10203331916E+02  0.17770000000E+01 0.  1.
</event>
<event>
 6    1  0.8353910E-003  0.1837633E+03  0.7546771E-02  0.1067454E+00
        -11   -1    0    0    0    0  0.00000000000E+00  0.00000000000E+00  0.18250000000E+03  0.18250000000E+03  0.00000000000E+00 0. -1.
         11   -1    0    0    0    0 -0.00000000000E+00 -0.00000000000E+00 -0.18250000000E+03  0.18250000000E+03  0.00000000000E+00 0.  1.
        -11    1    1    2    0    0  0.80043641337E+00 -0.33498843684E+01  0.18120395105E+03  0.18123668034E+03  0.00000000000E+00 0. -1.
         11    1    1    2    0    0  0.35907875022E+01 -0.42031705909E+00 -0.16575500256E+03  0.16579442480E+03  0.00000000000E+00 0.  1.
        -15    1    1    2    0    0 -0.49440059584E+01  0.38937794366E+01 -0.14432391165E+02  0.15844758028E+02  0.17770000000E+01 0. -1.
         15    1    1    2    0    0  0.55278204292E+00 -0.12357800907E+00 -0.10165573241E+01  0.21241368375E+01  0.17770000000E+01 0.  1.
</event>
<event>
 6    1  0.8353910E-003  0.1888736E+03  0.7546771E-02  0.1063492E+00
        -11   -1    0    0    0    0  0.00000000000E+00  0.00000000000E+00  0.18250000000E+03  0.18250000000E+03  0.00000000000E+00 0.  1.
         11   -1    0    0    0    0 -0.00000000000E+00 -0.00000000000E+00 -0.18250000000E+03  0.18250000000E+03  0.00000000000E+00 0.  1.
        -11    1    1    2    0    0  0.47527912089E+01 -0.13150283856E+00  0.17606216800E+03  0.17612635612E+03  0.00000000000E+00 0.  1.
         11    1    1    2    0    0  0.23603816386E+01 -0.15594238528E+01 -0.17090647097E+03  0.17092988335E+03  0.00000000000E+00 0.  1.
        -15    1    1    2    0    0  0.32469192178E+01  0.29902075572E+01 -0.55931404620E+01  0.73433490227E+01  0.17770000000E+01 0.  1.
         15    1    1    2    0    0 -0.10360092065E+02 -0.12992808658E+01  0.43744342550E+00  0.10600411507E+02  0.17770000000E+01 0. -1.
</event>
<event>
 6    1  0.8353910E-003  0.1832802E+03  0.7546771E-02  0.1067835E+00
        -11   -1    0    0    0    0  0.00000000000E+00  0.00000000000E+00  0.18250000000E+03  0.18250000000E+03  0.00000000000E+00 0. -1.
         11   -1    0    0    0    0 -0.00000000000E+00 -0.00000000000E+00 -0.18250000000E+03  0.18250000000E+03  0.00000000000E+00 0.  1.
        -11    1    1    2    0    0  0.30921280581E+01 -0.11491469373E+00  0.18169347650E+03  0.18171982243E+03  0.00000000000E+00 0. -1.
         11    1    1    2    0    0 -0.76187774537E+00  0.95884738542E+00 -0.64770034969E+02  0.64781612174E+02  0.00000000000E+00 0.  1.
        -15    1    1    2    0    0 -0.52155280270E+01 -0.23123781550E+01 -0.11062328508E+02  0.12573053183E+02  0.17770000000E+01 0. -1.
         15    1    1    2    0    0  0.28852777143E+01  0.14684454633E+01 -0.10586111302E+03  0.10592551222E+03  0.17770000000E+01 0.  1.
</event>
<event>
 6    1  0.8353910E-003  0.1444383E+03  0.7546771E-02  0.1103573E+00
        -11   -1    0    0    0    0  0.00000000000E+00  0.00000000000E+00  0.18250000000E+03  0.18250000000E+03  0.00000000000E+00 0.  1.
         11   -1    0    0    0    0 -0.00000000000E+00 -0.00000000000E+00 -0.18250000000E+03  0.18250000000E+03  0.00000000000E+00 0. -1.
        -11    1    1    2    0    0  0.79909208220E+01  0.41228574877E+01  0.14473390828E+03  0.14501295451E+03  0.00000000000E+00 0.  1.
         11    1    1    2    0    0  0.86194876566E+00 -0.34596497345E+01 -0.14395697353E+03  0.14400111930E+03  0.00000000000E+00 0. -1.
        -15    1    1    2    0    0 -0.14623978723E+01  0.90147518473E+01 -0.36779626296E+02  0.37938147001E+02  0.17770000000E+01 0. -1.
         15    1    1    2    0    0 -0.73904717154E+01 -0.96779596006E+01  0.36002691541E+02  0.38047779191E+02  0.17770000000E+01 0.  1.
</event>
<event>
 6    1  0.8353910E-003  0.1846800E+03  0.7546771E-02  0.1066733E+00
        -11   -1    0    0    0    0  0.00000000000E+00  0.00000000000E+00  0.18250000000E+03  0.18250000000E+03  0.00000000000E+00 0. -1.
         11   -1    0    0    0    0 -0.00000000000E+00 -0.00000000000E+00 -0.18250000000E+03  0.18250000000E+03  0.00000000000E+00 0. -1.
        -11    1    1    2    0    0  0.20513471921E+01  0.26662407173E+01  0.18028858536E+03  0.18031996804E+03  0.00000000000E+00 0. -1.
         11    1    1    2    0    0  0.36951254448E+00 -0.26092214135E+01 -0.14465794560E+03  0.14468194705E+03  0.00000000000E+00 0. -1.
        -15    1    1    2    0    0 -0.53900432758E+01  0.19510833391E+01 -0.35491034056E+02  0.35994867968E+02  0.17770000000E+01 0. -1.
         15    1    1    2    0    0  0.29691835393E+01 -0.20081026429E+01 -0.13960569730E+00  0.40032169396E+01  0.17770000000E+01 0.  1.
</event>
<event>
 6    1  0.8353910E-003  0.1875040E+03  0.7546771E-02  0.1064540E+00
        -11   -1    0    0    0    0  0.00000000000E+00  0.00000000000E+00  0.18250000000E+03  0.18250000000E+03  0.00000000000E+00 0. -1.
         11   -1    0    0    0    0 -0.00000000000E+00 -0.00000000000E+00 -0.18250000000E+03  0.18250000000E+03  0.00000000000E+00 0. -1.
        -11    1    1    2    0    0  0.25657539015E+01 -0.12423790794E+01  0.17747313750E+03  0.17749603131E+03  0.00000000000E+00 0. -1.
         11    1    1    2    0    0 -0.44333295443E+01  0.24675572123E+01 -0.17233182614E+03  0.17240650089E+03  0.00000000000E+00 0. -1.
        -15    1    1    2    0    0  0.35471219456E+01 -0.26580435876E+01 -0.90717122665E+01  0.10251876036E+02  0.17770000000E+01 0.  1.
         15    1    1    2    0    0 -0.16795463028E+01  0.14328654547E+01  0.39304009082E+01  0.48455917589E+01  0.17770000000E+01 0.  1.
</event>
<event>
 6    1  0.8353910E-003  0.1859980E+03  0.7546771E-02  0.1065704E+00
        -11   -1    0    0    0    0  0.00000000000E+00  0.00000000000E+00  0.18250000000E+03  0.18250000000E+03  0.00000000000E+00 0.  1.
         11   -1    0    0    0    0 -0.00000000000E+00 -0.00000000000E+00 -0.18250000000E+03  0.18250000000E+03  0.00000000000E+00 0.  1.
        -11    1    1    2    0    0  0.23732777241E+01 -0.22927537922E+01  0.17897161966E+03  0.17900203857E+03  0.00000000000E+00 0.  1.
         11    1    1    2    0    0 -0.52972365548E+01 -0.12253550597E+00 -0.17456517279E+03  0.17464557046E+03  0.00000000000E+00 0.  1.
        -15    1    1    2    0    0  0.49180765433E+01  0.23473898035E+01 -0.59539946955E+01  0.82647140065E+01  0.17770000000E+01 0. -1.
         15    1    1    2    0    0 -0.19941177127E+01  0.67899494632E-01  0.15475478224E+01  0.30876769676E+01  0.17770000000E+01 0.  1.
</event>
<event>
 6    1  0.8353910E-003  0.1857053E+03  0.7546771E-02  0.1065932E+00
        -11   -1    0    0    0    0  0.00000000000E+00  0.00000000000E+00  0.18250000000E+03  0.18250000000E+03  0.00000000000E+00 0. -1.
         11   -1    0    0    0    0 -0.00000000000E+00 -0.00000000000E+00 -0.18250000000E+03  0.18250000000E+03  0.00000000000E+00 0. -1.
        -11    1    1    2    0    0  0.35898257432E+00 -0.47646646894E+01  0.17923100115E+03  0.17929468110E+03  0.00000000000E+00 0. -1.
         11    1    1    2    0    0  0.11672450349E+01  0.73608711035E+01 -0.16735756091E+03  0.16752342546E+03  0.00000000000E+00 0. -1.
        -15    1    1    2    0    0  0.32412893766E+01 -0.56225084727E+01 -0.26704809627E+01  0.72393201284E+01  0.17770000000E+01 0.  1.
         15    1    1    2    0    0 -0.47675169858E+01  0.30263020587E+01 -0.92029592700E+01  0.10942573312E+02  0.17770000000E+01 0. -1.
</event>
<event>
 6    1  0.8353910E-003  0.1850520E+03  0.7546771E-02  0.1066441E+00
        -11   -1    0    0    0    0  0.00000000000E+00  0.00000000000E+00  0.18250000000E+03  0.18250000000E+03  0.00000000000E+00 0. -1.
         11   -1    0    0    0    0 -0.00000000000E+00 -0.00000000000E+00 -0.18250000000E+03  0.18250000000E+03  0.00000000000E+00 0.  1.
        -11    1    1    2    0    0  0.91226845942E+01 -0.27977360059E+01  0.15423099686E+03  0.15452589134E+03  0.00000000000E+00 0. -1.
         11    1    1    2    0    0 -0.75740128352E+01 -0.18964853963E+01 -0.17977857528E+03  0.17994804378E+03  0.00000000000E+00 0.  1.
        -15    1    1    2    0    0 -0.72326642719E+01  0.31984189132E+01  0.21974771838E+02  0.23421990572E+02  0.17770000000E+01 0. -1.
         15    1    1    2    0    0  0.56839925130E+01  0.14958024891E+01  0.35728065842E+01  0.71040743142E+01  0.17770000000E+01 0. -1.
</event>
<event>
 6    1  0.8353910E-003  0.1825516E+03  0.7546771E-02  0.1068414E+00
        -11   -1    0    0    0    0  0.00000000000E+00  0.00000000000E+00  0.18250000000E+03  0.18250000000E+03  0.00000000000E+00 0. -1.
         11   -1    0    0    0    0 -0.00000000000E+00 -0.00000000000E+00 -0.18250000000E+03  0.18250000000E+03  0.00000000000E+00 0.  1.
        -11    1    1    2    0    0  0.79814661784E+00 -0.10032863575E+01  0.75301021702E+02  0.75311934584E+02  0.00000000000E+00 0. -1.
         11    1    1    2    0    0 -0.38100995657E+01 -0.10519835735E+01 -0.18240553576E+03  0.18244835709E+03  0.00000000000E+00 0.  1.
        -15    1    1    2    0    0  0.11855163477E+01  0.16455110773E+01  0.44108072079E+02  0.44190416464E+02  0.17770000000E+01 0.  1.
         15    1    1    2    0    0  0.18264366001E+01  0.40975885370E+00  0.62996441981E+02  0.63049291862E+02  0.17770000000E+01 0. -1.
</event>
<event>
 6    1  0.8353910E-003  0.1829476E+03  0.7546771E-02  0.1068099E+00
        -11   -1    0    0    0    0  0.00000000000E+00  0.00000000000E+00  0.18250000000E+03  0.18250000000E+03  0.00000000000E+00 0.  1.
         11   -1    0    0    0    0 -0.00000000000E+00 -0.00000000000E+00 -0.18250000000E+03  0.18250000000E+03  0.00000000000E+00 0.  1.
        -11    1    1    2    0    0 -0.27480676103E+01  0.62334510876E+00  0.18203063654E+03  0.18205244594E+03  0.00000000000E+00 0.  1.
         11    1    1    2    0    0  0.19596612774E+01 -0.45820172525E+01 -0.15024766981E+03  0.15033029448E+03  0.00000000000E+00 0.  1.
        -15    1    1    2    0    0 -0.74200062631E+00  0.69484453711E+00 -0.21170742668E+02  0.21269495715E+02  0.17770000000E+01 0. -1.
         15    1    1    2    0    0  0.15304069592E+01  0.32638276067E+01 -0.10612224059E+02  0.11347763858E+02  0.17770000000E+01 0.  1.
</event>
<event>
 6    1  0.8353910E-003  0.1782708E+03  0.7546771E-02  0.1071872E+00
        -11   -1    0    0    0    0  0.00000000000E+00  0.00000000000E+00  0.18250000000E+03  0.18250000000E+03  0.00000000000E+00 0. -1.
         11   -1    0    0    0    0 -0.00000000000E+00 -0.00000000000E+00 -0.18250000000E+03  0.18250000000E+03  0.00000000000E+00 0.  1.
        -11    1    1    2    0    0  0.24101839769E+01  0.55477791398E+00  0.17862367545E+03  0.17864079656E+03  0.00000000000E+00 0. -1.
         11    1    1    2    0    0  0.53063778949E+00 -0.27657887083E+01 -0.17789827258E+03  0.17792056247E+03  0.00000000000E+00 0.  1.
        -15    1    1    2    0    0 -0.22376186183E+01 -0.73463548283E+00  0.23493126435E+01  0.37714221814E+01  0.17770000000E+01 0. -1.
         15    1    1    2    0    0 -0.70320314805E+00  0.29456462771E+01 -0.30747155124E+01  0.46672187799E+01  0.17770000000E+01 0. -1.
</event>
<event>
 6    1  0.8353910E-003  0.1828921E+03  0.7546771E-02  0.1068143E+00
        -11   -1    0    0    0    0  0.00000000000E+00  0.00000000000E+00  0.18250000000E+03  0.18250000000E+03  0.00000000000E+00 0. -1.
         11   -1    0    0    0    0 -0.00000000000E+00 -0.00000000000E+00 -0.18250000000E+03  0.18250000000E+03  0.00000000000E+00 0. -1.
        -11    1    1    2    0    0 -0.79390324675E+00 -0.49462038903E+01  0.18203894964E+03  0.18210786475E+03  0.00000000000E+00 0. -1.
         11    1    1    2    0    0  0.53889048427E+00 -0.16910018677E+01 -0.95635342785E+02  0.95651809601E+02  0.00000000000E+00 0. -1.
        -15    1    1    2    0    0 -0.27554285051E+01  0.72405892981E+01 -0.70456128761E+02  0.70903048796E+02  0.17770000000E+01 0. -1.
         15    1    1    2    0    0  0.30104412676E+01 -0.60338354001E+00 -0.15947478098E+02  0.16337276855E+02  0.17770000000E+01 0. -1.
</event>
<event>
 6    1  0.8353910E-003  0.1828891E+03  0.7546771E-02  0.1068146E+00
        -11   -1    0    0    0    0  0.00000000000E+00  0.00000000000E+00  0.18250000000E+03  0.18250000000E+03  0.00000000000E+00 0.  1.
         11   -1    0    0    0    0 -0.00000000000E+00 -0.00000000000E+00 -0.18250000000E+03  0.18250000000E+03  0.00000000000E+00 0. -1.
        -11    1    1    2    0    0  0.36677465676E+01  0.40846823297E+01  0.18202817271E+03  0.18211093502E+03  0.00000000000E+00 0.  1.
         11    1    1    2    0    0 -0.80146130630E+00 -0.16591115349E+01 -0.11758769744E+03  0.11760213255E+03  0.00000000000E+00 0. -1.
        -15    1    1    2    0    0 -0.42207706453E+01 -0.24408818386E+01 -0.16553998311E+02  0.17348354333E+02  0.17770000000E+01 0. -1.
         15    1    1    2    0    0  0.13544853840E+01  0.15311043869E-01 -0.47886476957E+02  0.47938578092E+02  0.17770000000E+01 0. -1.
</event>
<event>
 6    1  0.8353910E-003  0.1880300E+03  0.7546771E-02  0.1064136E+00
        -11   -1    0    0    0    0  0.00000000000E+00  0.00000000000E+00  0.18250000000E+03  0.18250000000E+03  0.00000000000E+00 0.  1.
         11   -1    0    0    0    0 -0.00000000000E+00 -0.00000000000E+00 -0.18250000000E+03  0.18250000000E+03  0.00000000000E+00 0. -1.
        -11    1    1    2    0    0  0.58526230349E+01  0.23669020738E+01  0.17685738915E+03  0.17697003000E+03  0.00000000000E+00 0.  1.
         11    1    1    2    0    0 -0.18729304504E+01 -0.12356123670E+01 -0.15165059052E+03  0.15166718897E+03  0.00000000000E+00 0. -1.
        -15    1    1    2    0    0 -0.44330987771E+01 -0.54930762862E+01  0.29184625053E+01  0.78422831018E+01  0.17770000000E+01 0. -1.
         15    1    1    2    0    0  0.45340619259E+00  0.43617865793E+01 -0.28125261135E+02  0.28520497931E+02  0.17770000000E+01 0.  1.
</event>
<event>
 6    1  0.8353910E-003  0.1848352E+03  0.7546771E-02  0.1066611E+00
        -11   -1    0    0    0    0  0.00000000000E+00  0.00000000000E+00  0.18250000000E+03  0.18250000000E+03  0.00000000000E+00 0.  1.
         11   -1    0    0    0    0 -0.00000000000E+00 -0.00000000000E+00 -0.18250000000E+03  0.18250000000E+03  0.00000000000E+00 0.  1.
        -11    1    1    2    0    0 -0.22358963864E+01 -0.41068771998E+01  0.17518652724E+03  0.17524892296E+03  0.00000000000E+00 0.  1.
         11    1    1    2    0    0  0.26925269325E+01  0.24870919508E+01 -0.18012746846E+03  0.18016475855E+03  0.00000000000E+00 0.  1.
        -15    1    1    2    0    0 -0.42749069863E+00  0.22403621712E+01 -0.12244820754E+01  0.31399134237E+01  0.17770000000E+01 0.  1.
         15    1    1    2    0    0 -0.29139847419E-01 -0.62057692211E+00  0.61654233012E+01  0.64464050703E+01  0.17770000000E+01 0. -1.
</event>
<event>
 6    1  0.8353910E-003  0.1845270E+03  0.7546771E-02  0.1066853E+00
        -11   -1    0    0    0    0  0.00000000000E+00  0.00000000000E+00  0.18250000000E+03  0.18250000000E+03  0.00000000000E+00 0.  1.
         11   -1    0    0    0    0 -0.00000000000E+00 -0.00000000000E+00 -0.18250000000E+03  0.18250000000E+03  0.00000000000E+00 0. -1.
        -11    1    1    2    0    0  0.13256798732E+01  0.34313474239E+01  0.15316171020E+03  0.15320587797E+03  0.00000000000E+00 0.  1.
         11    1    1    2    0    0  0.25994544034E+01 -0.59574729394E+01 -0.18035588506E+03  0.18047297284E+03  0.00000000000E+00 0. -1.
        -15    1    1    2    0    0  0.44429229693E+01 -0.21087984842E+01  0.57454606807E+01  0.77688250715E+01  0.17770000000E+01 0.  1.
         15    1    1    2    0    0 -0.83680572459E+01  0.46349239996E+01  0.21448714184E+02  0.23552324125E+02  0.17770000000E+01 0. -1.
</event>
<event>
 6    1  0.8353910E-003  0.1828873E+03  0.7546771E-02  0.1068147E+00
        -11   -1    0    0    0    0  0.00000000000E+00  0.00000000000E+00  0.18250000000E+03  0.18250000000E+03  0.00000000000E+00 0. -1.
         11   -1    0    0    0    0 -0.00000000000E+00 -0.00000000000E+00 -0.18250000000E+03  0.18250000000E+03  0.00000000000E+00 0. -1.
        -11    1    1    2    0    0  0.21786571957E+01  0.11380418470E+01  0.11929390209E+03  0.11931922210E+03  0.00000000000E+00 0. -1.
         11    1    1    2    0    0  0.10886988566E+01  0.43871262047E+01 -0.18205658803E+03  0.18211269419E+03  0.00000000000E+00 0. -1.
        -15    1    1    2    0    0 -0.28074344722E+00 -0.29690349678E+01  0.92204908222E+01  0.98523685236E+01  0.17770000000E+01 0.  1.
         15    1    1    2    0    0 -0.29866126050E+01 -0.25561330840E+01  0.53542195119E+02  0.53715715190E+02  0.17770000000E+01 0. -1.
</event>
<event>
 6    1  0.8353910E-003  0.1895501E+03  0.7546771E-02  0.1062977E+00
        -11   -1    0    0    0    0  0.00000000000E+00  0.00000000000E+00  0.18250000000E+03  0.18250000000E+03  0.00000000000E+00 0. -1.
         11   -1    0    0    0    0 -0.00000000000E+00 -0.00000000000E+00 -0.18250000000E+03  0.18250000000E+03  0.00000000000E+00 0.  1.
        -11    1    1    2    0    0  0.72551246631E+01  0.72363607158E+01  0.17515044819E+03  0.17544993945E+03  0.00000000000E+00 0. -1.
         11    1    1    2    0    0  0.27638382216E+01  0.27993265985E+01 -0.15934525426E+03  0.15939380504E+03  0.00000000000E+00 0.  1.
        -15    1    1    2    0    0 -0.52008340652E+01 -0.45357348021E+01  0.45500378486E+01  0.84547110295E+01  0.17770000000E+01 0. -1.
         15    1    1    2    0    0 -0.48181288195E+01 -0.54999525122E+01 -0.20355231785E+02  0.21701544484E+02  0.17770000000E+01 0.  1.
</event>
<event>
 6    1  0.8353910E-003  0.1779185E+03  0.7546771E-02  0.1072161E+00
        -11   -1    0    0    0    0  0.00000000000E+00  0.00000000000E+00  0.18250000000E+03  0.18250000000E+03  0.00000000000E+00 0.  1.
         11   -1    0    0    0    0 -0.00000000000E+00 -0.00000000000E+00 -0.18250000000E+03  0.18250000000E+03  0.00000000000E+00 0. -1.
        -11    1    1    2    0    0 -0.21975443491E+01 -0.27002670624E+01  0.17765566138E+03  0.17768977085E+03  0.00000000000E+00 0.  1.
         11    1    1    2    0    0  0.31556001778E+01 -0.25814273180E+01 -0.17814137401E+03  0.17818802068E+03  0.00000000000E+00 0. -1.
        -15    1    1    2    0    0 -0.29452026790E+01  0.34605071189E+01  0.23267995575E+01  0.54056501479E+01  0.17770000000E+01 0.  1.
         15    1    1    2    0    0  0.19871468503E+01  0.18211872615E+01 -0.18410869293E+01  0.37165583175E+01  0.17770000000E+01 0. -1.
</event>
<event>
 6    1  0.8353910E-003  0.1834016E+03  0.7546771E-02  0.1067739E+00
        -11   -1    0    0    0    0  0.00000000000E+00  0.00000000000E+00  0.18250000000E+03  0.18250000000E+03  0.00000000000E+00 0. -1.
         11   -1    0    0    0    0 -0.00000000000E+00 -0.00000000000E+00 -0.18250000000E+03  0.18250000000E+03  0.00000000000E+00 0. -1.
        -11    1    1    2    0    0 -0.41390123252E+00  0.27967706136E+01  0.18157642102E+03  0.18159843036E+03  0.00000000000E+00 0. -1.
         11    1    1    2    0    0  0.59265101566E+01 -0.22477324118E+00 -0.13152039185E+03  0.13165404483E+03  0.00000000000E+00 0. -1.
        -15    1    1    2    0    0  0.19438542496E+01 -0.43045796085E+01 -0.15170864943E+02  0.15988147080E+02  0.17770000000E+01 0.  1.
         15    1    1    2    0    0 -0.74564631736E+01  0.17325822360E+01 -0.34885164219E+02  0.35759377733E+02  0.17770000000E+01 0. -1.
</event>
<event>
 6    1  0.8353910E-003  0.1856612E+03  0.7546771E-02  0.1065966E+00
        -11   -1    0    0    0    0  0.00000000000E+00  0.00000000000E+00  0.18250000000E+03  0.18250000000E+03  0.00000000000E+00 0. -1.
         11   -1    0    0    0    0 -0.00000000000E+00 -0.00000000000E+00 -0.18250000000E+03  0.18250000000E+03  0.00000000000E+00 0. -1.
        -11    1    1    2    0    0  0.93686591796E+01 -0.40026108241E+01  0.17291067327E+03  0.17321054702E+03  0.00000000000E+00 0. -1.
         11    1    1    2    0    0 -0.31022506325E+01  0.18677442290E+01 -0.17930220378E+03  0.17933876521E+03  0.00000000000E+00 0. -1.
        -15    1    1    2    0    0 -0.30801549719E+01 -0.97089744435E+00  0.67026396665E+01  0.76493858576E+01  0.17770000000E+01 0.  1.
         15    1    1    2    0    0 -0.31862535751E+01  0.31057640395E+01 -0.31110916331E+00  0.48013019094E+01  0.17770000000E+01 0. -1.
</event>
<event>
 6    1  0.8353910E-003  0.1735777E+03  0.7546771E-02  0.1075787E+00
        -11   -1    0    0    0    0  0.00000000000E+00  0.00000000000E+00  0.18250000000E+03  0.18250000000E+03  0.00000000000E+00 0.  1.
         11   -1    0    0    0    0 -0.00000000000E+00 -0.00000000000E+00 -0.18250000000E+03  0.18250000000E+03  0.00000000000E+00 0. -1.
        -11    1    1    2    0    0 -0.28932257961E+01 -0.23457808579E+01  0.17422772824E+03  0.17426753780E+03  0.00000000000E+00 0.  1.
         11    1    1    2    0    0  0.13294149133E+02  0.10454001740E+02 -0.17231562965E+03  0.17314357273E+03  0.00000000000E+00 0. -1.
        -15    1    1    2    0    0  0.54919156946E+00  0.53575785762E+00  0.22061215110E+01  0.29348507600E+01  0.17770000000E+01 0. -1.
         15    1    1    2    0    0 -0.10950114906E+02 -0.86439787393E+01 -0.41182200962E+01  0.14654038715E+02  0.17770000000E+01 0. -1.
</event>
<event>
 6    1  0.1044784E-002  0.1827265E+03  0.7546771E-02  0.1068275E+00
        -11   -1    0    0    0    0  0.00000000000E+00  0.00000000000E+00  0.18250000000E+03  0.18250000000E+03  0.00000000000E+00 0.  1.
         11   -1    0    0    0    0 -0.00000000000E+00 -0.00000000000E+00 -0.18250000000E+03  0.18250000000E+03  0.00000000000E+00 0.  1.
        -11    1    1    2    0    0  0.12094392184E+01 -0.21656745393E+01  0.18225658504E+03  0.18227346400E+03  0.00000000000E+00 0.  1.
         11    1    1    2    0    0  0.21626319694E+01 -0.32502989648E+00 -0.13814910959E+03  0.13816641814E+03  0.00000000000E+00 0.  1.
        -15    1    1    2    0    0 -0.33891837504E+01  0.95100734227E+00 -0.25119279371E+02  0.25426893373E+02  0.17770000000E+01 0.  1.
         15    1    1    2    0    0  0.17112562651E-01  0.15396970936E+01 -0.18988196077E+02  0.19133224487E+02  0.17770000000E+01 0. -1.
</event>
<event>
 6    1  0.8353910E-003  0.1843967E+03  0.7546771E-02  0.1066955E+00
        -11   -1    0    0    0    0  0.00000000000E+00  0.00000000000E+00  0.18250000000E+03  0.18250000000E+03  0.00000000000E+00 0. -1.
         11   -1    0    0    0    0 -0.00000000000E+00 -0.00000000000E+00 -0.18250000000E+03  0.18250000000E+03  0.00000000000E+00 0. -1.
        -11    1    1    2    0    0 -0.56723075307E+01 -0.34267373551E+01  0.18048165527E+03  0.18060328206E+03  0.00000000000E+00 0. -1.
         11    1    1    2    0    0 -0.13859627068E+01  0.23890214205E+01 -0.78347438359E+02  0.78396105856E+02  0.00000000000E+00 0. -1.
        -15    1    1    2    0    0  0.12739431336E+02 -0.32039003801E+01 -0.94523560576E+02  0.95448516601E+02  0.17770000000E+01 0. -1.
         15    1    1    2    0    0 -0.56811610981E+01  0.42416163147E+01 -0.76106563312E+01  0.10552095487E+02  0.17770000000E+01 0.  1.
</event>
<event>
 6    1  0.8353910E-003  0.1837949E+03  0.7546771E-02  0.1067429E+00
        -11   -1    0    0    0    0  0.00000000000E+00  0.00000000000E+00  0.18250000000E+03  0.18250000000E+03  0.00000000000E+00 0.  1.
         11   -1    0    0    0    0 -0.00000000000E+00 -0.00000000000E+00 -0.18250000000E+03  0.18250000000E+03  0.00000000000E+00 0.  1.
        -11    1    1    2    0    0  0.53147613470E+01  0.41119964076E-02  0.18112715709E+03  0.18120511511E+03  0.00000000000E+00 0.  1.
         11    1    1    2    0    0  0.23605690374E+01  0.39204957509E+01 -0.14388752019E+03  0.14396027591E+03  0.00000000000E+00 0.  1.
        -15    1    1    2    0    0 -0.16498772710E+01 -0.38601066754E+01 -0.41849859087E+01  0.61882432572E+01  0.17770000000E+01 0. -1.
         15    1    1    2    0    0 -0.60254531134E+01 -0.64501071911E-01 -0.33054650993E+02  0.33646365730E+02  0.17770000000E+01 0.  1.
</event>
<event>
 6    1  0.8353910E-003  0.1659806E+03  0.7546771E-02  0.1082422E+00
        -11   -1    0    0    0    0  0.00000000000E+00  0.00000000000E+00  0.18250000000E+03  0.18250000000E+03  0.00000000000E+00 0.  1.
         11   -1    0    0    0    0 -0.00000000000E+00 -0.00000000000E+00 -0.18250000000E+03  0.18250000000E+03  0.00000000000E+00 0. -1.
        -11    1    1    2    0    0 -0.23030595815E+01 -0.37895951231E+01  0.16888134467E+03  0.16893955633E+03  0.00000000000E+00 0.  1.
         11    1    1    2    0    0 -0.41765905625E+01  0.16296143922E+01 -0.16354419015E+02  0.16957787978E+02  0.00000000000E+00 0. -1.
        -15    1    1    2    0    0  0.11828340431E+02  0.57341496330E+00  0.10526727750E+02  0.15943906929E+02  0.17770000000E+01 0.  1.
         15    1    1    2    0    0 -0.53486902865E+01  0.15865657676E+01 -0.16305365341E+03  0.16315874876E+03  0.17770000000E+01 0. -1.
</event>
<event>
 6    1  0.8353910E-003  0.1844594E+03  0.7546771E-02  0.1066906E+00
        -11   -1    0    0    0    0  0.00000000000E+00  0.00000000000E+00  0.18250000000E+03  0.18250000000E+03  0.00000000000E+00 0.  1.
         11   -1    0    0    0    0 -0.00000000000E+00 -0.00000000000E+00 -0.18250000000E+03  0.18250000000E+03  0.00000000000E+00 0. -1.
        -11    1    1    2    0    0 -0.74640528620E+00  0.36342741607E+01  0.17567018914E+03  0.17570936350E+03  0.00000000000E+00 0.  1.
         11    1    1    2    0    0  0.24435214426E+01 -0.14623127560E+01 -0.18051816258E+03  0.18054062196E+03  0.00000000000E+00 0. -1.
        -15    1    1    2    0    0 -0.78335104699E+00 -0.33188514243E+00  0.55958876850E+01  0.59325773989E+01  0.17770000000E+01 0. -1.
         15    1    1    2    0    0 -0.91376510938E+00 -0.18400762623E+01 -0.74791424754E+00  0.28174371418E+01  0.17770000000E+01 0.  1.
</event>
<event>
 6    1  0.8353910E-003  0.1828193E+03  0.7546771E-02  0.1068201E+00
        -11   -1    0    0    0    0  0.00000000000E+00  0.00000000000E+00  0.18250000000E+03  0.18250000000E+03  0.00000000000E+00 0.  1.
         11   -1    0    0    0    0 -0.00000000000E+00 -0.00000000000E+00 -0.18250000000E+03  0.18250000000E+03  0.00000000000E+00 0. -1.
        -11    1    1    2    0    0 -0.25869123352E+01 -0.89289036642E+00  0.14197445572E+03  0.14200082903E+03  0.00000000000E+00 0.  1.
         11    1    1    2    0    0 -0.11498346380E+01 -0.24163739007E+01 -0.18216103868E+03  0.18218069326E+03  0.00000000000E+00 0. -1.
        -15    1    1    2    0    0  0.35459681335E+01  0.23637074918E+01  0.33944659878E+02  0.34257242538E+02  0.17770000000E+01 0.  1.
         15    1    1    2    0    0  0.19077883965E+00  0.94555677532E+00  0.62419230839E+01  0.65612351708E+01  0.17770000000E+01 0. -1.
</event>
<event>
 6    1  0.8353910E-003  0.1845892E+03  0.7546771E-02  0.1066804E+00
        -11   -1    0    0    0    0  0.00000000000E+00  0.00000000000E+00  0.18250000000E+03  0.18250000000E+03  0.00000000000E+00 0. -1.
         11   -1    0    0    0    0 -0.00000000000E+00 -0.00000000000E+00 -0.18250000000E+03  0.18250000000E+03  0.00000000000E+00 0.  1.
        -11    1    1    2    0    0 -0.80178601024E+01 -0.77035649214E+00  0.17785615177E+03  0.17803845161E+03  0.00000000000E+00 0. -1.
         11    1    1    2    0    0  0.72376058684E+01 -0.19835280797E+01 -0.18025460738E+03  0.18041075579E+03  0.00000000000E+00 0.  1.
        -15    1    1    2    0    0  0.17493689081E+00  0.18630115309E+01  0.33801854075E+01  0.42526223991E+01  0.17770000000E+01 0. -1.
         15    1    1    2    0    0  0.60531734317E+00  0.89087304090E+00 -0.98172980015E+00  0.22981701985E+01  0.17770000000E+01 0.  1.
</event>
<event>
 6    1  0.8353910E-003  0.1832539E+03  0.7546771E-02  0.1067856E+00
        -11   -1    0    0    0    0  0.00000000000E+00  0.00000000000E+00  0.18250000000E+03  0.18250000000E+03  0.00000000000E+00 0. -1.
         11   -1    0    0    0    0 -0.00000000000E+00 -0.00000000000E+00 -0.18250000000E+03  0.18250000000E+03  0.00000000000E+00 0.  1.
        -11    1    1    2    0    0  0.28210827566E+01 -0.12321885371E+01  0.18172003395E+03  0.18174610734E+03  0.00000000000E+00 0. -1.
         11    1    1    2    0    0  0.63361601511E+00  0.39606207070E+01 -0.16069930567E+03  0.16074935405E+03  0.00000000000E+00 0.  1.
        -15    1    1    2    0    0 -0.18835382638E+01  0.11516751558E+01 -0.41057326494E+01  0.49888717807E+01  0.17770000000E+01 0.  1.
         15    1    1    2    0    0 -0.15711605080E+01 -0.38801073258E+01 -0.16914995627E+02  0.17515666823E+02  0.17770000000E+01 0. -1.
</event>
<event>
 6    1  0.8353910E-003  0.1826622E+03  0.7546771E-02  0.1068326E+00
        -11   -1    0    0    0    0  0.00000000000E+00  0.00000000000E+00  0.18250000000E+03  0.18250000000E+03  0.00000000000E+00 0. -1.
         11   -1    0    0    0    0 -0.00000000000E+00 -0.00000000000E+00 -0.18250000000E+03  0.18250000000E+03  0.00000000000E+00 0.  1.
        -11    1    1    2    0    0 -0.21881839697E+01  0.18924510496E+01  0.18231480689E+03  0.18233775893E+03  0.00000000000E+00 0. -1.
         11    1    1    2    0    0 -0.43766291848E+00 -0.27212423856E+00 -0.68645053685E+01  0.68838241106E+01  0.00000000000E+00 0.  1.
        -15    1    1    2    0    0 -0.26838709123E+01 -0.34442245474E+00 -0.23767641442E+02  0.23987086080E+02  0.17770000000E+01 0. -1.
         15    1    1    2    0    0  0.53097178005E+01 -0.12759043563E+01 -0.15168266008E+03  0.15179133088E+03  0.17770000000E+01 0.  1.
</event>
<event>
 6    1  0.8353910E-003  0.1827207E+03  0.7546771E-02  0.1068279E+00
        -11   -1    0    0    0    0  0.00000000000E+00  0.00000000000E+00  0.18250000000E+03  0.18250000000E+03  0.00000000000E+00 0.  1.
         11   -1    0    0    0    0 -0.00000000000E+00 -0.00000000000E+00 -0.18250000000E+03  0.18250000000E+03  0.00000000000E+00 0. -1.
        -11    1    1    2    0    0 -0.16354972747E+01  0.12148330575E+01  0.14755513384E+03  0.14756919799E+03  0.00000000000E+00 0.  1.
         11    1    1    2    0    0  0.35687054880E+01 -0.20452028736E+01 -0.18223290040E+03  0.18227931452E+03  0.00000000000E+00 0. -1.
        -15    1    1    2    0    0 -0.27481411020E+01  0.14899603859E+01  0.24909739903E+02  0.25167938583E+02  0.17770000000E+01 0.  1.
         15    1    1    2    0    0  0.81493288871E+00 -0.65959056987E+00  0.97680266493E+01  0.99835489158E+01  0.17770000000E+01 0.  1.
</event>
<event>
 6    1  0.8353910E-003  0.1491232E+03  0.7546771E-02  0.1098642E+00
        -11   -1    0    0    0    0  0.00000000000E+00  0.00000000000E+00  0.18250000000E+03  0.18250000000E+03  0.00000000000E+00 0. -1.
         11   -1    0    0    0    0 -0.00000000000E+00 -0.00000000000E+00 -0.18250000000E+03  0.18250000000E+03  0.00000000000E+00 0. -1.
        -11    1    1    2    0    0  0.12644907060E+02  0.13148827697E+02  0.14785034684E+03  0.14897150870E+03  0.00000000000E+00 0. -1.
         11    1    1    2    0    0  0.88082212563E+01  0.12066824823E+02 -0.15037706166E+03  0.15111735075E+03  0.00000000000E+00 0. -1.
        -15    1    1    2    0    0 -0.26515192850E+02 -0.26260930870E+02 -0.19550640123E+02  0.42167252700E+02  0.17770000000E+01 0.  1.
         15    1    1    2    0    0  0.50620645339E+01  0.10452783491E+01  0.22077354944E+02  0.22743887850E+02  0.17770000000E+01 0. -1.
</event>
<event>
 6    1  0.8353910E-003  0.1827637E+03  0.7546771E-02  0.1068245E+00
        -11   -1    0    0    0    0  0.00000000000E+00  0.00000000000E+00  0.18250000000E+03  0.18250000000E+03  0.00000000000E+00 0. -1.
         11   -1    0    0    0    0 -0.00000000000E+00 -0.00000000000E+00 -0.18250000000E+03  0.18250000000E+03  0.00000000000E+00 0. -1.
        -11    1    1    2    0    0 -0.29147415558E+01 -0.15140387318E+01  0.18220667190E+03  0.18223627333E+03  0.00000000000E+00 0. -1.
         11    1    1    2    0    0 -0.22484523082E+01 -0.11803230137E+01 -0.13201828049E+03  0.13204270174E+03  0.00000000000E+00 0. -1.
        -15    1    1    2    0    0  0.44322935767E+01  0.19180573964E+01 -0.39478052696E+02  0.39812040191E+02  0.17770000000E+01 0. -1.
         15    1    1    2    0    0  0.73090028738E+00  0.77630434908E+00 -0.10710338713E+02  0.10908984738E+02  0.17770000000E+01 0.  1.
</event>
<event>
 6    1  0.8353910E-003  0.1828005E+03  0.7546771E-02  0.1068216E+00
        -11   -1    0    0    0    0  0.00000000000E+00  0.00000000000E+00  0.18250000000E+03  0.18250000000E+03  0.00000000000E+00 0.  1.
         11   -1    0    0    0    0 -0.00000000000E+00 -0.00000000000E+00 -0.18250000000E+03  0.18250000000E+03  0.00000000000E+00 0.  1.
        -11    1    1    2    0    0  0.22199695805E+01  0.25672666417E+01  0.10914370014E+03  0.10919645783E+03  0.00000000000E+00 0.  1.
         11    1    1    2    0    0  0.23880216908E+01 -0.13959307935E+01 -0.18217848677E+03  0.18219948494E+03  0.00000000000E+00 0.  1.
        -15    1    1    2    0    0 -0.33982162543E+01  0.37736267603E+00  0.65568165742E+02  0.65681293868E+02  0.17770000000E+01 0.  1.
         15    1    1    2    0    0 -0.12097750169E+01 -0.15486985243E+01  0.74666208908E+01  0.79227633586E+01  0.17770000000E+01 0. -1.
</event>
<event>
 6    1  0.8353910E-003  0.1843492E+03  0.7546771E-02  0.1066992E+00
        -11   -1    0    0    0    0  0.00000000000E+00  0.00000000000E+00  0.18250000000E+03  0.18250000000E+03  0.00000000000E+00 0.  1.
         11   -1    0    0    0    0 -0.00000000000E+00 -0.00000000000E+00 -0.18250000000E+03  0.18250000000E+03  0.00000000000E+00 0.  1.
        -11    1    1    2    0    0 -0.11748519135E+02 -0.89505561032E+01  0.18004603768E+03  0.18065081191E+03  0.00000000000E+00 0.  1.
         11    1    1    2    0    0  0.24142787811E+01  0.16309477296E+00 -0.15237763981E+03  0.15239685186E+03  0.00000000000E+00 0.  1.
        -15    1    1    2    0    0  0.48390104506E+00  0.55852482046E+00 -0.11651022671E+02  0.11808902086E+02  0.17770000000E+01 0.  1.
         15    1    1    2    0    0  0.88503393084E+01  0.82289365098E+01 -0.16017375203E+02  0.20143434150E+02  0.17770000000E+01 0.  1.
</event>
<event>
 6    1  0.8353910E-003  0.1837083E+03  0.7546771E-02  0.1067497E+00
        -11   -1    0    0    0    0  0.00000000000E+00  0.00000000000E+00  0.18250000000E+03  0.18250000000E+03  0.00000000000E+00 0. -1.
         11   -1    0    0    0    0 -0.00000000000E+00 -0.00000000000E+00 -0.18250000000E+03  0.18250000000E+03  0.00000000000E+00 0.  1.
        -11    1    1    2    0    0 -0.16919146898E+01  0.15320445139E+01  0.15213260012E+03  0.15214972151E+03  0.00000000000E+00 0. -1.
         11    1    1    2    0    0 -0.37109280444E+01  0.56051811766E+01 -0.18116700384E+03  0.18129167748E+03  0.00000000000E+00 0.  1.
        -15    1    1    2    0    0 -0.56078772508E+00  0.28123241388E+00  0.16221878957E+01  0.24865230970E+01  0.17770000000E+01 0.  1.
         15    1    1    2    0    0  0.59636304593E+01 -0.74184581044E+01  0.27412215825E+02  0.29072077916E+02  0.17770000000E+01 0.  1.
</event>
<event>
 6    1  0.8353910E-003  0.1841924E+03  0.7546771E-02  0.1067116E+00
        -11   -1    0    0    0    0  0.00000000000E+00  0.00000000000E+00  0.18250000000E+03  0.18250000000E+03  0.00000000000E+00 0.  1.
         11   -1    0    0    0    0 -0.00000000000E+00 -0.00000000000E+00 -0.18250000000E+03  0.18250000000E+03  0.00000000000E+00 0. -1.
        -11    1    1    2    0    0 -0.22144238191E+01  0.69267406104E+01  0.18066134763E+03  0.18080764900E+03  0.00000000000E+00 0.  1.
         11    1    1    2    0    0 -0.94972371425E-01  0.35945062684E+01 -0.14664355949E+03  0.14668763763E+03  0.00000000000E+00 0. -1.
        -15    1    1    2    0    0 -0.84548553538E+00 -0.29356125840E+01 -0.24717304792E+02  0.24968691440E+02  0.17770000000E+01 0.  1.
         15    1    1    2    0    0  0.31548817259E+01 -0.75856342947E+01 -0.93004833503E+01  0.12536021933E+02  0.17770000000E+01 0.  1.
</event>
<event>
 6    1  0.8353910E-003  0.1853847E+03  0.7546771E-02  0.1066181E+00
        -11   -1    0    0    0    0  0.00000000000E+00  0.00000000000E+00  0.18250000000E+03  0.18250000000E+03  0.00000000000E+00 0.  1.
         11   -1    0    0    0    0 -0.00000000000E+00 -0.00000000000E+00 -0.18250000000E+03  0.18250000000E+03  0.00000000000E+00 0.  1.
        -11    1    1    2    0    0 -0.20671814401E+01  0.25535402507E+01  0.17958520607E+03  0.17961525560E+03  0.00000000000E+00 0.  1.
         11    1    1    2    0    0 -0.17222941766E+01  0.76582667623E+01 -0.87351038118E+02  0.87703017094E+02  0.00000000000E+00 0.  1.
        -15    1    1    2    0    0  0.41243994881E+01 -0.23113621484E+01 -0.88693730463E+02  0.88837428028E+02  0.17770000000E+01 0. -1.
         15    1    1    2    0    0 -0.33492387138E+00 -0.79004448646E+01 -0.35404374871E+01  0.88442992746E+01  0.17770000000E+01 0.  1.
</event>
<event>
 6    1  0.8353910E-003  0.1858389E+03  0.7546771E-02  0.1065828E+00
        -11   -1    0    0    0    0  0.00000000000E+00  0.00000000000E+00  0.18250000000E+03  0.18250000000E+03  0.00000000000E+00 0.  1.
         11   -1    0    0    0    0 -0.00000000000E+00 -0.00000000000E+00 -0.18250000000E+03  0.18250000000E+03  0.00000000000E+00 0. -1.
        -11    1    1    2    0    0 -0.28045387471E+01  0.33366261379E+00  0.17169600809E+03  0.17171923585E+03  0.00000000000E+00 0.  1.
         11    1    1    2    0    0  0.59705635004E+00  0.27109067480E+01 -0.17913957413E+03  0.17916107979E+03  0.00000000000E+00 0. -1.
        -15    1    1    2    0    0 -0.11778550822E+01 -0.38871422557E+00  0.89641246833E+01  0.92223479484E+01  0.17770000000E+01 0.  1.
         15    1    1    2    0    0  0.33853374793E+01 -0.26558551363E+01 -0.15205586387E+01  0.48973364115E+01  0.17770000000E+01 0.  1.
</event>
<event>
 6    1  0.1365424E-002  0.1862267E+03  0.7546771E-02  0.1065526E+00
        -11   -1    0    0    0    0  0.00000000000E+00  0.00000000000E+00  0.18250000000E+03  0.18250000000E+03  0.00000000000E+00 0. -1.
         11   -1    0    0    0    0 -0.00000000000E+00 -0.00000000000E+00 -0.18250000000E+03  0.18250000000E+03  0.00000000000E+00 0.  1.
        -11    1    1    2    0    0  0.12701878186E+01 -0.19137600914E+01  0.16689401423E+03  0.16690981948E+03  0.00000000000E+00 0. -1.
         11    1    1    2    0    0  0.13355349510E+01  0.37251859104E+01 -0.17872944567E+03  0.17877325139E+03  0.00000000000E+00 0.  1.
        -15    1    1    2    0    0 -0.20442256955E+01  0.17459716855E+01  0.14264161510E+02  0.14623655781E+02  0.17770000000E+01 0. -1.
         15    1    1    2    0    0 -0.56149707405E+00 -0.35573975046E+01 -0.24287300698E+01  0.46932733483E+01  0.17770000000E+01 0. -1.
</event>
<event>
 6    1  0.8353910E-003  0.1869973E+03  0.7546771E-02  0.1064930E+00
        -11   -1    0    0    0    0  0.00000000000E+00  0.00000000000E+00  0.18250000000E+03  0.18250000000E+03  0.00000000000E+00 0. -1.
         11   -1    0    0    0    0 -0.00000000000E+00 -0.00000000000E+00 -0.18250000000E+03  0.18250000000E+03  0.00000000000E+00 0. -1.
        -11    1    1    2    0    0 -0.47611300342E+01 -0.95509685610E+01  0.17768245498E+03  0.17800265213E+03  0.00000000000E+00 0. -1.
         11    1    1    2    0    0  0.66422147959E+01  0.55365750554E+01 -0.16416429866E+03  0.16439187825E+03  0.00000000000E+00 0. -1.
        -15    1    1    2    0    0  0.38218209560E+01  0.65026312610E+01 -0.14658570116E+00  0.77504674119E+01  0.17770000000E+01 0.  1.
         15    1    1    2    0    0 -0.57029057176E+01 -0.24882377553E+01 -0.13371570615E+02  0.14855002204E+02  0.17770000000E+01 0. -1.
</event>
<event>
 6    1  0.8353910E-003  0.1850532E+03  0.7546771E-02  0.1066440E+00
        -11   -1    0    0    0    0  0.00000000000E+00  0.00000000000E+00  0.18250000000E+03  0.18250000000E+03  0.00000000000E+00 0.  1.
         11   -1    0    0    0    0 -0.00000000000E+00 -0.00000000000E+00 -0.18250000000E+03  0.18250000000E+03  0.00000000000E+00 0.  1.
        -11    1    1    2    0    0  0.25305406076E+01  0.24849337929E+01  0.17991184246E+03  0.17994679655E+03  0.00000000000E+00 0.  1.
         11    1    1    2    0    0  0.11266952045E+01 -0.22671200308E+01 -0.16103013749E+03  0.16105003712E+03  0.00000000000E+00 0.  1.
        -15    1    1    2    0    0 -0.15913852292E+01  0.32216430824E+00  0.18813632942E+01  0.30550865183E+01  0.17770000000E+01 0. -1.
         15    1    1    2    0    0 -0.20658505829E+01 -0.53997807031E+00 -0.20763068263E+02  0.20948079808E+02  0.17770000000E+01 0.  1.
</event>
<event>
 6    1  0.8353910E-003  0.1839573E+03  0.7546771E-02  0.1067301E+00
        -11   -1    0    0    0    0  0.00000000000E+00  0.00000000000E+00  0.18250000000E+03  0.18250000000E+03  0.00000000000E+00 0. -1.
         11   -1    0    0    0    0 -0.00000000000E+00 -0.00000000000E+00 -0.18250000000E+03  0.18250000000E+03  0.00000000000E+00 0. -1.
        -11    1    1    2    0    0 -0.16142455473E+01  0.42525425226E+01  0.14116157257E+03  0.14123483804E+03  0.00000000000E+00 0. -1.
         11    1    1    2    0    0 -0.38739850985E+01 -0.24922465961E+00 -0.18100110601E+03  0.18104273045E+03  0.00000000000E+00 0. -1.
        -15    1    1    2    0    0  0.43046472561E+01  0.45867070281E+01  0.18457461010E+02  0.19580691135E+02  0.17770000000E+01 0. -1.
         15    1    1    2    0    0  0.11835833897E+01 -0.85900248911E+01  0.21382072425E+02  0.23141740372E+02  0.17770000000E+01 0.  1.
</event>
<event>
 6    1  0.8353910E-003  0.1832272E+03  0.7546771E-02  0.1067877E+00
        -11   -1    0    0    0    0  0.00000000000E+00  0.00000000000E+00  0.18250000000E+03  0.18250000000E+03  0.00000000000E+00 0. -1.
         11   -1    0    0    0    0 -0.00000000000E+00 -0.00000000000E+00 -0.18250000000E+03  0.18250000000E+03  0.00000000000E+00 0.  1.
        -11    1    1    2    0    0  0.61799891606E+01 -0.80694578596E+00  0.18166595606E+03  0.18177283356E+03  0.00000000000E+00 0. -1.
         11    1    1    2    0    0 -0.17461500470E+01  0.14066930065E+01 -0.95918857240E+02  0.95945062402E+02  0.00000000000E+00 0.  1.
        -15    1    1    2    0    0 -0.92604669973E+00  0.22873635983E+01 -0.78423949803E+02  0.78482884927E+02  0.17770000000E+01 0.  1.
         15    1    1    2    0    0 -0.35077924138E+01 -0.28871108189E+01 -0.73231490174E+01  0.87992191148E+01  0.17770000000E+01 0. -1.
</event>
<event>
 6    1  0.8353910E-003  0.1888844E+03  0.7546771E-02  0.1063483E+00
        -11   -1    0    0    0    0  0.00000000000E+00  0.00000000000E+00  0.18250000000E+03  0.18250000000E+03  0.00000000000E+00 0. -1.
         11   -1    0    0    0    0 -0.00000000000E+00 -0.00000000000E+00 -0.18250000000E+03  0.18250000000E+03  0.00000000000E+00 0. -1.
        -11    1    1    2    0    0 -0.10013808491E+02 -0.18468019437E+02  0.17485814597E+03  0.17611563052E+03  0.00000000000E+00 0. -1.
         11    1    1    2    0    0  0.17311471100E+01  0.68921822478E+01 -0.12995201967E+03  0.13014617345E+03  0.00000000000E+00 0. -1.
        -15    1    1    2    0    0  0.60198226922E+01  0.18552270581E+02 -0.81465494909E+01  0.21212001475E+02  0.17770000000E+01 0. -1.
         15    1    1    2    0    0  0.22628386884E+01 -0.69764333914E+01 -0.36759576808E+02  0.37526194557E+02  0.17770000000E+01 0.  1.
</event>
<event>
 6    1  0.8353910E-003  0.1829038E+03  0.7546771E-02  0.1068134E+00
        -11   -1    0    0    0    0  0.00000000000E+00  0.00000000000E+00  0.18250000000E+03  0.18250000000E+03  0.00000000000E+00 0. -1.
         11   -1    0    0    0    0 -0.00000000000E+00 -0.00000000000E+00 -0.18250000000E+03  0.18250000000E+03  0.00000000000E+00 0. -1.
        -11    1    1    2    0    0 -0.29619516355E+00  0.53988504785E+00  0.31877842454E+02  0.31883789721E+02  0.00000000000E+00 0. -1.
         11    1    1    2    0    0 -0.59024498943E-01 -0.31253589252E+01 -0.18206940443E+03  0.18209623660E+03  0.00000000000E+00 0. -1.
        -15    1    1    2    0    0 -0.28169732627E+01  0.11074316864E+01  0.75668318044E+01  0.83412478599E+01  0.17770000000E+01 0.  1.
         15    1    1    2    0    0  0.31721929252E+01  0.14780421909E+01  0.14262473017E+03  0.14267872582E+03  0.17770000000E+01 0. -1.
</event>
<event>
 6    1  0.8353910E-003  0.1764726E+03  0.7546771E-02  0.1073356E+00
        -11   -1    0    0    0    0  0.00000000000E+00  0.00000000000E+00  0.18250000000E+03  0.18250000000E+03  0.00000000000E+00 0.  1.
         11   -1    0    0    0    0 -0.00000000000E+00 -0.00000000000E+00 -0.18250000000E+03  0.18250000000E+03  0.00000000000E+00 0.  1.
        -11    1    1    2    0    0 -0.36357984743E+01 -0.32249666737E+01  0.17410706152E+03  0.17417487853E+03  0.00000000000E+00 0.  1.
         11    1    1    2    0    0 -0.33176161222E+00 -0.51125296607E+01 -0.17884950933E+03  0.17892287448E+03  0.00000000000E+00 0.  1.
        -15    1    1    2    0    0  0.17002945732E+01  0.31417449295E+01  0.44173169301E+01  0.59524768541E+01  0.17770000000E+01 0. -1.
         15    1    1    2    0    0  0.22672655133E+01  0.51957514049E+01  0.32513088258E+00  0.59497701351E+01  0.17770000000E+01 0.  1.
</event>
<event>
 6    1  0.8353910E-003  0.1858975E+03  0.7546771E-02  0.1065782E+00
        -11   -1    0    0    0    0  0.00000000000E+00  0.00000000000E+00  0.18250000000E+03  0.18250000000E+03  0.00000000000E+00 0.  1.
         11   -1    0    0    0    0 -0.00000000000E+00 -0.00000000000E+00 -0.18250000000E+03  0.18250000000E+03  0.00000000000E+00 0. -1.
        -11    1    1    2    0    0  0.35632468216E+01  0.23312627492E+01  0.17709640561E+03  0.17714758929E+03  0.00000000000E+00 0.  1.
         11    1    1    2    0    0 -0.66367410177E+01 -0.20548742536E+01 -0.17896773606E+03  0.17910253876E+03  0.00000000000E+00 0. -1.
        -15    1    1    2    0    0  0.41434790229E+01  0.21642667638E+01  0.23246794612E+01  0.55149190960E+01  0.17770000000E+01 0.  1.
         15    1    1    2    0    0 -0.10699848267E+01 -0.24406552594E+01 -0.45334900533E+00  0.32349528506E+01  0.17770000000E+01 0. -1.
</event>
<event>
 6    1  0.8353910E-003  0.1847846E+03  0.7546771E-02  0.1066651E+00
        -11   -1    0    0    0    0  0.00000000000E+00  0.00000000000E+00  0.18250000000E+03  0.18250000000E+03  0.00000000000E+00 0. -1.
         11   -1    0    0    0    0 -0.00000000000E+00 -0.00000000000E+00 -0.18250000000E+03  0.18250000000E+03  0.00000000000E+00 0. -1.
        -11    1    1    2    0    0  0.22058562531E+01  0.55000567783E+00  0.15967716140E+03  0.15969334420E+03  0.00000000000E+00 0. -1.
         11    1    1    2    0    0 -0.28466609712E+01  0.67725691130E+01 -0.18006563497E+03  0.18021543793E+03  0.00000000000E+00 0. -1.
        -15    1    1    2    0    0 -0.27575943547E+01 -0.56969330702E+01  0.30275656770E+01  0.72376277854E+01  0.17770000000E+01 0. -1.
         15    1    1    2    0    0  0.33983990728E+01 -0.16256417207E+01  0.17360907892E+02  0.17853590090E+02  0.17770000000E+01 0.  1.
</event>
<event>
 6    1  0.8353910E-003  0.1769960E+03  0.7546771E-02  0.1072922E+00
        -11   -1    0    0    0    0  0.00000000000E+00  0.00000000000E+00  0.18250000000E+03  0.18250000000E+03  0.00000000000E+00 0.  1.
         11   -1    0    0    0    0 -0.00000000000E+00 -0.00000000000E+00 -0.18250000000E+03  0.18250000000E+03  0.00000000000E+00 0.  1.
        -11    1    1    2    0    0  0.12449125633E+01 -0.25890015993E+01  0.17708253516E+03  0.17710583557E+03  0.00000000000E+00 0.  1.
         11    1    1    2    0    0 -0.85106439926E+00 -0.24240504059E+01 -0.17690327830E+03  0.17692193252E+03  0.00000000000E+00 0.  1.
        -15    1    1    2    0    0 -0.11796551333E+01 -0.19330768719E+01 -0.20341840926E+01  0.35247703966E+01  0.17770000000E+01 0. -1.
         15    1    1    2    0    0  0.78580696934E+00  0.69461288771E+01  0.18549272398E+01  0.74474615162E+01  0.17770000000E+01 0.  1.
</event>
<event>
 6    1  0.8353910E-003  0.1903725E+03  0.7546771E-02  0.1062355E+00
        -11   -1    0    0    0    0  0.00000000000E+00  0.00000000000E+00  0.18250000000E+03  0.18250000000E+03  0.00000000000E+00 0. -1.
         11   -1    0    0    0    0 -0.00000000000E+00 -0.00000000000E+00 -0.18250000000E+03  0.18250000000E+03  0.00000000000E+00 0. -1.
        -11    1    1    2    0    0 -0.42534681089E+01 -0.68402531326E+00  0.17457436095E+03  0.17462751039E+03  0.00000000000E+00 0. -1.
         11    1    1    2    0    0 -0.15958171116E+01  0.17452872781E+02 -0.14038439849E+03  0.14147412745E+03  0.00000000000E+00 0. -1.
        -15    1    1    2    0    0  0.82919824127E+01 -0.70793823055E+01 -0.36797056304E+02  0.38419470426E+02  0.17770000000E+01 0. -1.
         15    1    1    2    0    0 -0.24426971921E+01 -0.96894651619E+01  0.26070938387E+01  0.10478891734E+02  0.17770000000E+01 0.  1.
</event>
<event>
 6    1  0.8353910E-003  0.1834869E+03  0.7546771E-02  0.1067672E+00
        -11   -1    0    0    0    0  0.00000000000E+00  0.00000000000E+00  0.18250000000E+03  0.18250000000E+03  0.00000000000E+00 0. -1.
         11   -1    0    0    0    0 -0.00000000000E+00 -0.00000000000E+00 -0.18250000000E+03  0.18250000000E+03  0.00000000000E+00 0. -1.
        -11    1    1    2    0    0  0.11146028027E+01  0.38658022117E+01  0.18146854052E+03  0.18151313442E+03  0.00000000000E+00 0. -1.
         11    1    1    2    0    0  0.17709607878E+01  0.31853655017E+01 -0.15437970189E+03  0.15442271598E+03  0.00000000000E+00 0. -1.
        -15    1    1    2    0    0  0.21129987722E+00 -0.65185010635E+01 -0.19956805266E+02  0.21070531773E+02  0.17770000000E+01 0.  1.
         15    1    1    2    0    0 -0.30968634678E+01 -0.53266664993E+00 -0.71320333665E+01  0.79936178317E+01  0.17770000000E+01 0. -1.
</event>
<event>
 6    1  0.8353910E-003  0.1829797E+03  0.7546771E-02  0.1068074E+00
        -11   -1    0    0    0    0  0.00000000000E+00  0.00000000000E+00  0.18250000000E+03  0.18250000000E+03  0.00000000000E+00 0.  1.
         11   -1    0    0    0    0 -0.00000000000E+00 -0.00000000000E+00 -0.18250000000E+03  0.18250000000E+03  0.00000000000E+00 0. -1.
        -11    1    1    2    0    0  0.53942743430E+00 -0.14944564552E+01  0.93933466075E+02  0.93946902189E+02  0.00000000000E+00 0.  1.
         11    1    1    2    0    0 -0.17991536534E+01 -0.56588594271E+01 -0.18192340435E+03  0.18202028649E+03  0.00000000000E+00 0. -1.
        -15    1    1    2    0    0 -0.23878544135E+01 -0.48266028487E+00  0.49129702190E+02  0.49222151273E+02  0.17770000000E+01 0.  1.
         15    1    1    2    0    0  0.36475806326E+01  0.76359761671E+01  0.38860236081E+02  0.39810660052E+02  0.17770000000E+01 0.  1.
</event>
<event>
 6    1  0.8353910E-003  0.1789109E+03  0.7546771E-02  0.1071348E+00
        -11   -1    0    0    0    0  0.00000000000E+00  0.00000000000E+00  0.18250000000E+03  0.18250000000E+03  0.00000000000E+00 0. -1.
         11   -1    0    0    0    0 -0.00000000000E+00 -0.00000000000E+00 -0.18250000000E+03  0.18250000000E+03  0.00000000000E+00 0.  1.
        -11    1    1    2    0    0 -0.20576507906E+01 -0.16603830975E+01  0.17841750944E+03  0.17843709949E+03  0.00000000000E+00 0. -1.
         11    1    1    2    0    0  0.96684671194E+00  0.29129727294E+01 -0.17936351560E+03  0.17938977377E+03  0.00000000000E+00 0.  1.
        -15    1    1    2    0    0 -0.13151360680E+01 -0.25501193755E+01 -0.80880342013E+00  0.34705307490E+01  0.17770000000E+01 0. -1.
         15    1    1    2    0    0  0.24059401467E+01  0.12975297436E+01  0.17548095853E+01  0.37025959955E+01  0.17770000000E+01 0.  1.
</event>
<event>
 6    1  0.8353910E-003  0.1828248E+03  0.7546771E-02  0.1068197E+00
        -11   -1    0    0    0    0  0.00000000000E+00  0.00000000000E+00  0.18250000000E+03  0.18250000000E+03  0.00000000000E+00 0. -1.
         11   -1    0    0    0    0 -0.00000000000E+00 -0.00000000000E+00 -0.18250000000E+03  0.18250000000E+03  0.00000000000E+00 0. -1.
        -11    1    1    2    0    0  0.43047465902E+01  0.32601170387E+01  0.18209511176E+03  0.18217516003E+03  0.00000000000E+00 0. -1.
         11    1    1    2    0    0 -0.47023368816E+00 -0.30003989050E+01 -0.12603489742E+03  0.12607148322E+03  0.00000000000E+00 0. -1.
        -15    1    1    2    0    0 -0.15424631611E+01 -0.26191409024E+01 -0.43660948006E+02  0.43802684866E+02  0.17770000000E+01 0.  1.
         15    1    1    2    0    0 -0.22920497409E+01  0.23594227687E+01 -0.12399266329E+02  0.12950671887E+02  0.17770000000E+01 0. -1.
</event>
<event>
 6    1  0.8353910E-003  0.1845270E+03  0.7546771E-02  0.1066853E+00
        -11   -1    0    0    0    0  0.00000000000E+00  0.00000000000E+00  0.18250000000E+03  0.18250000000E+03  0.00000000000E+00 0. -1.
         11   -1    0    0    0    0 -0.00000000000E+00 -0.00000000000E+00 -0.18250000000E+03  0.18250000000E+03  0.00000000000E+00 0.  1.
        -11    1    1    2    0    0  0.73107638969E+00 -0.87286010974E+01  0.18026030685E+03  0.18047299292E+03  0.00000000000E+00 0. -1.
         11    1    1    2    0    0  0.31989154243E-01 -0.57551716032E+01 -0.13960319491E+03  0.13972177730E+03  0.00000000000E+00 0.  1.
        -15    1    1    2    0    0  0.16612099827E+01  0.14476292752E+02 -0.26134944097E+02  0.29975251498E+02  0.17770000000E+01 0.  1.
         15    1    1    2    0    0 -0.24242755266E+01  0.74799486592E-02 -0.14522167841E+02  0.14829978273E+02  0.17770000000E+01 0. -1.
</event>
<event>
 6    1  0.8353910E-003  0.1849614E+03  0.7546771E-02  0.1066512E+00
        -11   -1    0    0    0    0  0.00000000000E+00  0.00000000000E+00  0.18250000000E+03  0.18250000000E+03  0.00000000000E+00 0. -1.
         11   -1    0    0    0    0 -0.00000000000E+00 -0.00000000000E+00 -0.18250000000E+03  0.18250000000E+03  0.00000000000E+00 0.  1.
        -11    1    1    2    0    0  0.28361265634E+01 -0.29141033093E+01  0.17999268496E+03  0.18003861323E+03  0.00000000000E+00 0. -1.
         11    1    1    2    0    0  0.52457235450E+01  0.24993937706E+01 -0.16151869409E+03  0.16162318251E+03  0.00000000000E+00 0.  1.
        -15    1    1    2    0    0 -0.57947305159E+01  0.42774378953E+00 -0.16909146035E+01  0.63070427062E+01  0.17770000000E+01 0.  1.
         15    1    1    2    0    0 -0.22871195925E+01 -0.13034250802E-01 -0.16783076268E+02  0.17031161556E+02  0.17770000000E+01 0. -1.
</event>
<event>
 6    1  0.1262589E-002  0.1842048E+03  0.7546771E-02  0.1067106E+00
        -11   -1    0    0    0    0  0.00000000000E+00  0.00000000000E+00  0.18250000000E+03  0.18250000000E+03  0.00000000000E+00 0. -1.
         11   -1    0    0    0    0 -0.00000000000E+00 -0.00000000000E+00 -0.18250000000E+03  0.18250000000E+03  0.00000000000E+00 0.  1.
        -11    1    1    2    0    0  0.14379240918E+01  0.73251059110E+01  0.18064101406E+03  0.18079519010E+03  0.00000000000E+00 0. -1.
         11    1    1    2    0    0 -0.21029602009E+01 -0.90586647372E-02 -0.31595069598E+02  0.31664979813E+02  0.00000000000E+00 0.  1.
        -15    1    1    2    0    0  0.14944237207E+01 -0.80579090842E+01 -0.83694991443E+01  0.11847761223E+02  0.17770000000E+01 0. -1.
         15    1    1    2    0    0 -0.82938761160E+00  0.74186183793E+00 -0.14067644532E+03  0.14069206886E+03  0.17770000000E+01 0.  1.
</event>
<event>
 6    1  0.8353910E-003  0.1828790E+03  0.7546771E-02  0.1068154E+00
        -11   -1    0    0    0    0  0.00000000000E+00  0.00000000000E+00  0.18250000000E+03  0.18250000000E+03  0.00000000000E+00 0.  1.
         11   -1    0    0    0    0 -0.00000000000E+00 -0.00000000000E+00 -0.18250000000E+03  0.18250000000E+03  0.00000000000E+00 0.  1.
        -11    1    1    2    0    0  0.30050735328E+01 -0.12307159787E+01  0.13121017980E+03  0.13125035776E+03  0.00000000000E+00 0.  1.
         11    1    1    2    0    0 -0.18448924672E+01 -0.20442520145E+01 -0.18210017591E+03  0.18212099457E+03  0.00000000000E+00 0.  1.
        -15    1    1    2    0    0  0.19875395400E+01  0.23028162247E+01  0.10706889222E+02  0.11271578496E+02  0.17770000000E+01 0. -1.
         15    1    1    2    0    0 -0.31477206056E+01  0.97215176852E+00  0.40183106892E+02  0.40357069177E+02  0.17770000000E+01 0. -1.
</event>
<event>
 6    1  0.8353910E-003  0.1830465E+03  0.7546771E-02  0.1068021E+00
        -11   -1    0    0    0    0  0.00000000000E+00  0.00000000000E+00  0.18250000000E+03  0.18250000000E+03  0.00000000000E+00 0.  1.
         11   -1    0    0    0    0 -0.00000000000E+00 -0.00000000000E+00 -0.18250000000E+03  0.18250000000E+03  0.00000000000E+00 0. -1.
        -11    1    1    2    0    0  0.33533798915E+01  0.11719664121E+01  0.18191877425E+03  0.18195345308E+03  0.00000000000E+00 0.  1.
         11    1    1    2    0    0 -0.78667583172E+00  0.29311094771E+01 -0.14781787027E+03  0.14784902107E+03  0.00000000000E+00 0. -1.
        -15    1    1    2    0    0 -0.36966499494E+00 -0.42514912001E+01 -0.28984203441E+02  0.29350529940E+02  0.17770000000E+01 0. -1.
         15    1    1    2    0    0 -0.21970390648E+01  0.14841531092E+00 -0.51167005436E+01  0.58469959133E+01  0.17770000000E+01 0.  1.
</event>
<event>
 6    1  0.8353910E-003  0.1974148E+03  0.7546771E-02  0.1057166E+00
        -11   -1    0    0    0    0  0.00000000000E+00  0.00000000000E+00  0.18250000000E+03  0.18250000000E+03  0.00000000000E+00 0.  1.
         11   -1    0    0    0    0 -0.00000000000E+00 -0.00000000000E+00 -0.18250000000E+03  0.18250000000E+03  0.00000000000E+00 0. -1.
        -11    1    1    2    0    0  0.39327476572E-01  0.40674180231E+01  0.11072244182E+03  0.11079713245E+03  0.00000000000E+00 0.  1.
         11    1    1    2    0    0  0.32246193476E+01  0.41666591655E+02 -0.16229077433E+03  0.16758519762E+03  0.00000000000E+00 0. -1.
        -15    1    1    2    0    0  0.24080458470E+02 -0.27310657353E+02  0.29597340642E+02  0.46956371104E+02  0.17770000000E+01 0. -1.
         15    1    1    2    0    0 -0.27344405294E+02 -0.18423352325E+02  0.21970991869E+02  0.39661298825E+02  0.17770000000E+01 0.  1.
</event>
<event>
 6    1  0.8353910E-003  0.1828305E+03  0.7546771E-02  0.1068192E+00
        -11   -1    0    0    0    0  0.00000000000E+00  0.00000000000E+00  0.18250000000E+03  0.18250000000E+03  0.00000000000E+00 0. -1.
         11   -1    0    0    0    0 -0.00000000000E+00 -0.00000000000E+00 -0.18250000000E+03  0.18250000000E+03  0.00000000000E+00 0. -1.
        -11    1    1    2    0    0 -0.29098939982E+01  0.15006032079E+00  0.19058580320E+02  0.19280028138E+02  0.00000000000E+00 0. -1.
         11    1    1    2    0    0  0.16880791657E+01 -0.66998794688E+01 -0.18203839854E+03  0.18216947203E+03  0.00000000000E+00 0. -1.
        -15    1    1    2    0    0  0.44751697919E+01 -0.11562661997E+01  0.71799795908E+02  0.71970358604E+02  0.17770000000E+01 0. -1.
         15    1    1    2    0    0 -0.32533549594E+01  0.77060853477E+01  0.91180022312E+02  0.91580141230E+02  0.17770000000E+01 0.  1.
</event>
<event>
 6    1  0.8353910E-003  0.1834319E+03  0.7546771E-02  0.1067715E+00
        -11   -1    0    0    0    0  0.00000000000E+00  0.00000000000E+00  0.18250000000E+03  0.18250000000E+03  0.00000000000E+00 0. -1.
         11   -1    0    0    0    0 -0.00000000000E+00 -0.00000000000E+00 -0.18250000000E+03  0.18250000000E+03  0.00000000000E+00 0. -1.
        -11    1    1    2    0    0 -0.14762520250E+01 -0.22658429319E+01  0.16068811845E+03  0.16071087324E+03  0.00000000000E+00 0. -1.
         11    1    1    2    0    0 -0.55548747533E+01  0.33733918045E+01 -0.18145173503E+03  0.18156808241E+03  0.00000000000E+00 0. -1.
        -15    1    1    2    0    0  0.39215794379E+01 -0.10547755806E+01  0.56102667014E+01  0.71501159623E+01  0.17770000000E+01 0.  1.
         15    1    1    2    0    0  0.31095473405E+01 -0.52773292012E-01  0.15153349870E+02  0.15570928392E+02  0.17770000000E+01 0.  1.
</event>
<event>
 6    1  0.8353910E-003  0.1847661E+03  0.7546771E-02  0.1066665E+00
        -11   -1    0    0    0    0  0.00000000000E+00  0.00000000000E+00  0.18250000000E+03  0.18250000000E+03  0.00000000000E+00 0.  1.
         11   -1    0    0    0    0 -0.00000000000E+00 -0.00000000000E+00 -0.18250000000E+03  0.18250000000E+03  0.00000000000E+00 0.  1.
        -11    1    1    2    0    0  0.51854171714E+01  0.14716426472E+00  0.18015918156E+03  0.18023385062E+03  0.00000000000E+00 0.  1.
         11    1    1    2    0    0  0.16053924000E+01  0.23049321692E+01 -0.25697140895E+02  0.25850204008E+02  0.00000000000E+00 0.  1.
        -15    1    1    2    0    0 -0.76438412582E+01 -0.10212733236E+02 -0.17544866371E+02  0.21764840783E+02  0.17770000000E+01 0. -1.
         15    1    1    2    0    0  0.85303168680E+00  0.77606368024E+01 -0.13691717429E+03  0.13715110459E+03  0.17770000000E+01 0.  1.
</event>
<event>
 6    1  0.8353910E-003  0.1837789E+03  0.7546771E-02  0.1067441E+00
        -11   -1    0    0    0    0  0.00000000000E+00  0.00000000000E+00  0.18250000000E+03  0.18250000000E+03  0.00000000000E+00 0.  1.
         11   -1    0    0    0    0 -0.00000000000E+00 -0.00000000000E+00 -0.18250000000E+03  0.18250000000E+03  0.00000000000E+00 0.  1.
        -11    1    1    2    0    0 -0.54653091770E+01  0.28795906856E+01  0.14348707508E+03  0.14361999290E+03  0.00000000000E+00 0.  1.
         11    1    1    2    0    0 -0.30392661607E+01 -0.29589388335E+01 -0.18117143582E+03  0.18122108491E+03  0.00000000000E+00 0.  1.
        -15    1    1    2    0    0  0.13648765718E+01 -0.45954859277E+01  0.15599937130E+02  0.16416368248E+02  0.17770000000E+01 0.  1.
         15    1    1    2    0    0  0.71396987659E+01  0.46748340756E+01  0.22084423615E+02  0.23742553938E+02  0.17770000000E+01 0. -1.
</event>
<event>
 6    1  0.8353910E-003  0.1873191E+03  0.7546771E-02  0.1064682E+00
        -11   -1    0    0    0    0  0.00000000000E+00  0.00000000000E+00  0.18250000000E+03  0.18250000000E+03  0.00000000000E+00 0. -1.
         11   -1    0    0    0    0 -0.00000000000E+00 -0.00000000000E+00 -0.18250000000E+03  0.18250000000E+03  0.00000000000E+00 0. -1.
        -11    1    1    2    0    0  0.26230993470E+01 -0.43136654518E+01  0.17021680087E+03  0.17029165469E+03  0.00000000000E+00 0. -1.
         11    1    1    2    0    0  0.37331912050E+01 -0.67748003307E+00 -0.17764034129E+03  0.17768085589E+03  0.00000000000E+00 0. -1.
        -15    1    1    2    0    0 -0.35043482260E+01 -0.40522006654E+01  0.22112361873E+01  0.60620195643E+01  0.17770000000E+01 0. -1.
         15    1    1    2    0    0 -0.28519423260E+01  0.90433461503E+01  0.52123042398E+01  0.10965469854E+02  0.17770000000E+01 0. -1.
</event>
<event>
 6    1  0.8353910E-003  0.1842799E+03  0.7546771E-02  0.1067047E+00
        -11   -1    0    0    0    0  0.00000000000E+00  0.00000000000E+00  0.18250000000E+03  0.18250000000E+03  0.00000000000E+00 0. -1.
         11   -1    0    0    0    0 -0.00000000000E+00 -0.00000000000E+00 -0.18250000000E+03  0.18250000000E+03  0.00000000000E+00 0. -1.
        -11    1    1    2    0    0 -0.77204615662E+01  0.12355596979E+02  0.18013182769E+03  0.18072006432E+03  0.00000000000E+00 0. -1.
         11    1    1    2    0    0 -0.35433888799E+01 -0.29717008136E+01 -0.13386672683E+03  0.13394658324E+03  0.00000000000E+00 0. -1.
        -15    1    1    2    0    0  0.84834646948E+01 -0.98152166744E+01 -0.20306762422E+02  0.24162573965E+02  0.17770000000E+01 0. -1.
         15    1    1    2    0    0  0.27803857513E+01  0.43132050864E+00 -0.25958338434E+02  0.26170778467E+02  0.17770000000E+01 0.  1.
</event>
<event>
 6    1  0.8353910E-003  0.1837235E+03  0.7546771E-02  0.1067485E+00
        -11   -1    0    0    0    0  0.00000000000E+00  0.00000000000E+00  0.18250000000E+03  0.18250000000E+03  0.00000000000E+00 0.  1.
         11   -1    0    0    0    0 -0.00000000000E+00 -0.00000000000E+00 -0.18250000000E+03  0.18250000000E+03  0.00000000000E+00 0. -1.
        -11    1    1    2    0    0 -0.28760487274E+01 -0.87415755787E-01  0.71595158056E+02  0.71652954963E+02  0.00000000000E+00 0.  1.
         11    1    1    2    0    0 -0.33766755365E+01  0.25176087508E+01 -0.18122759225E+03  0.18127653043E+03  0.00000000000E+00 0. -1.
        -15    1    1    2    0    0 -0.68206229444E+00 -0.25837734681E+01  0.12377827599E+01  0.34396118195E+01  0.17770000000E+01 0. -1.
         15    1    1    2    0    0  0.69347865583E+01  0.15358047315E+00  0.10839465144E+03  0.10863090279E+03  0.17770000000E+01 0.  1.
</event>
<event>
 6    1  0.8353910E-003  0.1901953E+03  0.7546771E-02  0.1062489E+00
        -11   -1    0    0    0    0  0.00000000000E+00  0.00000000000E+00  0.18250000000E+03  0.18250000000E+03  0.00000000000E+00 0.  1.
         11   -1    0    0    0    0 -0.00000000000E+00 -0.00000000000E+00 -0.18250000000E+03  0.18250000000E+03  0.00000000000E+00 0.  1.
        -11    1    1    2    0    0 -0.81341969545E+00 -0.64405509854E+01  0.12456448304E+03  0.12473352710E+03  0.00000000000E+00 0.  1.
         11    1    1    2    0    0  0.17327051051E+02 -0.29534404707E+00 -0.17394353522E+03  0.17480465489E+03  0.00000000000E+00 0.  1.
        -15    1    1    2    0    0 -0.18794146062E+02  0.10960946211E+01  0.54261172352E+02  0.57461760360E+02  0.17770000000E+01 0. -1.
         15    1    1    2    0    0  0.22805147067E+01  0.56398004114E+01 -0.48821201711E+01  0.80000576481E+01  0.17770000000E+01 0.  1.
</event>
<event>
 6    1  0.8353910E-003  0.1773565E+03  0.7546771E-02  0.1072624E+00
        -11   -1    0    0    0    0  0.00000000000E+00  0.00000000000E+00  0.18250000000E+03  0.18250000000E+03  0.00000000000E+00 0. -1.
         11   -1    0    0    0    0 -0.00000000000E+00 -0.00000000000E+00 -0.18250000000E+03  0.18250000000E+03  0.00000000000E+00 0.  1.
        -11    1    1    2    0    0 -0.45997969196E+01 -0.21626454679E+01  0.17615117876E+03  0.17622449587E+03  0.00000000000E+00 0. -1.
         11    1    1    2    0    0 -0.20944277597E+00 -0.33887647451E+01 -0.17854030161E+03  0.17857258158E+03  0.00000000000E+00 0.  1.
        -15    1    1    2    0    0  0.18780338560E+01 -0.70145629032E-01  0.25288000214E+01  0.36172489715E+01  0.17770000000E+01 0.  1.
         15    1    1    2    0    0  0.29312058395E+01  0.56215558421E+01 -0.13967717353E+00  0.65856735777E+01  0.17770000000E+01 0. -1.
</event>
<event>
 6    1  0.8353910E-003  0.1853398E+03  0.7546771E-02  0.1066217E+00
        -11   -1    0    0    0    0  0.00000000000E+00  0.00000000000E+00  0.18250000000E+03  0.18250000000E+03  0.00000000000E+00 0. -1.
         11   -1    0    0    0    0 -0.00000000000E+00 -0.00000000000E+00 -0.18250000000E+03  0.18250000000E+03  0.00000000000E+00 0. -1.
        -11    1    1    2    0    0 -0.48731907159E+01 -0.18594108674E+01  0.17958451517E+03  0.17966024459E+03  0.00000000000E+00 0. -1.
         11    1    1    2    0    0  0.57655146309E+01  0.25464544669E+01 -0.17423509217E+03  0.17434905487E+03  0.00000000000E+00 0. -1.
        -15    1    1    2    0    0  0.39289444803E+01  0.41727102358E+00 -0.21322776585E+01  0.48285667490E+01  0.17770000000E+01 0.  1.
         15    1    1    2    0    0 -0.48212683954E+01 -0.11043146231E+01 -0.32171453451E+01  0.61621337943E+01  0.17770000000E+01 0. -1.
</event>
<event>
 6    1  0.8353910E-003  0.1886833E+03  0.7546771E-02  0.1063637E+00
        -11   -1    0    0    0    0  0.00000000000E+00  0.00000000000E+00  0.18250000000E+03  0.18250000000E+03  0.00000000000E+00 0.  1.
         11   -1    0    0    0    0 -0.00000000000E+00 -0.00000000000E+00 -0.18250000000E+03  0.18250000000E+03  0.00000000000E+00 0. -1.
        -11    1    1    2    0    0 -0.21032305796E+01 -0.31670192199E+01  0.17627569901E+03  0.17631669136E+03  0.00000000000E+00 0.  1.
         11    1    1    2    0    0  0.41761845939E+01  0.49774631825E+01 -0.17369340168E+03  0.17381488269E+03  0.00000000000E+00 0. -1.
        -15    1    1    2    0    0  0.18207601110E+01  0.18430443804E+01 -0.70271337414E+01  0.76974227888E+01  0.17770000000E+01 0.  1.
         15    1    1    2    0    0 -0.38937141253E+01 -0.36534883429E+01  0.44448364082E+01  0.71710031695E+01  0.17770000000E+01 0. -1.
</event>
<event>
 6    1  0.8353910E-003  0.1062060E+03  0.7546771E-02  0.1153494E+00
        -11   -1    0    0    0    0  0.00000000000E+00  0.00000000000E+00  0.18250000000E+03  0.18250000000E+03  0.00000000000E+00 0.  1.
         11   -1    0    0    0    0 -0.00000000000E+00 -0.00000000000E+00 -0.18250000000E+03  0.18250000000E+03  0.00000000000E+00 0. -1.
        -11    1    1    2    0    0 -0.10649681510E+01 -0.53232871683E+01  0.12845718098E+03  0.12857184329E+03  0.00000000000E+00 0.  1.
         11    1    1    2    0    0  0.41729769205E+01  0.63104504578E+00 -0.94453667545E+02  0.94547909902E+02  0.00000000000E+00 0. -1.
        -15    1    1    2    0    0 -0.68073416367E+01  0.23243788002E+01  0.53619600838E+02  0.54129123030E+02  0.17770000000E+01 0.  1.
         15    1    1    2    0    0  0.36993328671E+01  0.23678633223E+01 -0.87623114269E+02  0.87751123774E+02  0.17770000000E+01 0. -1.
</event>
<event>
 6    1  0.8353910E-003  0.1828189E+03  0.7546771E-02  0.1068201E+00
        -11   -1    0    0    0    0  0.00000000000E+00  0.00000000000E+00  0.18250000000E+03  0.18250000000E+03  0.00000000000E+00 0.  1.
         11   -1    0    0    0    0 -0.00000000000E+00 -0.00000000000E+00 -0.18250000000E+03  0.18250000000E+03  0.00000000000E+00 0. -1.
        -11    1    1    2    0    0 -0.23959509804E+01 -0.58454793870E+00  0.13455878759E+03  0.13458138651E+03  0.00000000000E+00 0.  1.
         11    1    1    2    0    0  0.13795190585E+01  0.46195988850E+01 -0.18211730375E+03  0.18218110794E+03  0.00000000000E+00 0. -1.
        -15    1    1    2    0    0 -0.32964182619E+00  0.12489434876E+01  0.95975106643E+01  0.98457332647E+01  0.17770000000E+01 0.  1.
         15    1    1    2    0    0  0.13460737481E+01 -0.52839944339E+01  0.37961005497E+02  0.38391772284E+02  0.17770000000E+01 0.  1.
</event>
<event>
 6    1  0.8353910E-003  0.1852206E+03  0.7546771E-02  0.1066310E+00
        -11   -1    0    0    0    0  0.00000000000E+00  0.00000000000E+00  0.18250000000E+03  0.18250000000E+03  0.00000000000E+00 0.  1.
         11   -1    0    0    0    0 -0.00000000000E+00 -0.00000000000E+00 -0.18250000000E+03  0.18250000000E+03  0.00000000000E+00 0.  1.
        -11    1    1    2    0    0 -0.40651124655E+01  0.30012296416E+01  0.17970839721E+03  0.17977942192E+03  0.00000000000E+00 0.  1.
         11    1    1    2    0    0  0.18449924152E+01 -0.44753679855E+01 -0.16093868460E+03  0.16101146890E+03  0.00000000000E+00 0.  1.
        -15    1    1    2    0    0  0.37775007965E+01 -0.32111432534E+01 -0.60468341670E+00  0.53013511764E+01  0.17770000000E+01 0.  1.
         15    1    1    2    0    0 -0.15573807462E+01  0.46852815973E+01 -0.18165029191E+02  0.18907758009E+02  0.17770000000E+01 0.  1.
</event>
<event>
 6    1  0.8353910E-003  0.1868128E+03  0.7546771E-02  0.1065073E+00
        -11   -1    0    0    0    0  0.00000000000E+00  0.00000000000E+00  0.18250000000E+03  0.18250000000E+03  0.00000000000E+00 0.  1.
         11   -1    0    0    0    0 -0.00000000000E+00 -0.00000000000E+00 -0.18250000000E+03  0.18250000000E+03  0.00000000000E+00 0. -1.
        -11    1    1    2    0    0  0.23814882010E+01 -0.37491820069E+01  0.64915393567E+02  0.65067166634E+02  0.00000000000E+00 0.  1.
         11    1    1    2    0    0 -0.72032886705E+01  0.20676339471E+02 -0.17683691846E+03  0.17818724453E+03  0.00000000000E+00 0. -1.
        -15    1    1    2    0    0 -0.44268883071E+01  0.66677813148E+01  0.13694778063E+01  0.83120302097E+01  0.17770000000E+01 0. -1.
         15    1    1    2    0    0  0.92486887766E+01 -0.23594938779E+02  0.11055204708E+03  0.11343355863E+03  0.17770000000E+01 0.  1.
</event>
<event>
 6    1  0.8353910E-003  0.1839497E+03  0.7546771E-02  0.1067307E+00
        -11   -1    0    0    0    0  0.00000000000E+00  0.00000000000E+00  0.18250000000E+03  0.18250000000E+03  0.00000000000E+00 0. -1.
         11   -1    0    0    0    0 -0.00000000000E+00 -0.00000000000E+00 -0.18250000000E+03  0.18250000000E+03  0.00000000000E+00 0. -1.
        -11    1    1    2    0    0  0.59344490993E+01 -0.67891213216E+01  0.18082560784E+03  0.18105029772E+03  0.00000000000E+00 0. -1.
         11    1    1    2    0    0  0.23988418741E+01  0.88340721979E+00 -0.10722775746E+03  0.10725822496E+03  0.00000000000E+00 0. -1.
        -15    1    1    2    0    0 -0.52749856175E+01  0.56616599111E+01 -0.72565762825E+02  0.72998818686E+02  0.17770000000E+01 0. -1.
         15    1    1    2    0    0 -0.30583053559E+01  0.24405419075E+00 -0.10320875504E+01  0.36926586370E+01  0.17770000000E+01 0.  1.
</event>
<event>
 6    1  0.8570551E-003  0.1946626E+03  0.7546771E-02  0.1059166E+00
        -11   -1    0    0    0    0  0.00000000000E+00  0.00000000000E+00  0.18250000000E+03  0.18250000000E+03  0.00000000000E+00 0.  1.
         11   -1    0    0    0    0 -0.00000000000E+00 -0.00000000000E+00 -0.18250000000E+03  0.18250000000E+03  0.00000000000E+00 0. -1.
        -11    1    1    2    0    0 -0.70253846927E+01  0.11124354535E+01  0.17018880934E+03  0.17033738394E+03  0.00000000000E+00 0.  1.
         11    1    1    2    0    0  0.13736014924E+01 -0.20575016149E+01 -0.15797419299E+03  0.15799356235E+03  0.00000000000E+00 0. -1.
        -15    1    1    2    0    0  0.18302070282E+01 -0.25302272756E+01 -0.23689427496E+02  0.23960350831E+02  0.17770000000E+01 0.  1.
         15    1    1    2    0    0  0.38215761721E+01  0.34752934369E+01  0.11474811147E+02  0.12708702875E+02  0.17770000000E+01 0. -1.
</event>
<event>
 6    1  0.8353910E-003  0.1849131E+03  0.7546771E-02  0.1066550E+00
        -11   -1    0    0    0    0  0.00000000000E+00  0.00000000000E+00  0.18250000000E+03  0.18250000000E+03  0.00000000000E+00 0. -1.
         11   -1    0    0    0    0 -0.00000000000E+00 -0.00000000000E+00 -0.18250000000E+03  0.18250000000E+03  0.00000000000E+00 0. -1.
        -11    1    1    2    0    0  0.44165853884E+01 -0.82932399765E-01  0.17282066280E+03  0.17287710836E+03  0.00000000000E+00 0. -1.
         11    1    1    2    0    0  0.29086843663E+01 -0.13763714477E+01 -0.18005811056E+03  0.18008686243E+03  0.00000000000E+00 0. -1.
        -15    1    1    2    0    0 -0.69517356122E+01  0.40990283555E+00  0.67991213629E+01  0.98934538289E+01  0.17770000000E+01 0.  1.
         15    1    1    2    0    0 -0.37353414255E+00  0.10494010119E+01  0.43832639693E+00  0.21425753825E+01  0.17770000000E+01 0. -1.
</event>
<event>
 6    1  0.8353910E-003  0.1828037E+03  0.7546771E-02  0.1068213E+00
        -11   -1    0    0    0    0  0.00000000000E+00  0.00000000000E+00  0.18250000000E+03  0.18250000000E+03  0.00000000000E+00 0. -1.
         11   -1    0    0    0    0 -0.00000000000E+00 -0.00000000000E+00 -0.18250000000E+03  0.18250000000E+03  0.00000000000E+00 0.  1.
        -11    1    1    2    0    0 -0.34165079412E+01 -0.64853905681E+00  0.16174489865E+03  0.16178227767E+03  0.00000000000E+00 0. -1.
         11    1    1    2    0    0  0.26184765400E+01  0.14822263700E+01 -0.18217142218E+03  0.18219626909E+03  0.00000000000E+00 0.  1.
        -15    1    1    2    0    0 -0.21068900373E+00 -0.15998534219E+01  0.14671777111E+02  0.14866831990E+02  0.17770000000E+01 0.  1.
         15    1    1    2    0    0  0.10087204049E+01  0.76616610868E+00  0.57547464190E+01  0.61546212482E+01  0.17770000000E+01 0. -1.
</event>
<event>
 6    1  0.8353910E-003  0.1840904E+03  0.7546771E-02  0.1067196E+00
        -11   -1    0    0    0    0  0.00000000000E+00  0.00000000000E+00  0.18250000000E+03  0.18250000000E+03  0.00000000000E+00 0. -1.
         11   -1    0    0    0    0 -0.00000000000E+00 -0.00000000000E+00 -0.18250000000E+03  0.18250000000E+03  0.00000000000E+00 0.  1.
        -11    1    1    2    0    0  0.40001325354E+01 -0.56726832249E+01  0.16271730082E+03  0.16286528292E+03  0.00000000000E+00 0. -1.
         11    1    1    2    0    0 -0.62020082529E+01 -0.34812476574E+01 -0.18076978520E+03  0.18090964384E+03  0.00000000000E+00 0.  1.
        -15    1    1    2    0    0  0.43841745583E+00  0.30494473924E+01  0.11030509970E+02  0.11589703122E+02  0.17770000000E+01 0.  1.
         15    1    1    2    0    0  0.17634582617E+01  0.61044834899E+01  0.70219744078E+01  0.96353701176E+01  0.17770000000E+01 0. -1.
</event>
<event>
 6    1  0.8353910E-003  0.1833181E+03  0.7546771E-02  0.1067805E+00
        -11   -1    0    0    0    0  0.00000000000E+00  0.00000000000E+00  0.18250000000E+03  0.18250000000E+03  0.00000000000E+00 0. -1.
         11   -1    0    0    0    0 -0.00000000000E+00 -0.00000000000E+00 -0.18250000000E+03  0.18250000000E+03  0.00000000000E+00 0. -1.
        -11    1    1    2    0    0  0.26645906478E+00  0.29945001607E+01  0.11831628864E+03  0.11835447684E+03  0.00000000000E+00 0. -1.
         11    1    1    2    0    0 -0.36636475394E+01  0.93300347146E+00 -0.18164257504E+03  0.18168191401E+03  0.00000000000E+00 0. -1.
        -15    1    1    2    0    0  0.31122543275E+01 -0.30898806269E+01  0.61833717741E+01  0.77862253232E+01  0.17770000000E+01 0.  1.
         15    1    1    2    0    0  0.28493414717E+00 -0.83762300530E+00  0.57142914634E+02  0.57177383830E+02  0.17770000000E+01 0. -1.
</event>
<event>
 6    1  0.8353910E-003  0.1833581E+03  0.7546771E-02  0.1067774E+00
        -11   -1    0    0    0    0  0.00000000000E+00  0.00000000000E+00  0.18250000000E+03  0.18250000000E+03  0.00000000000E+00 0. -1.
         11   -1    0    0    0    0 -0.00000000000E+00 -0.00000000000E+00 -0.18250000000E+03  0.18250000000E+03  0.00000000000E+00 0.  1.
        -11    1    1    2    0    0  0.12179292399E+01  0.42366070501E+01  0.18158841117E+03  0.18164190944E+03  0.00000000000E+00 0. -1.
         11    1    1    2    0    0  0.18875734112E+01 -0.13487042110E+01 -0.16341489619E+03  0.16343136245E+03  0.00000000000E+00 0.  1.
        -15    1    1    2    0    0 -0.45752450653E+01 -0.10648502041E+01 -0.91677177372E+01  0.10453303347E+02  0.17770000000E+01 0.  1.
         15    1    1    2    0    0  0.14697424141E+01 -0.18230526350E+01 -0.90057972490E+01  0.94734247642E+01  0.17770000000E+01 0. -1.
</event>
<event>
 6    1  0.8353910E-003  0.1853170E+03  0.7546771E-02  0.1066234E+00
        -11   -1    0    0    0    0  0.00000000000E+00  0.00000000000E+00  0.18250000000E+03  0.18250000000E+03  0.00000000000E+00 0. -1.
         11   -1    0    0    0    0 -0.00000000000E+00 -0.00000000000E+00 -0.18250000000E+03  0.18250000000E+03  0.00000000000E+00 0.  1.
        -11    1    1    2    0    0 -0.20481113031E+01  0.25461036371E+01  0.17965329634E+03  0.17968301058E+03  0.00000000000E+00 0. -1.
         11    1    1    2    0    0 -0.33877562391E+01 -0.32011689331E+00 -0.17309072773E+03  0.17312417333E+03  0.00000000000E+00 0.  1.
        -15    1    1    2    0    0  0.27624935148E+01 -0.30522167770E+01  0.37958215579E+00  0.44999121420E+01  0.17770000000E+01 0. -1.
         15    1    1    2    0    0  0.26733740274E+01  0.82623003324E+00 -0.69421507749E+01  0.76929039471E+01  0.17770000000E+01 0. -1.
</event>
<event>
 6    1  0.8353910E-003  0.1832858E+03  0.7546771E-02  0.1067831E+00
        -11   -1    0    0    0    0  0.00000000000E+00  0.00000000000E+00  0.18250000000E+03  0.18250000000E+03  0.00000000000E+00 0.  1.
         11   -1    0    0    0    0 -0.00000000000E+00 -0.00000000000E+00 -0.18250000000E+03  0.18250000000E+03  0.00000000000E+00 0. -1.
        -11    1    1    2    0    0 -0.49118999099E+01 -0.49134447599E+01  0.18158131414E+03  0.18171417762E+03  0.00000000000E+00 0.  1.
         11    1    1    2    0    0 -0.73003610881E+00  0.19714989029E+01 -0.42528804513E+02  0.42580734775E+02  0.00000000000E+00 0. -1.
        -15    1    1    2    0    0  0.72752729624E+01  0.33453177495E+01 -0.19856029321E+02  0.21483490799E+02  0.17770000000E+01 0. -1.
         15    1    1    2    0    0 -0.16333369437E+01 -0.40337189246E+00 -0.11919648031E+03  0.11922159681E+03  0.17770000000E+01 0. -1.
</event>
<event>
 6    1  0.8353910E-003  0.1836492E+03  0.7546771E-02  0.1067544E+00
        -11   -1    0    0    0    0  0.00000000000E+00  0.00000000000E+00  0.18250000000E+03  0.18250000000E+03  0.00000000000E+00 0.  1.
         11   -1    0    0    0    0 -0.00000000000E+00 -0.00000000000E+00 -0.18250000000E+03  0.18250000000E+03  0.00000000000E+00 0.  1.
        -11    1    1    2    0    0  0.51444667764E+01  0.86150549510E+00  0.15280792765E+03  0.15289692764E+03  0.00000000000E+00 0.  1.
         11    1    1    2    0    0  0.31378999403E+01  0.54289661432E+01 -0.18124238832E+03  0.18135082964E+03  0.00000000000E+00 0.  1.
        -15    1    1    2    0    0 -0.72938318390E+01 -0.39238453960E+01  0.22609274827E+02  0.24144017537E+02  0.17770000000E+01 0. -1.
         15    1    1    2    0    0 -0.98853487766E+00 -0.23666262423E+01  0.58251858418E+01  0.66082251828E+01  0.17770000000E+01 0.  1.
</event>
<event>
 6    1  0.8353910E-003  0.1846432E+03  0.7546771E-02  0.1066762E+00
        -11   -1    0    0    0    0  0.00000000000E+00  0.00000000000E+00  0.18250000000E+03  0.18250000000E+03  0.00000000000E+00 0.  1.
         11   -1    0    0    0    0 -0.00000000000E+00 -0.00000000000E+00 -0.18250000000E+03  0.18250000000E+03  0.00000000000E+00 0.  1.
        -11    1    1    2    0    0  0.14558180733E+01 -0.24266058171E+01  0.18033459170E+03  0.18035679301E+03  0.00000000000E+00 0.  1.
         11    1    1    2    0    0  0.34034241371E+01 -0.27016840769E+01 -0.16661850347E+03  0.16667515739E+03  0.00000000000E+00 0.  1.
        -15    1    1    2    0    0 -0.21070849316E+00  0.21978113477E+01 -0.11397666415E+02  0.11744756340E+02  0.17770000000E+01 0. -1.
         15    1    1    2    0    0 -0.46485337173E+01  0.29304785463E+01 -0.23184218218E+01  0.62232932580E+01  0.17770000000E+01 0.  1.
</event>
<event>
 6    1  0.8353910E-003  0.1826047E+03  0.7546771E-02  0.1068371E+00
        -11   -1    0    0    0    0  0.00000000000E+00  0.00000000000E+00  0.18250000000E+03  0.18250000000E+03  0.00000000000E+00 0. -1.
         11   -1    0    0    0    0 -0.00000000000E+00 -0.00000000000E+00 -0.18250000000E+03  0.18250000000E+03  0.00000000000E+00 0. -1.
        -11    1    1    2    0    0 -0.38304648643E+01  0.28033000886E+01  0.18233352656E+03  0.18239530109E+03  0.00000000000E+00 0. -1.
         11    1    1    2    0    0  0.40613035838E+00  0.99321369364E+00 -0.46974248952E+02  0.46986503167E+02  0.00000000000E+00 0. -1.
        -15    1    1    2    0    0  0.96015195324E+00 -0.15876281714E+01 -0.10444005104E+03  0.10447164422E+03  0.17770000000E+01 0.  1.
         15    1    1    2    0    0  0.24641825526E+01 -0.22088856108E+01 -0.30919226565E+02  0.31146551522E+02  0.17770000000E+01 0. -1.
</event>
<event>
 6    1  0.8353910E-003  0.1926666E+03  0.7546771E-02  0.1060638E+00
        -11   -1    0    0    0    0  0.00000000000E+00  0.00000000000E+00  0.18250000000E+03  0.18250000000E+03  0.00000000000E+00 0. -1.
         11   -1    0    0    0    0 -0.00000000000E+00 -0.00000000000E+00 -0.18250000000E+03  0.18250000000E+03  0.00000000000E+00 0.  1.
        -11    1    1    2    0    0  0.30532820113E+01  0.14579771277E+01  0.17230018450E+03  0.17233340306E+03  0.00000000000E+00 0. -1.
         11    1    1    2    0    0 -0.18913846313E+01 -0.24587715637E+01 -0.16978227246E+03  0.16981060902E+03  0.00000000000E+00 0.  1.
        -15    1    1    2    0    0 -0.47983376843E+00  0.48328676170E+01 -0.11663711927E+02  0.12758791273E+02  0.17770000000E+01 0.  1.
         15    1    1    2    0    0 -0.68206361153E+00 -0.38320731809E+01  0.91457998853E+01  0.10097196649E+02  0.17770000000E+01 0. -1.
</event>
<event>
 6    1  0.8353910E-003  0.1196153E+03  0.7546771E-02  0.1133652E+00
        -11   -1    0    0    0    0  0.00000000000E+00  0.00000000000E+00  0.18250000000E+03  0.18250000000E+03  0.00000000000E+00 0.  1.
         11   -1    0    0    0    0 -0.00000000000E+00 -0.00000000000E+00 -0.18250000000E+03  0.18250000000E+03  0.00000000000E+00 0.  1.
        -11    1    1    2    0    0  0.21656377611E+02  0.47026821940E+02  0.15156501975E+03  0.16016390319E+03  0.00000000000E+00 0.  1.
         11    1    1    2    0    0 -0.51299437493E+00  0.16165237951E+01 -0.63605084180E+02  0.63627690874E+02  0.00000000000E+00 0.  1.
        -15    1    1    2    0    0  0.62179534058E+01 -0.71433808275E+01 -0.90873888146E+02  0.91383325120E+02  0.17770000000E+01 0. -1.
         15    1    1    2    0    0 -0.27361336642E+02 -0.41499964908E+02  0.29139525801E+01  0.49825080821E+02  0.17770000000E+01 0.  1.
</event>
<event>
 6    1  0.8353910E-003  0.1665097E+03  0.7546771E-02  0.1081947E+00
        -11   -1    0    0    0    0  0.00000000000E+00  0.00000000000E+00  0.18250000000E+03  0.18250000000E+03  0.00000000000E+00 0. -1.
         11   -1    0    0    0    0 -0.00000000000E+00 -0.00000000000E+00 -0.18250000000E+03  0.18250000000E+03  0.00000000000E+00 0. -1.
        -11    1    1    2    0    0  0.32631675059E+01  0.28008123213E+01  0.16580412692E+03  0.16585988459E+03  0.00000000000E+00 0. -1.
         11    1    1    2    0    0 -0.20234325258E+00  0.24551749904E+01 -0.16719989307E+03  0.16721804050E+03  0.00000000000E+00 0. -1.
        -15    1    1    2    0    0 -0.11615180258E+02 -0.79344384832E+01  0.11531014753E+02  0.18275386637E+02  0.17770000000E+01 0.  1.
         15    1    1    2    0    0  0.85543560050E+01  0.26784511715E+01 -0.10135248606E+02  0.13646688267E+02  0.17770000000E+01 0. -1.
</event>
<event>
 6    1  0.8353910E-003  0.1846735E+03  0.7546771E-02  0.1066738E+00
        -11   -1    0    0    0    0  0.00000000000E+00  0.00000000000E+00  0.18250000000E+03  0.18250000000E+03  0.00000000000E+00 0. -1.
         11   -1    0    0    0    0 -0.00000000000E+00 -0.00000000000E+00 -0.18250000000E+03  0.18250000000E+03  0.00000000000E+00 0.  1.
        -11    1    1    2    0    0  0.28253675906E+01 -0.10432118222E+01  0.17148631852E+03  0.17151276464E+03  0.00000000000E+00 0. -1.
         11    1    1    2    0    0  0.27768267848E+01  0.13207410666E+00 -0.18030508434E+03  0.18032651399E+03  0.00000000000E+00 0.  1.
        -15    1    1    2    0    0 -0.29716648756E+01  0.16849237241E+01  0.10234509090E+00  0.38520077371E+01  0.17770000000E+01 0.  1.
         15    1    1    2    0    0 -0.26305294997E+01 -0.77378600859E+00  0.87164207238E+01  0.93087136314E+01  0.17770000000E+01 0. -1.
</event>
<event>
 6    1  0.8353910E-003  0.1828169E+03  0.7546771E-02  0.1068203E+00
        -11   -1    0    0    0    0  0.00000000000E+00  0.00000000000E+00  0.18250000000E+03  0.18250000000E+03  0.00000000000E+00 0. -1.
         11   -1    0    0    0    0 -0.00000000000E+00 -0.00000000000E+00 -0.18250000000E+03  0.18250000000E+03  0.00000000000E+00 0. -1.
        -11    1    1    2    0    0  0.22818601793E+01  0.16622361635E+01  0.18216125390E+03  0.18218312857E+03  0.00000000000E+00 0. -1.
         11    1    1    2    0    0  0.29121226020E+01  0.58899770868E-01 -0.13233581684E+03  0.13236786750E+03  0.00000000000E+00 0. -1.
        -15    1    1    2    0    0 -0.38607172306E+00  0.65864504391E+00 -0.19968039653E+02  0.20061485520E+02  0.17770000000E+01 0. -1.
         15    1    1    2    0    0 -0.48079110582E+01 -0.23797809783E+01 -0.29857397402E+02  0.30387518406E+02  0.17770000000E+01 0. -1.
</event>
<event>
 6    1  0.8353910E-003  0.1829292E+03  0.7546771E-02  0.1068114E+00
        -11   -1    0    0    0    0  0.00000000000E+00  0.00000000000E+00  0.18250000000E+03  0.18250000000E+03  0.00000000000E+00 0. -1.
         11   -1    0    0    0    0 -0.00000000000E+00 -0.00000000000E+00 -0.18250000000E+03  0.18250000000E+03  0.00000000000E+00 0.  1.
        -11    1    1    2    0    0  0.18532454226E+01  0.85713053611E+00  0.13994393233E+03  0.13995882747E+03  0.00000000000E+00 0. -1.
         11    1    1    2    0    0  0.70546343348E+00 -0.42410137971E+01 -0.18201998842E+03  0.18207075565E+03  0.00000000000E+00 0.  1.
        -15    1    1    2    0    0 -0.99842603355E+00 -0.10701481913E+01  0.26467728842E+02  0.26567658360E+02  0.17770000000E+01 0. -1.
         15    1    1    2    0    0 -0.15602828225E+01  0.44540314522E+01  0.15608327246E+02  0.16402758520E+02  0.17770000000E+01 0.  1.
</event>
<event>
 6    1  0.8353910E-003  0.1860755E+03  0.7546771E-02  0.1065644E+00
        -11   -1    0    0    0    0  0.00000000000E+00  0.00000000000E+00  0.18250000000E+03  0.18250000000E+03  0.00000000000E+00 0.  1.
         11   -1    0    0    0    0 -0.00000000000E+00 -0.00000000000E+00 -0.18250000000E+03  0.18250000000E+03  0.00000000000E+00 0. -1.
        -11    1    1    2    0    0 -0.21746456124E+01  0.36751726706E+01  0.17670269471E+03  0.17675428792E+03  0.00000000000E+00 0.  1.
         11    1    1    2    0    0  0.54429839015E+00 -0.34396985061E+01 -0.17889061030E+03  0.17892450430E+03  0.00000000000E+00 0. -1.
        -15    1    1    2    0    0 -0.12862759239E+00  0.28715174228E+01 -0.16726371922E+01  0.37706234954E+01  0.17770000000E+01 0.  1.
         15    1    1    2    0    0  0.17589748147E+01 -0.31069915873E+01  0.38605527811E+01  0.55505842844E+01  0.17770000000E+01 0.  1.
</event>
<event>
 6    1  0.8353910E-003  0.1836114E+03  0.7546771E-02  0.1067574E+00
        -11   -1    0    0    0    0  0.00000000000E+00  0.00000000000E+00  0.18250000000E+03  0.18250000000E+03  0.00000000000E+00 0.  1.
         11   -1    0    0    0    0 -0.00000000000E+00 -0.00000000000E+00 -0.18250000000E+03  0.18250000000E+03  0.00000000000E+00 0. -1.
        -11    1    1    2    0    0  0.13939367956E+00 -0.25346846662E+01  0.16786851019E+03  0.16788770286E+03  0.00000000000E+00 0.  1.
         11    1    1    2    0    0  0.31456780720E+01  0.26836197968E+01 -0.18134148129E+03  0.18138861580E+03  0.00000000000E+00 0. -1.
        -15    1    1    2    0    0 -0.46861682350E+01 -0.37372961068E+00  0.12011451076E+02  0.13020465909E+02  0.17770000000E+01 0. -1.
         15    1    1    2    0    0  0.14010964835E+01  0.22479448012E+00  0.14615200188E+01  0.27032154335E+01  0.17770000000E+01 0. -1.
</event>
<event>
 6    1  0.8353910E-003  0.1829410E+03  0.7546771E-02  0.1068104E+00
        -11   -1    0    0    0    0  0.00000000000E+00  0.00000000000E+00  0.18250000000E+03  0.18250000000E+03  0.00000000000E+00 0.  1.
         11   -1    0    0    0    0 -0.00000000000E+00 -0.00000000000E+00 -0.18250000000E+03  0.18250000000E+03  0.00000000000E+00 0.  1.
        -11    1    1    2    0    0 -0.12335372682E+01  0.89841371594E-01  0.25348917522E+02  0.25379072189E+02  0.00000000000E+00 0.  1.
         11    1    1    2    0    0 -0.25211577208E+01 -0.15569489239E+01 -0.18203491367E+03  0.18205902922E+03  0.00000000000E+00 0.  1.
        -15    1    1    2    0    0  0.74266453060E+00 -0.32912669092E+01  0.13589598136E+03  0.13594947395E+03  0.17770000000E+01 0.  1.
         15    1    1    2    0    0  0.30120304584E+01  0.47583744615E+01  0.20790014789E+02  0.21612424642E+02  0.17770000000E+01 0. -1.
</event>
<event>
 6    1  0.8353910E-003  0.1828666E+03  0.7546771E-02  0.1068163E+00
        -11   -1    0    0    0    0  0.00000000000E+00  0.00000000000E+00  0.18250000000E+03  0.18250000000E+03  0.00000000000E+00 0.  1.
         11   -1    0    0    0    0 -0.00000000000E+00 -0.00000000000E+00 -0.18250000000E+03  0.18250000000E+03  0.00000000000E+00 0.  1.
        -11    1    1    2    0    0  0.15532008504E+01  0.32786603453E+01  0.95850066217E+02  0.95918701202E+02  0.00000000000E+00 0.  1.
         11    1    1    2    0    0 -0.25233534998E+01  0.32785323390E+00 -0.18211566824E+03  0.18213344398E+03  0.00000000000E+00 0.  1.
        -15    1    1    2    0    0 -0.31493059025E+01  0.16301234401E+01  0.33193757547E+02  0.33429907257E+02  0.17770000000E+01 0. -1.
         15    1    1    2    0    0  0.41194585519E+01 -0.52366370192E+01  0.53071844472E+02  0.53517947557E+02  0.17770000000E+01 0.  1.
</event>
<event>
 6    1  0.8353910E-003  0.1828346E+03  0.7546771E-02  0.1068189E+00
        -11   -1    0    0    0    0  0.00000000000E+00  0.00000000000E+00  0.18250000000E+03  0.18250000000E+03  0.00000000000E+00 0. -1.
         11   -1    0    0    0    0 -0.00000000000E+00 -0.00000000000E+00 -0.18250000000E+03  0.18250000000E+03  0.00000000000E+00 0.  1.
        -11    1    1    2    0    0 -0.29432848668E+01 -0.19907644452E+01  0.18213076072E+03  0.18216541952E+03  0.00000000000E+00 0. -1.
         11    1    1    2    0    0  0.19263291874E+01 -0.20584652034E+01 -0.14789143343E+03  0.14791830213E+03  0.00000000000E+00 0.  1.
        -15    1    1    2    0    0 -0.12081999938E+01  0.32277557034E+01 -0.19145713106E+02  0.19534436604E+02  0.17770000000E+01 0.  1.
         15    1    1    2    0    0  0.22251556731E+01  0.82147394516E+00 -0.15093614184E+02  0.15381841741E+02  0.17770000000E+01 0. -1.
</event>
<event>
 6    1  0.8353910E-003  0.1886454E+03  0.7546771E-02  0.1063666E+00
        -11   -1    0    0    0    0  0.00000000000E+00  0.00000000000E+00  0.18250000000E+03  0.18250000000E+03  0.00000000000E+00 0. -1.
         11   -1    0    0    0    0 -0.00000000000E+00 -0.00000000000E+00 -0.18250000000E+03  0.18250000000E+03  0.00000000000E+00 0. -1.
        -11    1    1    2    0    0  0.48271612405E+01  0.30366293392E+02  0.17365348745E+03  0.17635460573E+03  0.00000000000E+00 0. -1.
         11    1    1    2    0    0 -0.25783306601E+01  0.57034027923E+00 -0.66940383718E+02  0.66992447704E+02  0.00000000000E+00 0. -1.
        -15    1    1    2    0    0  0.12223977713E+02  0.64866850520E+01 -0.10715610369E+02  0.17592178622E+02  0.17770000000E+01 0.  1.
         15    1    1    2    0    0 -0.14472808294E+02 -0.37423318723E+02 -0.95997493361E+02  0.10406076794E+03  0.17770000000E+01 0. -1.
</event>
<event>
 6    1  0.8353910E-003  0.1902831E+03  0.7546771E-02  0.1062423E+00
        -11   -1    0    0    0    0  0.00000000000E+00  0.00000000000E+00  0.18250000000E+03  0.18250000000E+03  0.00000000000E+00 0. -1.
         11   -1    0    0    0    0 -0.00000000000E+00 -0.00000000000E+00 -0.18250000000E+03  0.18250000000E+03  0.00000000000E+00 0. -1.
        -11    1    1    2    0    0 -0.89453585393E+00  0.21045810300E+01  0.98044054977E+02  0.98070720259E+02  0.00000000000E+00 0. -1.
         11    1    1    2    0    0  0.23785909241E+01  0.42299694474E+01 -0.17464954013E+03  0.17471694881E+03  0.00000000000E+00 0. -1.
        -15    1    1    2    0    0 -0.11278591409E+01 -0.59428599400E+01 -0.65179990216E+01  0.90681690959E+01  0.17770000000E+01 0.  1.
         15    1    1    2    0    0 -0.35619592924E+00 -0.39169053748E+00  0.83123484171E+02  0.83144161832E+02  0.17770000000E+01 0. -1.
</event>
<event>
 6    1  0.8353910E-003  0.2034369E+03  0.7546771E-02  0.1052912E+00
        -11   -1    0    0    0    0  0.00000000000E+00  0.00000000000E+00  0.18250000000E+03  0.18250000000E+03  0.00000000000E+00 0. -1.
         11   -1    0    0    0    0 -0.00000000000E+00 -0.00000000000E+00 -0.18250000000E+03  0.18250000000E+03  0.00000000000E+00 0. -1.
        -11    1    1    2    0    0 -0.81796569039E+00 -0.16255762337E+01  0.12581696133E+03  0.12583012089E+03  0.00000000000E+00 0. -1.
         11    1    1    2    0    0  0.40096859803E+00 -0.97314658549E+01 -0.16126922784E+03  0.16156307143E+03  0.00000000000E+00 0. -1.
        -15    1    1    2    0    0 -0.56512128329E+01 -0.16240921433E+02 -0.12903277155E+02  0.21572112224E+02  0.17770000000E+01 0. -1.
         15    1    1    2    0    0  0.60682099253E+01  0.27597963522E+02  0.48355543664E+02  0.56034695451E+02  0.17770000000E+01 0.  1.
</event>
<event>
 6    1  0.8353910E-003  0.1854174E+03  0.7546771E-02  0.1066156E+00
        -11   -1    0    0    0    0  0.00000000000E+00  0.00000000000E+00  0.18250000000E+03  0.18250000000E+03  0.00000000000E+00 0. -1.
         11   -1    0    0    0    0 -0.00000000000E+00 -0.00000000000E+00 -0.18250000000E+03  0.18250000000E+03  0.00000000000E+00 0.  1.
        -11    1    1    2    0    0 -0.31383319660E+01  0.15052722893E+01  0.17171181448E+03  0.17174708790E+03  0.00000000000E+00 0. -1.
         11    1    1    2    0    0 -0.31531664580E+01 -0.22887077995E+01 -0.17954028216E+03  0.17958255361E+03  0.00000000000E+00 0.  1.
        -15    1    1    2    0    0  0.16150664057E+01  0.37790737207E+01  0.81751133949E+00  0.45514713524E+01  0.17770000000E+01 0.  1.
         15    1    1    2    0    0  0.46764320183E+01 -0.29956382106E+01  0.70109563445E+01  0.91188871347E+01  0.17770000000E+01 0. -1.
</event>
<event>
 6    1  0.8353910E-003  0.1835094E+03  0.7546771E-02  0.1067654E+00
        -11   -1    0    0    0    0  0.00000000000E+00  0.00000000000E+00  0.18250000000E+03  0.18250000000E+03  0.00000000000E+00 0.  1.
         11   -1    0    0    0    0 -0.00000000000E+00 -0.00000000000E+00 -0.18250000000E+03  0.18250000000E+03  0.00000000000E+00 0. -1.
        -11    1    1    2    0    0  0.20523140399E+01  0.35084831703E+01  0.14825493575E+03  0.14831064501E+03  0.00000000000E+00 0.  1.
         11    1    1    2    0    0  0.28620569309E+01  0.17783647495E+01 -0.18145935882E+03  0.18149064123E+03  0.00000000000E+00 0. -1.
        -15    1    1    2    0    0 -0.51509745696E+01 -0.61440484431E+01  0.17073010038E+02  0.18945375981E+02  0.17770000000E+01 0. -1.
         15    1    1    2    0    0  0.23660359882E+00  0.85720052326E+00  0.16131413025E+02  0.16253337786E+02  0.17770000000E+01 0. -1.
</event>
<event>
 6    1  0.8353910E-003  0.1889359E+03  0.7546771E-02  0.1063444E+00
        -11   -1    0    0    0    0  0.00000000000E+00  0.00000000000E+00  0.18250000000E+03  0.18250000000E+03  0.00000000000E+00 0.  1.
         11   -1    0    0    0    0 -0.00000000000E+00 -0.00000000000E+00 -0.18250000000E+03  0.18250000000E+03  0.00000000000E+00 0. -1.
        -11    1    1    2    0    0 -0.41508103964E+00  0.42597130734E+01  0.17601211963E+03  0.17606414656E+03  0.00000000000E+00 0.  1.
         11    1    1    2    0    0  0.28175928690E+01  0.27781560170E+01 -0.12811229520E+03  0.12817338710E+03  0.00000000000E+00 0. -1.
        -15    1    1    2    0    0 -0.33183505307E+01 -0.48789908634E+01 -0.53809305669E+02  0.54161010955E+02  0.17770000000E+01 0. -1.
         15    1    1    2    0    0  0.91583870140E+00 -0.21588782270E+01  0.59094812372E+01  0.66014553865E+01  0.17770000000E+01 0.  1.
</event>
<event>
 6    1  0.8353910E-003  0.1853734E+03  0.7546771E-02  0.1066190E+00
        -11   -1    0    0    0    0  0.00000000000E+00  0.00000000000E+00  0.18250000000E+03  0.18250000000E+03  0.00000000000E+00 0. -1.
         11   -1    0    0    0    0 -0.00000000000E+00 -0.00000000000E+00 -0.18250000000E+03  0.18250000000E+03  0.00000000000E+00 0.  1.
        -11    1    1    2    0    0  0.19989266023E+01 -0.78678341934E+01  0.17944309474E+03  0.17962662044E+03  0.00000000000E+00 0. -1.
         11    1    1    2    0    0  0.27370418984E+01 -0.24559625319E+00 -0.17059381377E+03  0.17061594595E+03  0.00000000000E+00 0.  1.
        -15    1    1    2    0    0  0.11975208686E+01  0.33767281918E+01 -0.26740786772E+01  0.48109017121E+01  0.17770000000E+01 0.  1.
         15    1    1    2    0    0 -0.59334893693E+01  0.47367022548E+01 -0.61752022872E+01  0.99465318898E+01  0.17770000000E+01 0. -1.
</event>
<event>
 6    1  0.8353910E-003  0.1856207E+03  0.7546771E-02  0.1065998E+00
        -11   -1    0    0    0    0  0.00000000000E+00  0.00000000000E+00  0.18250000000E+03  0.18250000000E+03  0.00000000000E+00 0.  1.
         11   -1    0    0    0    0 -0.00000000000E+00 -0.00000000000E+00 -0.18250000000E+03  0.18250000000E+03  0.00000000000E+00 0. -1.
        -11    1    1    2    0    0 -0.25669058265E+01  0.57675145827E+00  0.17936001915E+03  0.17937931351E+03  0.00000000000E+00 0.  1.
         11    1    1    2    0    0  0.51592473649E+01 -0.24554030651E+01 -0.17605820290E+03  0.17615089453E+03  0.00000000000E+00 0. -1.
        -15    1    1    2    0    0 -0.45086854993E+00 -0.25337658555E+01  0.28291965771E+00  0.31402268059E+01  0.17770000000E+01 0.  1.
         15    1    1    2    0    0 -0.21414729885E+01  0.44124174623E+01 -0.35847359092E+01  0.63295651478E+01  0.17770000000E+01 0. -1.
</event>
<event>
 6    1  0.8353910E-003  0.1839838E+03  0.7546771E-02  0.1067280E+00
        -11   -1    0    0    0    0  0.00000000000E+00  0.00000000000E+00  0.18250000000E+03  0.18250000000E+03  0.00000000000E+00 0. -1.
         11   -1    0    0    0    0 -0.00000000000E+00 -0.00000000000E+00 -0.18250000000E+03  0.18250000000E+03  0.00000000000E+00 0.  1.
        -11    1    1    2    0    0  0.20545946110E-01  0.36801348626E+01  0.18097876616E+03  0.18101618053E+03  0.00000000000E+00 0. -1.
         11    1    1    2    0    0 -0.20592574118E+01 -0.20453261723E+01 -0.49614188743E+02  0.49699010300E+02  0.00000000000E+00 0.  1.
        -15    1    1    2    0    0  0.36534056217E+01  0.65282372248E+01 -0.11915482763E+03  0.11940266300E+03  0.17770000000E+01 0.  1.
         15    1    1    2    0    0 -0.16146941559E+01 -0.81630459152E+01 -0.12209749781E+02  0.14882146167E+02  0.17770000000E+01 0. -1.
</event>
<event>
 6    1  0.8353910E-003  0.1838589E+03  0.7546771E-02  0.1067378E+00
        -11   -1    0    0    0    0  0.00000000000E+00  0.00000000000E+00  0.18250000000E+03  0.18250000000E+03  0.00000000000E+00 0. -1.
         11   -1    0    0    0    0 -0.00000000000E+00 -0.00000000000E+00 -0.18250000000E+03  0.18250000000E+03  0.00000000000E+00 0. -1.
        -11    1    1    2    0    0 -0.43627646041E+01 -0.36553364155E+01  0.13960745141E+03  0.13972342570E+03  0.00000000000E+00 0. -1.
         11    1    1    2    0    0  0.96460774243E+01 -0.41140218510E+01 -0.18083725311E+03  0.18114106132E+03  0.00000000000E+00 0. -1.
        -15    1    1    2    0    0  0.36839159884E+01  0.23268657222E+01  0.84434277585E+01  0.96661648244E+01  0.17770000000E+01 0. -1.
         15    1    1    2    0    0 -0.89672288086E+01  0.54424925443E+01  0.32786373938E+02  0.34469348161E+02  0.17770000000E+01 0.  1.
</event>
<event>
 6    1  0.8353910E-003  0.1834809E+03  0.7546771E-02  0.1067677E+00
        -11   -1    0    0    0    0  0.00000000000E+00  0.00000000000E+00  0.18250000000E+03  0.18250000000E+03  0.00000000000E+00 0. -1.
         11   -1    0    0    0    0 -0.00000000000E+00 -0.00000000000E+00 -0.18250000000E+03  0.18250000000E+03  0.00000000000E+00 0. -1.
        -11    1    1    2    0    0  0.65577389088E+00 -0.46858485953E+00  0.45764903440E+02  0.45772000154E+02  0.00000000000E+00 0. -1.
         11    1    1    2    0    0 -0.48586197938E+00  0.71523181514E+01 -0.18137752859E+03  0.18151914388E+03  0.00000000000E+00 0. -1.
        -15    1    1    2    0    0 -0.28386792626E+01 -0.14079697194E+02  0.10728011375E+03  0.10825191226E+03  0.17770000000E+01 0. -1.
         15    1    1    2    0    0  0.26687673511E+01  0.73959639020E+01  0.28332511399E+02  0.29456943704E+02  0.17770000000E+01 0.  1.
</event>
<event>
 6    1  0.8353910E-003  0.1875500E+03  0.7546771E-02  0.1064505E+00
        -11   -1    0    0    0    0  0.00000000000E+00  0.00000000000E+00  0.18250000000E+03  0.18250000000E+03  0.00000000000E+00 0.  1.
         11   -1    0    0    0    0 -0.00000000000E+00 -0.00000000000E+00 -0.18250000000E+03  0.18250000000E+03  0.00000000000E+00 0.  1.
        -11    1    1    2    0    0  0.26152484722E+01  0.27875889032E+01  0.16952677647E+03  0.16956986205E+03  0.00000000000E+00 0.  1.
         11    1    1    2    0    0 -0.12217287097E+01 -0.20788371787E+01 -0.17743358607E+03  0.17744996943E+03  0.00000000000E+00 0.  1.
        -15    1    1    2    0    0 -0.12742749951E+01 -0.21209292269E-02  0.12664110122E+02  0.12851505572E+02  0.17770000000E+01 0. -1.
         15    1    1    2    0    0 -0.11924476747E+00 -0.70663079529E+00 -0.47573005222E+01  0.51286629499E+01  0.17770000000E+01 0.  1.
</event>
<event>
 6    1  0.8353910E-003  0.1844110E+03  0.7546771E-02  0.1066944E+00
        -11   -1    0    0    0    0  0.00000000000E+00  0.00000000000E+00  0.18250000000E+03  0.18250000000E+03  0.00000000000E+00 0. -1.
         11   -1    0    0    0    0 -0.00000000000E+00 -0.00000000000E+00 -0.18250000000E+03  0.18250000000E+03  0.00000000000E+00 0. -1.
        -11    1    1    2    0    0  0.30596084142E+01  0.34797400920E+00  0.18056274003E+03  0.18058899572E+03  0.00000000000E+00 0. -1.
         11    1    1    2    0    0 -0.11797545705E+01 -0.39348628508E+01 -0.16986871523E+03  0.16991837859E+03  0.00000000000E+00 0. -1.
        -15    1    1    2    0    0 -0.26669306776E+01  0.66796007901E-02 -0.17177993385E+00  0.32093303354E+01  0.17770000000E+01 0. -1.
         15    1    1    2    0    0  0.78707683392E+00  0.35802092408E+01 -0.10522244862E+02  0.11283295356E+02  0.17770000000E+01 0. -1.
</event>
<event>
 6    1  0.8353910E-003  0.1827008E+03  0.7546771E-02  0.1068295E+00
        -11   -1    0    0    0    0  0.00000000000E+00  0.00000000000E+00  0.18250000000E+03  0.18250000000E+03  0.00000000000E+00 0. -1.
         11   -1    0    0    0    0 -0.00000000000E+00 -0.00000000000E+00 -0.18250000000E+03  0.18250000000E+03  0.00000000000E+00 0.  1.
        -11    1    1    2    0    0  0.59129368840E+01  0.23116932542E+01  0.18218858097E+03  0.18229916561E+03  0.00000000000E+00 0. -1.
         11    1    1    2    0    0 -0.57330337517E+01 -0.34699947595E+00 -0.66933590656E+02  0.67179562686E+02  0.00000000000E+00 0.  1.
        -15    1    1    2    0    0  0.95936528814E+00 -0.40525698268E+01 -0.52042989505E+02  0.52239584508E+02  0.17770000000E+01 0.  1.
         15    1    1    2    0    0 -0.11392684205E+01  0.20878760485E+01 -0.63212000807E+02  0.63281687192E+02  0.17770000000E+01 0. -1.
</event>
<event>
 6    1  0.8353910E-003  0.1920811E+03  0.7546771E-02  0.1061074E+00
        -11   -1    0    0    0    0  0.00000000000E+00  0.00000000000E+00  0.18250000000E+03  0.18250000000E+03  0.00000000000E+00 0. -1.
         11   -1    0    0    0    0 -0.00000000000E+00 -0.00000000000E+00 -0.18250000000E+03  0.18250000000E+03  0.00000000000E+00 0. -1.
        -11    1    1    2    0    0  0.11830649981E+02 -0.72184491757E+01  0.15539681758E+03  0.15601359300E+03  0.00000000000E+00 0. -1.
         11    1    1    2    0    0 -0.14365994643E+01  0.35497036094E+01 -0.17287648320E+03  0.17291889040E+03  0.00000000000E+00 0. -1.
        -15    1    1    2    0    0 -0.19708105824E+02 -0.28634674179E+01  0.11964063094E+02  0.23300330803E+02  0.17770000000E+01 0.  1.
         15    1    1    2    0    0  0.93140553072E+01  0.65322129841E+01  0.55156025292E+01  0.12767185790E+02  0.17770000000E+01 0. -1.
</event>
<event>
 6    1  0.8353910E-003  0.1939047E+03  0.7546771E-02  0.1059723E+00
        -11   -1    0    0    0    0  0.00000000000E+00  0.00000000000E+00  0.18250000000E+03  0.18250000000E+03  0.00000000000E+00 0. -1.
         11   -1    0    0    0    0 -0.00000000000E+00 -0.00000000000E+00 -0.18250000000E+03  0.18250000000E+03  0.00000000000E+00 0.  1.
        -11    1    1    2    0    0  0.14324745937E+01 -0.32983817322E+01  0.16077021502E+03  0.16081042672E+03  0.00000000000E+00 0. -1.
         11    1    1    2    0    0  0.44452710130E+01 -0.10166464170E+02 -0.17073513682E+03  0.17109530786E+03  0.00000000000E+00 0.  1.
        -15    1    1    2    0    0  0.53453288022E+01 -0.10863745255E+01  0.13161452192E+02  0.14357377979E+02  0.17770000000E+01 0. -1.
         15    1    1    2    0    0 -0.11223074409E+02  0.14551220428E+02 -0.31965303916E+01  0.18736887433E+02  0.17770000000E+01 0.  1.
</event>
<event>
 6    1  0.8353910E-003  0.1879162E+03  0.7546771E-02  0.1064223E+00
        -11   -1    0    0    0    0  0.00000000000E+00  0.00000000000E+00  0.18250000000E+03  0.18250000000E+03  0.00000000000E+00 0. -1.
         11   -1    0    0    0    0 -0.00000000000E+00 -0.00000000000E+00 -0.18250000000E+03  0.18250000000E+03  0.00000000000E+00 0. -1.
        -11    1    1    2    0    0  0.37586368947E+01 -0.14116012020E+01  0.17050315763E+03  0.17055042284E+03  0.00000000000E+00 0. -1.
         11    1    1    2    0    0 -0.14081994866E+01  0.46633166355E+01 -0.17701679251E+03  0.17708380609E+03  0.00000000000E+00 0. -1.
        -15    1    1    2    0    0  0.13814299717E+01 -0.26034391213E+01 -0.44531449224E+01  0.56280078824E+01  0.17770000000E+01 0.  1.
         15    1    1    2    0    0 -0.37318673798E+01 -0.64827631222E+00  0.10966779809E+02  0.11737763189E+02  0.17770000000E+01 0.  1.
</event>
<event>
 6    1  0.8353910E-003  0.1865428E+03  0.7546771E-02  0.1065282E+00
        -11   -1    0    0    0    0  0.00000000000E+00  0.00000000000E+00  0.18250000000E+03  0.18250000000E+03  0.00000000000E+00 0.  1.
         11   -1    0    0    0    0 -0.00000000000E+00 -0.00000000000E+00 -0.18250000000E+03  0.18250000000E+03  0.00000000000E+00 0. -1.
        -11    1    1    2    0    0 -0.37567407755E+01  0.10723994728E+00  0.13570002080E+03  0.13575205430E+03  0.00000000000E+00 0.  1.
         11    1    1    2    0    0 -0.43996319014E+01  0.55242409358E+01 -0.17831741693E+03  0.17845720825E+03  0.00000000000E+00 0. -1.
        -15    1    1    2    0    0  0.31145586352E+01  0.41422746432E+01  0.38540517878E+02  0.38927986874E+02  0.17770000000E+01 0.  1.
         15    1    1    2    0    0  0.50418140417E+01 -0.97737555263E+01  0.40768782490E+01  0.11862750574E+02  0.17770000000E+01 0. -1.
</event>
<event>
 6    1  0.8353910E-003  0.1584442E+03  0.7546771E-02  0.1089399E+00
        -11   -1    0    0    0    0  0.00000000000E+00  0.00000000000E+00  0.18250000000E+03  0.18250000000E+03  0.00000000000E+00 0. -1.
         11   -1    0    0    0    0 -0.00000000000E+00 -0.00000000000E+00 -0.18250000000E+03  0.18250000000E+03  0.00000000000E+00 0. -1.
        -11    1    1    2    0    0 -0.39174067042E+01 -0.53646828658E+01  0.15633201952E+03  0.15647308467E+03  0.00000000000E+00 0. -1.
         11    1    1    2    0    0 -0.36416275104E+01 -0.10476164811E+01 -0.16055365677E+03  0.16059836753E+03  0.00000000000E+00 0. -1.
        -15    1    1    2    0    0 -0.32229177113E+01 -0.80090505497E+01 -0.17538394033E+02  0.19628680127E+02  0.17770000000E+01 0. -1.
         15    1    1    2    0    0  0.10781951926E+02  0.14421349897E+02  0.21760031280E+02  0.28299867676E+02  0.17770000000E+01 0.  1.
</event>
<event>
 6    1  0.8353910E-003  0.1830680E+03  0.7546771E-02  0.1068004E+00
        -11   -1    0    0    0    0  0.00000000000E+00  0.00000000000E+00  0.18250000000E+03  0.18250000000E+03  0.00000000000E+00 0.  1.
         11   -1    0    0    0    0 -0.00000000000E+00 -0.00000000000E+00 -0.18250000000E+03  0.18250000000E+03  0.00000000000E+00 0.  1.
        -11    1    1    2    0    0  0.58824665558E+01 -0.69362699705E+00  0.18183556649E+03  0.18193201415E+03  0.00000000000E+00 0.  1.
         11    1    1    2    0    0 -0.38608266552E+00 -0.45649963755E+01 -0.82135599032E+02  0.82263265679E+02  0.00000000000E+00 0.  1.
        -15    1    1    2    0    0 -0.64173473901E+01  0.84855733808E+01 -0.63905055970E+02  0.64808959340E+02  0.17770000000E+01 0.  1.
         15    1    1    2    0    0  0.92096349975E+00 -0.32269500083E+01 -0.35794911491E+02  0.35995760830E+02  0.17770000000E+01 0. -1.
</event>
<event>
 6    1  0.8353910E-003  0.2013925E+03  0.7546771E-02  0.1054338E+00
        -11   -1    0    0    0    0  0.00000000000E+00  0.00000000000E+00  0.18250000000E+03  0.18250000000E+03  0.00000000000E+00 0.  1.
         11   -1    0    0    0    0 -0.00000000000E+00 -0.00000000000E+00 -0.18250000000E+03  0.18250000000E+03  0.00000000000E+00 0.  1.
        -11    1    1    2    0    0  0.21586795806E+01  0.42760328007E+01  0.16353737361E+03  0.16360750876E+03  0.00000000000E+00 0.  1.
         11    1    1    2    0    0  0.28058930567E+01 -0.81581392935E+01 -0.14315327518E+03  0.14341299964E+03  0.00000000000E+00 0.  1.
        -15    1    1    2    0    0 -0.87799299400E+01  0.74795651356E+01  0.16761270313E+02  0.20423735601E+02  0.17770000000E+01 0. -1.
         15    1    1    2    0    0  0.38153573026E+01 -0.35974586428E+01 -0.37145368749E+02  0.37555755997E+02  0.17770000000E+01 0.  1.
</event>
<event>
 6    1  0.8353910E-003  0.1847829E+03  0.7546771E-02  0.1066652E+00
        -11   -1    0    0    0    0  0.00000000000E+00  0.00000000000E+00  0.18250000000E+03  0.18250000000E+03  0.00000000000E+00 0. -1.
         11   -1    0    0    0    0 -0.00000000000E+00 -0.00000000000E+00 -0.18250000000E+03  0.18250000000E+03  0.00000000000E+00 0. -1.
        -11    1    1    2    0    0 -0.25331235049E+01 -0.15775246925E+01  0.14941104665E+03  0.14944084502E+03  0.00000000000E+00 0. -1.
         11    1    1    2    0    0  0.25972394253E+01 -0.32564177033E+01 -0.18016892068E+03  0.18021706326E+03  0.00000000000E+00 0. -1.
        -15    1    1    2    0    0  0.38046559256E+01  0.44994911975E+01  0.30444244700E+02  0.31060112558E+02  0.17770000000E+01 0.  1.
         15    1    1    2    0    0 -0.38687718459E+01  0.33445119829E+00  0.31362932988E+00  0.42819791635E+01  0.17770000000E+01 0. -1.
</event>
<event>
 6    1  0.8353910E-003  0.1850051E+03  0.7546771E-02  0.1066478E+00
        -11   -1    0    0    0    0  0.00000000000E+00  0.00000000000E+00  0.18250000000E+03  0.18250000000E+03  0.00000000000E+00 0.  1.
         11   -1    0    0    0    0 -0.00000000000E+00 -0.00000000000E+00 -0.18250000000E+03  0.18250000000E+03  0.00000000000E+00 0. -1.
        -11    1    1    2    0    0 -0.10356250563E-01  0.23747845528E+01  0.17425223133E+03  0.17426841318E+03  0.00000000000E+00 0.  1.
         11    1    1    2    0    0  0.20829265220E+01  0.45057806678E+01 -0.17992647457E+03  0.17999493574E+03  0.00000000000E+00 0. -1.
        -15    1    1    2    0    0 -0.33255981956E-01 -0.53598588894E+01  0.21533662070E+01  0.60435013275E+01  0.17770000000E+01 0.  1.
         15    1    1    2    0    0 -0.20393142895E+01 -0.15207063311E+01  0.35208770271E+01  0.46931497480E+01  0.17770000000E+01 0. -1.
</event>
<event>
 6    1  0.8353910E-003  0.1838803E+03  0.7546771E-02  0.1067361E+00
        -11   -1    0    0    0    0  0.00000000000E+00  0.00000000000E+00  0.18250000000E+03  0.18250000000E+03  0.00000000000E+00 0. -1.
         11   -1    0    0    0    0 -0.00000000000E+00 -0.00000000000E+00 -0.18250000000E+03  0.18250000000E+03  0.00000000000E+00 0. -1.
        -11    1    1    2    0    0 -0.31692403563E+01 -0.23786972445E+01  0.18107639169E+03  0.18111974468E+03  0.00000000000E+00 0. -1.
         11    1    1    2    0    0 -0.35048914200E+01 -0.59625866889E+00 -0.16526179111E+03  0.16530002840E+03  0.00000000000E+00 0. -1.
        -15    1    1    2    0    0  0.91324608558E+00  0.23383173290E+01 -0.87299912270E+01  0.92559290278E+01  0.17770000000E+01 0. -1.
         15    1    1    2    0    0  0.57608856907E+01  0.63663858441E+00 -0.70846093534E+01  0.93242978995E+01  0.17770000000E+01 0.  1.
</event>
<event>
 6    1  0.8353910E-003  0.1855181E+03  0.7546771E-02  0.1066077E+00
        -11   -1    0    0    0    0  0.00000000000E+00  0.00000000000E+00  0.18250000000E+03  0.18250000000E+03  0.00000000000E+00 0.  1.
         11   -1    0    0    0    0 -0.00000000000E+00 -0.00000000000E+00 -0.18250000000E+03  0.18250000000E+03  0.00000000000E+00 0.  1.
        -11    1    1    2    0    0 -0.16501080695E+01 -0.49565995435E+01  0.17940589172E+03  0.17948193424E+03  0.00000000000E+00 0.  1.
         11    1    1    2    0    0 -0.53661404329E+01 -0.11874956507E+02 -0.13971563728E+03  0.14032202021E+03  0.00000000000E+00 0.  1.
        -15    1    1    2    0    0 -0.97048368741E+00 -0.67039016734E+00 -0.58832442394E+01  0.62579192504E+01  0.17770000000E+01 0. -1.
         15    1    1    2    0    0  0.79867321899E+01  0.17501946218E+02 -0.33807010192E+02  0.38938126298E+02  0.17770000000E+01 0.  1.
</event>
<event>
 6    1  0.8353910E-003  0.1770353E+03  0.7546771E-02  0.1072890E+00
        -11   -1    0    0    0    0  0.00000000000E+00  0.00000000000E+00  0.18250000000E+03  0.18250000000E+03  0.00000000000E+00 0. -1.
         11   -1    0    0    0    0 -0.00000000000E+00 -0.00000000000E+00 -0.18250000000E+03  0.18250000000E+03  0.00000000000E+00 0. -1.
        -11    1    1    2    0    0  0.50362766451E+01  0.22828974337E+01  0.17784830510E+03  0.17793424440E+03  0.00000000000E+00 0. -1.
         11    1    1    2    0    0 -0.71221592634E+00 -0.46976566292E+01 -0.17611123639E+03  0.17617531840E+03  0.00000000000E+00 0. -1.
        -15    1    1    2    0    0 -0.62229670351E+00  0.17012832777E+01 -0.49935600078E+01  0.56013381017E+01  0.17770000000E+01 0. -1.
         15    1    1    2    0    0 -0.37017640153E+01  0.71347591773E+00  0.32564912951E+01  0.52890990977E+01  0.17770000000E+01 0.  1.
</event>
<event>
 6    1  0.8353910E-003  0.1842472E+03  0.7546771E-02  0.1067072E+00
        -11   -1    0    0    0    0  0.00000000000E+00  0.00000000000E+00  0.18250000000E+03  0.18250000000E+03  0.00000000000E+00 0.  1.
         11   -1    0    0    0    0 -0.00000000000E+00 -0.00000000000E+00 -0.18250000000E+03  0.18250000000E+03  0.00000000000E+00 0. -1.
        -11    1    1    2    0    0 -0.36648324742E+01  0.69175044287E+00  0.17286574190E+03  0.17290596936E+03  0.00000000000E+00 0.  1.
         11    1    1    2    0    0  0.84464911053E+00  0.39936787378E+01 -0.18070666245E+03  0.18075276141E+03  0.00000000000E+00 0. -1.
        -15    1    1    2    0    0  0.43596970289E+00 -0.48818996934E+01  0.49239144442E+01  0.71711698245E+01  0.17770000000E+01 0.  1.
         15    1    1    2    0    0  0.23842136608E+01  0.19647051278E+00  0.29170061057E+01  0.41700994069E+01  0.17770000000E+01 0.  1.
</event>
<event>
 6    1  0.8353910E-003  0.1831264E+03  0.7546771E-02  0.1067957E+00
        -11   -1    0    0    0    0  0.00000000000E+00  0.00000000000E+00  0.18250000000E+03  0.18250000000E+03  0.00000000000E+00 0. -1.
         11   -1    0    0    0    0 -0.00000000000E+00 -0.00000000000E+00 -0.18250000000E+03  0.18250000000E+03  0.00000000000E+00 0.  1.
        -11    1    1    2    0    0 -0.12450976047E+01  0.22054798735E+01  0.17036038391E+03  0.17037920887E+03  0.00000000000E+00 0. -1.
         11    1    1    2    0    0  0.25212485678E+01  0.87008875561E+00 -0.18185400023E+03  0.18187355814E+03  0.00000000000E+00 0.  1.
        -15    1    1    2    0    0 -0.72790818371E+00 -0.92953805945E-01  0.31051993526E+01  0.36521887620E+01  0.17770000000E+01 0.  1.
         15    1    1    2    0    0 -0.54824277939E+00 -0.29826148232E+01  0.83884169716E+01  0.90950442339E+01  0.17770000000E+01 0. -1.
</event>
<event>
 6    1  0.8353910E-003  0.1838682E+03  0.7546771E-02  0.1067371E+00
        -11   -1    0    0    0    0  0.00000000000E+00  0.00000000000E+00  0.18250000000E+03  0.18250000000E+03  0.00000000000E+00 0.  1.
         11   -1    0    0    0    0 -0.00000000000E+00 -0.00000000000E+00 -0.18250000000E+03  0.18250000000E+03  0.00000000000E+00 0. -1.
        -11    1    1    2    0    0 -0.15373537434E+01 -0.19835146275E+01  0.16389120046E+03  0.16391041265E+03  0.00000000000E+00 0.  1.
         11    1    1    2    0    0 -0.22494269027E+01 -0.43088911059E+01 -0.18106657102E+03  0.18113180175E+03  0.00000000000E+00 0. -1.
        -15    1    1    2    0    0  0.33108150576E+01  0.48456208396E+01  0.61419389227E+01  0.86788640038E+01  0.17770000000E+01 0.  1.
         15    1    1    2    0    0  0.47596558843E+00  0.14467848939E+01  0.11033431640E+02  0.11278921603E+02  0.17770000000E+01 0. -1.
</event>
<event>
 6    1  0.8353910E-003  0.1883764E+03  0.7546771E-02  0.1063871E+00
        -11   -1    0    0    0    0  0.00000000000E+00  0.00000000000E+00  0.18250000000E+03  0.18250000000E+03  0.00000000000E+00 0. -1.
         11   -1    0    0    0    0 -0.00000000000E+00 -0.00000000000E+00 -0.18250000000E+03  0.18250000000E+03  0.00000000000E+00 0. -1.
        -11    1    1    2    0    0  0.24641208691E+01 -0.28799754898E+01  0.17658296904E+03  0.17662364255E+03  0.00000000000E+00 0. -1.
         11    1    1    2    0    0 -0.39794669202E+00  0.37369793574E+01 -0.17448235878E+03  0.17452282630E+03  0.00000000000E+00 0. -1.
        -15    1    1    2    0    0 -0.25877873471E+01  0.18704761528E+01 -0.70301639475E+01  0.79231470086E+01  0.17770000000E+01 0. -1.
         15    1    1    2    0    0  0.52161316994E+00 -0.27274800203E+01  0.49295536836E+01  0.59303841427E+01  0.17770000000E+01 0.  1.
</event>
<event>
 6    1  0.8353910E-003  0.1875350E+03  0.7546771E-02  0.1064516E+00
        -11   -1    0    0    0    0  0.00000000000E+00  0.00000000000E+00  0.18250000000E+03  0.18250000000E+03  0.00000000000E+00 0.  1.
         11   -1    0    0    0    0 -0.00000000000E+00 -0.00000000000E+00 -0.18250000000E+03  0.18250000000E+03  0.00000000000E+00 0. -1.
        -11    1    1    2    0    0 -0.34223189587E+00  0.15704405645E+01  0.60003029300E+02  0.60024552738E+02  0.00000000000E+00 0.  1.
         11    1    1    2    0    0  0.42895034112E+01  0.25468625464E+01 -0.17739489174E+03  0.17746502181E+03  0.00000000000E+00 0. -1.
        -15    1    1    2    0    0  0.43864140353E+01  0.76667773731E+01  0.11143001399E+03  0.11179367536E+03  0.17770000000E+01 0.  1.
         15    1    1    2    0    0 -0.83336855507E+01 -0.11784080484E+02  0.59618484564E+01  0.15716750101E+02  0.17770000000E+01 0. -1.
</event>
<event>
 6    1  0.8353910E-003  0.1853899E+03  0.7546771E-02  0.1066177E+00
        -11   -1    0    0    0    0  0.00000000000E+00  0.00000000000E+00  0.18250000000E+03  0.18250000000E+03  0.00000000000E+00 0.  1.
         11   -1    0    0    0    0 -0.00000000000E+00 -0.00000000000E+00 -0.18250000000E+03  0.18250000000E+03  0.00000000000E+00 0. -1.
        -11    1    1    2    0    0 -0.37047087856E+01 -0.53892451719E+01  0.17949103301E+03  0.17961013268E+03  0.00000000000E+00 0.  1.
         11    1    1    2    0    0 -0.28955312312E+01  0.69083198480E+00 -0.16408943725E+03  0.16411643662E+03  0.00000000000E+00 0. -1.
        -15    1    1    2    0    0  0.64689723604E+01  0.21114464351E+01 -0.16507447225E+02  0.17943225806E+02  0.17770000000E+01 0. -1.
         15    1    1    2    0    0  0.13126765633E+00  0.25869667520E+01  0.11058514720E+01  0.33302048963E+01  0.17770000000E+01 0.  1.
</event>
<event>
 6    1  0.8353910E-003  0.1870229E+03  0.7546771E-02  0.1064911E+00
        -11   -1    0    0    0    0  0.00000000000E+00  0.00000000000E+00  0.18250000000E+03  0.18250000000E+03  0.00000000000E+00 0.  1.
         11   -1    0    0    0    0 -0.00000000000E+00 -0.00000000000E+00 -0.18250000000E+03  0.18250000000E+03  0.00000000000E+00 0.  1.
        -11    1    1    2    0    0  0.25072971965E+01  0.47150350893E+01  0.17789697339E+03  0.17797710874E+03  0.00000000000E+00 0.  1.
         11    1    1    2    0    0 -0.50053454858E-01  0.24027494241E+01 -0.15973680158E+03  0.15975487939E+03  0.00000000000E+00 0.  1.
        -15    1    1    2    0    0 -0.38920169852E+01 -0.48026041697E+01  0.20863936871E+01  0.67619206326E+01  0.17770000000E+01 0. -1.
         15    1    1    2    0    0  0.14347732435E+01 -0.23151803437E+01 -0.20246565498E+02  0.20506091235E+02  0.17770000000E+01 0.  1.
</event>
<event>
 6    1  0.8353910E-003  0.1834244E+03  0.7546771E-02  0.1067721E+00
        -11   -1    0    0    0    0  0.00000000000E+00  0.00000000000E+00  0.18250000000E+03  0.18250000000E+03  0.00000000000E+00 0.  1.
         11   -1    0    0    0    0 -0.00000000000E+00 -0.00000000000E+00 -0.18250000000E+03  0.18250000000E+03  0.00000000000E+00 0.  1.
        -11    1    1    2    0    0  0.14449368423E+01 -0.75879142726E+01  0.98123301535E+02  0.98426859086E+02  0.00000000000E+00 0.  1.
         11    1    1    2    0    0 -0.51649456099E+01 -0.97822972360E+00 -0.18149953388E+03  0.18157564373E+03  0.00000000000E+00 0.  1.
        -15    1    1    2    0    0  0.14799709684E+01  0.55855059168E+01  0.77920412045E+02  0.78154568214E+02  0.17770000000E+01 0.  1.
         15    1    1    2    0    0  0.22400377992E+01  0.29806380793E+01  0.54558203025E+01  0.68429289690E+01  0.17770000000E+01 0. -1.
</event>
<event>
 6    1  0.8353910E-003  0.1625266E+03  0.7546771E-02  0.1085568E+00
        -11   -1    0    0    0    0  0.00000000000E+00  0.00000000000E+00  0.18250000000E+03  0.18250000000E+03  0.00000000000E+00 0.  1.
         11   -1    0    0    0    0 -0.00000000000E+00 -0.00000000000E+00 -0.18250000000E+03  0.18250000000E+03  0.00000000000E+00 0.  1.
        -11    1    1    2    0    0 -0.37579284344E+01 -0.57881122042E+01  0.16307174455E+03  0.16321770167E+03  0.00000000000E+00 0.  1.
         11    1    1    2    0    0 -0.45630924391E+01 -0.29276827953E+01 -0.16196991673E+03  0.16206062774E+03  0.00000000000E+00 0.  1.
        -15    1    1    2    0    0 -0.59512124528E+00  0.35469230283E+01  0.17731412995E+02  0.18179537069E+02  0.17770000000E+01 0.  1.
         15    1    1    2    0    0  0.89161421188E+01  0.51688719713E+01 -0.18833240817E+02  0.21542133516E+02  0.17770000000E+01 0. -1.
</event>
<event>
 6    1  0.8353910E-003  0.1831682E+03  0.7546771E-02  0.1067924E+00
        -11   -1    0    0    0    0  0.00000000000E+00  0.00000000000E+00  0.18250000000E+03  0.18250000000E+03  0.00000000000E+00 0. -1.
         11   -1    0    0    0    0 -0.00000000000E+00 -0.00000000000E+00 -0.18250000000E+03  0.18250000000E+03  0.00000000000E+00 0. -1.
        -11    1    1    2    0    0  0.39417055552E+01  0.91344874438E+00  0.18178677172E+03  0.18183179536E+03  0.00000000000E+00 0. -1.
         11    1    1    2    0    0 -0.23794750716E+01  0.92141907466E+00 -0.17128546401E+03  0.17130446899E+03  0.00000000000E+00 0. -1.
        -15    1    1    2    0    0  0.10123560906E+01 -0.62992407754E+00 -0.46827807855E+01  0.51485759276E+01  0.17770000000E+01 0. -1.
         15    1    1    2    0    0 -0.25745865742E+01 -0.12049437415E+01 -0.58185269287E+01  0.67151597203E+01  0.17770000000E+01 0.  1.
</event>
<event>
 6    1  0.8353910E-003  0.1733898E+03  0.7546771E-02  0.1075947E+00
        -11   -1    0    0    0    0  0.00000000000E+00  0.00000000000E+00  0.18250000000E+03  0.18250000000E+03  0.00000000000E+00 0.  1.
         11   -1    0    0    0    0 -0.00000000000E+00 -0.00000000000E+00 -0.18250000000E+03  0.18250000000E+03  0.00000000000E+00 0.  1.
        -11    1    1    2    0    0 -0.40447076338E+01  0.34235186698E+01  0.17242770228E+03  0.17250910890E+03  0.00000000000E+00 0.  1.
         11    1    1    2    0    0 -0.29697327448E+01  0.13253587856E+01 -0.17434896607E+03  0.17437929309E+03  0.00000000000E+00 0.  1.
        -15    1    1    2    0    0 -0.39861718058E+01  0.89075848371E+00  0.33044378101E+01  0.55461747703E+01  0.17770000000E+01 0.  1.
         15    1    1    2    0    0  0.11000612184E+02 -0.56396359391E+01 -0.13831740162E+01  0.12565423245E+02  0.17770000000E+01 0. -1.
</event>
<event>
 6    1  0.8353910E-003  0.1841793E+03  0.7546771E-02  0.1067126E+00
        -11   -1    0    0    0    0  0.00000000000E+00  0.00000000000E+00  0.18250000000E+03  0.18250000000E+03  0.00000000000E+00 0.  1.
         11   -1    0    0    0    0 -0.00000000000E+00 -0.00000000000E+00 -0.18250000000E+03  0.18250000000E+03  0.00000000000E+00 0.  1.
        -11    1    1    2    0    0 -0.11635059976E+01  0.38436227894E+01  0.14397975284E+03  0.14403574699E+03  0.00000000000E+00 0.  1.
         11    1    1    2    0    0 -0.77247428283E+01  0.20006214501E+01 -0.18064453766E+03  0.18082069330E+03  0.00000000000E+00 0.  1.
        -15    1    1    2    0    0  0.55852519975E+01 -0.55966011011E+01  0.35181236493E+02  0.36102549965E+02  0.17770000000E+01 0. -1.
         15    1    1    2    0    0  0.33029968284E+01 -0.24764313844E+00  0.14835483258E+01  0.40410097510E+01  0.17770000000E+01 0.  1.
</event>
<event>
 6    1  0.8353910E-003  0.1856239E+03  0.7546771E-02  0.1065995E+00
        -11   -1    0    0    0    0  0.00000000000E+00  0.00000000000E+00  0.18250000000E+03  0.18250000000E+03  0.00000000000E+00 0.  1.
         11   -1    0    0    0    0 -0.00000000000E+00 -0.00000000000E+00 -0.18250000000E+03  0.18250000000E+03  0.00000000000E+00 0.  1.
        -11    1    1    2    0    0 -0.27578164753E+01 -0.41509791913E+01  0.17930685785E+03  0.17937610056E+03  0.00000000000E+00 0.  1.
         11    1    1    2    0    0  0.58392944286E+01  0.12672900284E+01 -0.16344283263E+03  0.16355201900E+03  0.00000000000E+00 0.  1.
        -15    1    1    2    0    0  0.10603209895E+01  0.11998745237E+01  0.22777363631E+01  0.33029973377E+01  0.17770000000E+01 0.  1.
         15    1    1    2    0    0 -0.41417989428E+01  0.16838146393E+01 -0.18141761588E+02  0.18768883098E+02  0.17770000000E+01 0. -1.
</event>
<event>
 6    1  0.8353910E-003  0.1918001E+03  0.7546771E-02  0.1061284E+00
        -11   -1    0    0    0    0  0.00000000000E+00  0.00000000000E+00  0.18250000000E+03  0.18250000000E+03  0.00000000000E+00 0. -1.
         11   -1    0    0    0    0 -0.00000000000E+00 -0.00000000000E+00 -0.18250000000E+03  0.18250000000E+03  0.00000000000E+00 0. -1.
        -11    1    1    2    0    0 -0.10650106306E+02  0.96702449425E+01  0.13350664629E+03  0.13427942138E+03  0.00000000000E+00 0. -1.
         11    1    1    2    0    0 -0.54028183711E+01 -0.42223703839E+01 -0.17306409026E+03  0.17319987932E+03  0.00000000000E+00 0. -1.
        -15    1    1    2    0    0  0.13015211789E+02 -0.69487922477E+01 -0.26884703751E+01  0.15101889073E+02  0.17770000000E+01 0. -1.
         15    1    1    2    0    0  0.30377128884E+01  0.15009176892E+01  0.42245914344E+02  0.42418810229E+02  0.17770000000E+01 0.  1.
</event>
<event>
 6    1  0.8353910E-003  0.1836776E+03  0.7546771E-02  0.1067521E+00
        -11   -1    0    0    0    0  0.00000000000E+00  0.00000000000E+00  0.18250000000E+03  0.18250000000E+03  0.00000000000E+00 0. -1.
         11   -1    0    0    0    0 -0.00000000000E+00 -0.00000000000E+00 -0.18250000000E+03  0.18250000000E+03  0.00000000000E+00 0. -1.
        -11    1    1    2    0    0  0.40323344028E+01  0.10631926584E+01  0.18127442732E+03  0.18132238720E+03  0.00000000000E+00 0. -1.
         11    1    1    2    0    0 -0.15863171858E+00 -0.22080893104E+01 -0.16152353110E+03  0.16153870101E+03  0.00000000000E+00 0. -1.
        -15    1    1    2    0    0 -0.63224203074E+01  0.12753579246E+01 -0.15822607335E+02  0.17178829071E+02  0.17770000000E+01 0.  1.
         15    1    1    2    0    0  0.24487176232E+01 -0.13046127259E+00 -0.39282888780E+01  0.49600827262E+01  0.17770000000E+01 0.  1.
</event>
<event>
 6    1  0.8353910E-003  0.1900705E+03  0.7546771E-02  0.1062583E+00
        -11   -1    0    0    0    0  0.00000000000E+00  0.00000000000E+00  0.18250000000E+03  0.18250000000E+03  0.00000000000E+00 0. -1.
         11   -1    0    0    0    0 -0.00000000000E+00 -0.00000000000E+00 -0.18250000000E+03  0.18250000000E+03  0.00000000000E+00 0. -1.
        -11    1    1    2    0    0 -0.64523064830E+00 -0.24084321227E+01  0.17491174781E+03  0.17492951835E+03  0.00000000000E+00 0. -1.
         11    1    1    2    0    0  0.10248207228E+02  0.41148678094E+00 -0.13152452938E+03  0.13192382992E+03  0.00000000000E+00 0. -1.
        -15    1    1    2    0    0 -0.10391495372E+01  0.17527835092E+02 -0.33244669401E+02  0.37638684985E+02  0.17770000000E+01 0. -1.
         15    1    1    2    0    0 -0.85638270425E+01 -0.15530889751E+02 -0.10142549035E+02  0.20507966744E+02  0.17770000000E+01 0.  1.
</event>
<event>
 6    1  0.8353910E-003  0.1830774E+03  0.7546771E-02  0.1067996E+00
        -11   -1    0    0    0    0  0.00000000000E+00  0.00000000000E+00  0.18250000000E+03  0.18250000000E+03  0.00000000000E+00 0.  1.
         11   -1    0    0    0    0 -0.00000000000E+00 -0.00000000000E+00 -0.18250000000E+03  0.18250000000E+03  0.00000000000E+00 0. -1.
        -11    1    1    2    0    0  0.26460307700E+01  0.17644674846E+01  0.18189478385E+03  0.18192258578E+03  0.00000000000E+00 0.  1.
         11    1    1    2    0    0 -0.16037384326E+01  0.18036306854E+01 -0.13231321197E+03  0.13233522253E+03  0.00000000000E+00 0. -1.
        -15    1    1    2    0    0 -0.28571550403E+01 -0.95502123319E+00 -0.55504927219E+01  0.65605715404E+01  0.17770000000E+01 0.  1.
         15    1    1    2    0    0  0.18148627029E+01 -0.26130769368E+01 -0.44031079161E+02  0.44181620147E+02  0.17770000000E+01 0. -1.
</event>
<event>
 6    1  0.9144920E-003  0.1829162E+03  0.7546771E-02  0.1068124E+00
        -11   -1    0    0    0    0  0.00000000000E+00  0.00000000000E+00  0.18250000000E+03  0.18250000000E+03  0.00000000000E+00 0.  1.
         11   -1    0    0    0    0 -0.00000000000E+00 -0.00000000000E+00 -0.18250000000E+03  0.18250000000E+03  0.00000000000E+00 0.  1.
        -11    1    1    2    0    0  0.17222380456E+01 -0.19612711225E+01  0.18206509345E+03  0.18208380198E+03  0.00000000000E+00 0.  1.
         11    1    1    2    0    0 -0.19328480944E+01  0.13099933423E+01 -0.14323980499E+03  0.14325883469E+03  0.00000000000E+00 0.  1.
        -15    1    1    2    0    0  0.12702197386E+01 -0.25617129288E+01 -0.27486884536E+02  0.27692280184E+02  0.17770000000E+01 0. -1.
         15    1    1    2    0    0 -0.10596096898E+01  0.32129907090E+01 -0.11338403930E+02  0.11965083145E+02  0.17770000000E+01 0. -1.
</event>
<event>
 6    1  0.8353910E-003  0.1843482E+03  0.7546771E-02  0.1066993E+00
        -11   -1    0    0    0    0  0.00000000000E+00  0.00000000000E+00  0.18250000000E+03  0.18250000000E+03  0.00000000000E+00 0. -1.
         11   -1    0    0    0    0 -0.00000000000E+00 -0.00000000000E+00 -0.18250000000E+03  0.18250000000E+03  0.00000000000E+00 0. -1.
        -11    1    1    2    0    0 -0.48126621839E+01 -0.16146943808E+01  0.18058048182E+03  0.18065181806E+03  0.00000000000E+00 0. -1.
         11    1    1    2    0    0  0.25680877718E+01 -0.35387551917E+00 -0.17338823032E+03  0.17340760859E+03  0.00000000000E+00 0. -1.
        -15    1    1    2    0    0 -0.17692284932E+01 -0.68092506409E+00 -0.43800630894E+01  0.50927900085E+01  0.17770000000E+01 0.  1.
         15    1    1    2    0    0  0.40138029053E+01  0.26494949641E+01 -0.28121884126E+01  0.58477833403E+01  0.17770000000E+01 0. -1.
</event>
<event>
 6    1  0.8353910E-003  0.1841749E+03  0.7546771E-02  0.1067129E+00
        -11   -1    0    0    0    0  0.00000000000E+00  0.00000000000E+00  0.18250000000E+03  0.18250000000E+03  0.00000000000E+00 0. -1.
         11   -1    0    0    0    0 -0.00000000000E+00 -0.00000000000E+00 -0.18250000000E+03  0.18250000000E+03  0.00000000000E+00 0. -1.
        -11    1    1    2    0    0 -0.14918006957E+01 -0.46724956290E+01  0.18075852087E+03  0.18082505510E+03  0.00000000000E+00 0. -1.
         11    1    1    2    0    0 -0.49345357299E+01 -0.45692610391E+01 -0.15223932923E+03  0.15238779857E+03  0.00000000000E+00 0. -1.
        -15    1    1    2    0    0 -0.72191220683E+00  0.23102166964E+01 -0.26273223168E+01  0.39898383394E+01  0.17770000000E+01 0.  1.
         15    1    1    2    0    0  0.71482486325E+01  0.69315399717E+01 -0.25891869332E+02  0.27797307989E+02  0.17770000000E+01 0. -1.
</event>
<event>
 6    1  0.8353910E-003  0.1597226E+03  0.7546771E-02  0.1088186E+00
        -11   -1    0    0    0    0  0.00000000000E+00  0.00000000000E+00  0.18250000000E+03  0.18250000000E+03  0.00000000000E+00 0.  1.
         11   -1    0    0    0    0 -0.00000000000E+00 -0.00000000000E+00 -0.18250000000E+03  0.18250000000E+03  0.00000000000E+00 0.  1.
        -11    1    1    2    0    0  0.25310567015E+01  0.84047262341E+01  0.15763504796E+03  0.15787923871E+03  0.00000000000E+00 0.  1.
         11    1    1    2    0    0  0.22454429653E+01 -0.98329826973E+00 -0.16169498205E+03  0.16171356193E+03  0.00000000000E+00 0.  1.
        -15    1    1    2    0    0  0.51009952867E+01 -0.10556397674E+02  0.21782120999E+02  0.24800730009E+02  0.17770000000E+01 0.  1.
         15    1    1    2    0    0 -0.98774949535E+01  0.31349697096E+01 -0.17722186902E+02  0.20606469353E+02  0.17770000000E+01 0. -1.
</event>
<event>
 6    1  0.8353910E-003  0.1827303E+03  0.7546771E-02  0.1068272E+00
        -11   -1    0    0    0    0  0.00000000000E+00  0.00000000000E+00  0.18250000000E+03  0.18250000000E+03  0.00000000000E+00 0.  1.
         11   -1    0    0    0    0 -0.00000000000E+00 -0.00000000000E+00 -0.18250000000E+03  0.18250000000E+03  0.00000000000E+00 0.  1.
        -11    1    1    2    0    0  0.37986837629E+01  0.22155118573E+01  0.18221666557E+03  0.18226972240E+03  0.00000000000E+00 0.  1.
         11    1    1    2    0    0  0.37111173710E+00  0.22272939600E+01 -0.95163158876E+02  0.95189943637E+02  0.00000000000E+00 0.  1.
        -15    1    1    2    0    0 -0.34810112225E+01 -0.25295674365E+01 -0.25106341459E+02  0.25534334944E+02  0.17770000000E+01 0.  1.
         15    1    1    2    0    0 -0.68878427751E+00 -0.19132383808E+01 -0.61947165236E+02  0.62005999021E+02  0.17770000000E+01 0. -1.
</event>
<event>
 6    1  0.8353910E-003  0.1573575E+03  0.7546771E-02  0.1090440E+00
        -11   -1    0    0    0    0  0.00000000000E+00  0.00000000000E+00  0.18250000000E+03  0.18250000000E+03  0.00000000000E+00 0. -1.
         11   -1    0    0    0    0 -0.00000000000E+00 -0.00000000000E+00 -0.18250000000E+03  0.18250000000E+03  0.00000000000E+00 0. -1.
        -11    1    1    2    0    0 -0.28611390353E+01 -0.26495318199E+02  0.14847827019E+03  0.15085086914E+03  0.00000000000E+00 0. -1.
         11    1    1    2    0    0  0.24386288639E+01 -0.91240697184E+00 -0.16549288722E+03  0.16551336840E+03  0.00000000000E+00 0. -1.
        -15    1    1    2    0    0  0.20549925414E+01  0.11129397753E+02 -0.11168890717E+02  0.15999635544E+02  0.17770000000E+01 0.  1.
         15    1    1    2    0    0 -0.16324823700E+01  0.16278327418E+02  0.28183507747E+02  0.32636126917E+02  0.17770000000E+01 0. -1.
</event>
<event>
 6    1  0.8353910E-003  0.1992807E+03  0.7546771E-02  0.1055830E+00
        -11   -1    0    0    0    0  0.00000000000E+00  0.00000000000E+00  0.18250000000E+03  0.18250000000E+03  0.00000000000E+00 0. -1.
         11   -1    0    0    0    0 -0.00000000000E+00 -0.00000000000E+00 -0.18250000000E+03  0.18250000000E+03  0.00000000000E+00 0.  1.
        -11    1    1    2    0    0 -0.94740306954E+01  0.67767927817E+01  0.11887909769E+03  0.11944840746E+03  0.00000000000E+00 0. -1.
         11    1    1    2    0    0 -0.30929356028E+01  0.42874776449E+01 -0.16563499436E+03  0.16571934128E+03  0.00000000000E+00 0.  1.
        -15    1    1    2    0    0 -0.78468651605E+00 -0.10848291033E+02 -0.13877008214E+02  0.17720898319E+02  0.17770000000E+01 0.  1.
         15    1    1    2    0    0  0.13351652814E+02 -0.21597939369E+00  0.60632904891E+02  0.62111352944E+02  0.17770000000E+01 0. -1.
</event>
<event>
 6    1  0.8353910E-003  0.1829460E+03  0.7546771E-02  0.1068100E+00
        -11   -1    0    0    0    0  0.00000000000E+00  0.00000000000E+00  0.18250000000E+03  0.18250000000E+03  0.00000000000E+00 0.  1.
         11   -1    0    0    0    0 -0.00000000000E+00 -0.00000000000E+00 -0.18250000000E+03  0.18250000000E+03  0.00000000000E+00 0.  1.
        -11    1    1    2    0    0  0.10734268399E+01 -0.23564310527E+01  0.18203557775E+03  0.18205399358E+03  0.00000000000E+00 0.  1.
         11    1    1    2    0    0  0.11106601465E+01  0.72859653294E+01 -0.87553710462E+02  0.87863365929E+02  0.00000000000E+00 0.  1.
        -15    1    1    2    0    0 -0.45947731027E+01 -0.55985787107E+01 -0.59270810446E+02  0.59738117842E+02  0.17770000000E+01 0. -1.
         15    1    1    2    0    0  0.24106861162E+01  0.66904443391E+00 -0.35211056844E+02  0.35344522646E+02  0.17770000000E+01 0.  1.
</event>
<event>
 6    1  0.8353910E-003  0.1827247E+03  0.7546771E-02  0.1068276E+00
        -11   -1    0    0    0    0  0.00000000000E+00  0.00000000000E+00  0.18250000000E+03  0.18250000000E+03  0.00000000000E+00 0.  1.
         11   -1    0    0    0    0 -0.00000000000E+00 -0.00000000000E+00 -0.18250000000E+03  0.18250000000E+03  0.00000000000E+00 0. -1.
        -11    1    1    2    0    0  0.37593495336E+01 -0.27155926250E+01  0.18221624739E+03  0.18227525329E+03  0.00000000000E+00 0.  1.
         11    1    1    2    0    0 -0.28498457516E+01 -0.19034425445E+01 -0.10706345550E+03  0.10711829077E+03  0.00000000000E+00 0. -1.
        -15    1    1    2    0    0  0.23604384153E+01  0.12495720078E+01 -0.33088063584E+02  0.33243206531E+02  0.17770000000E+01 0.  1.
         15    1    1    2    0    0 -0.32699421972E+01  0.33694631617E+01 -0.42064728305E+02  0.42363249408E+02  0.17770000000E+01 0. -1.
</event>
<event>
 6    1  0.8353910E-003  0.1785892E+03  0.7546771E-02  0.1071611E+00
        -11   -1    0    0    0    0  0.00000000000E+00  0.00000000000E+00  0.18250000000E+03  0.18250000000E+03  0.00000000000E+00 0. -1.
         11   -1    0    0    0    0 -0.00000000000E+00 -0.00000000000E+00 -0.18250000000E+03  0.18250000000E+03  0.00000000000E+00 0.  1.
        -11    1    1    2    0    0  0.29792987778E+01  0.10542387789E+01  0.17981314504E+03  0.17984091517E+03  0.00000000000E+00 0. -1.
         11    1    1    2    0    0 -0.62802727655E+00  0.26849055109E+01 -0.17735179391E+03  0.17737322779E+03  0.00000000000E+00 0.  1.
        -15    1    1    2    0    0  0.62760525228E+00 -0.22405304591E+01 -0.27229867310E+01  0.39982809842E+01  0.17770000000E+01 0.  1.
         15    1    1    2    0    0 -0.29788767535E+01 -0.14986138307E+01  0.26163559607E+00  0.37875760469E+01  0.17770000000E+01 0.  1.
</event>
<event>
 6    1  0.8353910E-003  0.1861381E+03  0.7546771E-02  0.1065595E+00
        -11   -1    0    0    0    0  0.00000000000E+00  0.00000000000E+00  0.18250000000E+03  0.18250000000E+03  0.00000000000E+00 0. -1.
         11   -1    0    0    0    0 -0.00000000000E+00 -0.00000000000E+00 -0.18250000000E+03  0.18250000000E+03  0.00000000000E+00 0.  1.
        -11    1    1    2    0    0 -0.10524897180E+02  0.86917972735E+01  0.17834030503E+03  0.17886191656E+03  0.00000000000E+00 0. -1.
         11    1    1    2    0    0  0.30400730796E+01 -0.29165004431E-01 -0.10832390278E+03  0.10836655761E+03  0.00000000000E+00 0.  1.
        -15    1    1    2    0    0  0.43589894785E+01 -0.20594023390E+02 -0.39178132352E+02  0.44510654592E+02  0.17770000000E+01 0.  1.
         15    1    1    2    0    0  0.31258346219E+01  0.11931391121E+02 -0.30838269896E+02  0.33260871236E+02  0.17770000000E+01 0. -1.
</event>
<event>
 6    1  0.8353910E-003  0.1834803E+03  0.7546771E-02  0.1067677E+00
        -11   -1    0    0    0    0  0.00000000000E+00  0.00000000000E+00  0.18250000000E+03  0.18250000000E+03  0.00000000000E+00 0.  1.
         11   -1    0    0    0    0 -0.00000000000E+00 -0.00000000000E+00 -0.18250000000E+03  0.18250000000E+03  0.00000000000E+00 0. -1.
        -11    1    1    2    0    0  0.36123243239E+01 -0.27949949649E+00  0.18148350309E+03  0.18151966533E+03  0.00000000000E+00 0.  1.
         11    1    1    2    0    0  0.10796827435E+01  0.22036333527E+00 -0.27672847888E+02  0.27694779021E+02  0.00000000000E+00 0. -1.
        -15    1    1    2    0    0 -0.29917662558E+01 -0.95708487686E+01 -0.32260265736E+02  0.33829488407E+02  0.17770000000E+01 0.  1.
         15    1    1    2    0    0 -0.17002408116E+01  0.96299849298E+01 -0.12155038947E+03  0.12195606724E+03  0.17770000000E+01 0. -1.
</event>
<event>
 6    1  0.8353910E-003  0.1827971E+03  0.7546771E-02  0.1068219E+00
        -11   -1    0    0    0    0  0.00000000000E+00  0.00000000000E+00  0.18250000000E+03  0.18250000000E+03  0.00000000000E+00 0.  1.
         11   -1    0    0    0    0 -0.00000000000E+00 -0.00000000000E+00 -0.18250000000E+03  0.18250000000E+03  0.00000000000E+00 0. -1.
        -11    1    1    2    0    0  0.17959640496E+01 -0.13062907612E+00  0.10944090493E+03  0.10945571809E+03  0.00000000000E+00 0.  1.
         11    1    1    2    0    0 -0.30928978779E+01  0.17158603146E+01 -0.18216859612E+03  0.18220292974E+03  0.00000000000E+00 0. -1.
        -15    1    1    2    0    0  0.10590861167E+01 -0.81449328552E+00  0.39244686533E+01  0.45104596136E+01  0.17770000000E+01 0. -1.
         15    1    1    2    0    0  0.23784771152E+00 -0.77073795292E+00  0.68803222540E+02  0.68830892551E+02  0.17770000000E+01 0.  1.
</event>
<event>
 6    1  0.8353910E-003  0.1838065E+03  0.7546771E-02  0.1067420E+00
        -11   -1    0    0    0    0  0.00000000000E+00  0.00000000000E+00  0.18250000000E+03  0.18250000000E+03  0.00000000000E+00 0.  1.
         11   -1    0    0    0    0 -0.00000000000E+00 -0.00000000000E+00 -0.18250000000E+03  0.18250000000E+03  0.00000000000E+00 0.  1.
        -11    1    1    2    0    0 -0.31657344240E+01  0.11226821731E+01  0.18116238392E+03  0.18119351986E+03  0.00000000000E+00 0.  1.
         11    1    1    2    0    0  0.33784066768E+00 -0.62233242978E+01 -0.16340638154E+03  0.16352519510E+03  0.00000000000E+00 0.  1.
        -15    1    1    2    0    0  0.84351394544E+00  0.53909285444E+01 -0.16191765472E+02  0.17178609503E+02  0.17770000000E+01 0.  1.
         15    1    1    2    0    0  0.19843798109E+01 -0.29028641968E+00 -0.15642369056E+01  0.31026755448E+01  0.17770000000E+01 0. -1.
</event>
<event>
 6    1  0.8353910E-003  0.2267745E+03  0.7546771E-02  0.1037824E+00
        -11   -1    0    0    0    0  0.00000000000E+00  0.00000000000E+00  0.18250000000E+03  0.18250000000E+03  0.00000000000E+00 0. -1.
         11   -1    0    0    0    0 -0.00000000000E+00 -0.00000000000E+00 -0.18250000000E+03  0.18250000000E+03  0.00000000000E+00 0.  1.
        -11    1    1    2    0    0  0.35931195455E+01 -0.75505346575E+00  0.13817668472E+03  0.13822545646E+03  0.00000000000E+00 0. -1.
         11    1    1    2    0    0  0.22466101227E+02  0.90787192695E+01 -0.10096518792E+03  0.10383216274E+03  0.00000000000E+00 0.  1.
        -15    1    1    2    0    0  0.11202724787E+02 -0.14213156791E+01  0.37471282629E+02  0.39176216404E+02  0.17770000000E+01 0. -1.
         15    1    1    2    0    0 -0.37261945559E+02 -0.69023501247E+01 -0.74682779435E+02  0.83766164394E+02  0.17770000000E+01 0.  1.
</event>
<event>
 6    1  0.8353910E-003  0.1930817E+03  0.7546771E-02  0.1060330E+00
        -11   -1    0    0    0    0  0.00000000000E+00  0.00000000000E+00  0.18250000000E+03  0.18250000000E+03  0.00000000000E+00 0. -1.
         11   -1    0    0    0    0 -0.00000000000E+00 -0.00000000000E+00 -0.18250000000E+03  0.18250000000E+03  0.00000000000E+00 0.  1.
        -11    1    1    2    0    0 -0.20739215659E+01  0.17259346413E+01  0.17189709235E+03  0.17191826651E+03  0.00000000000E+00 0. -1.
         11    1    1    2    0    0 -0.60814871867E+01 -0.26764716335E+01 -0.14823782234E+03  0.14838665695E+03  0.00000000000E+00 0.  1.
        -15    1    1    2    0    0  0.79920499633E+01 -0.44416360080E+01 -0.32709691209E+02  0.34010037063E+02  0.17770000000E+01 0.  1.
         15    1    1    2    0    0  0.16335878931E+00  0.53921730002E+01  0.90504212004E+01  0.10685039479E+02  0.17770000000E+01 0. -1.
</event>
<event>
 6    1  0.8353910E-003  0.1849488E+03  0.7546771E-02  0.1066522E+00
        -11   -1    0    0    0    0  0.00000000000E+00  0.00000000000E+00  0.18250000000E+03  0.18250000000E+03  0.00000000000E+00 0. -1.
         11   -1    0    0    0    0 -0.00000000000E+00 -0.00000000000E+00 -0.18250000000E+03  0.18250000000E+03  0.00000000000E+00 0. -1.
        -11    1    1    2    0    0  0.15206165084E+01  0.32415042165E+01  0.16377927872E+03  0.16381841094E+03  0.00000000000E+00 0. -1.
         11    1    1    2    0    0 -0.25625484213E+01  0.19648038139E+00 -0.18003280855E+03  0.18005115221E+03  0.00000000000E+00 0. -1.
        -15    1    1    2    0    0  0.59514627648E+01 -0.32928434115E+01  0.13512146134E+02  0.15231498577E+02  0.17770000000E+01 0.  1.
         15    1    1    2    0    0 -0.49095308519E+01 -0.14514118645E+00  0.27413836917E+01  0.58989382684E+01  0.17770000000E+01 0. -1.
</event>
<event>
 6    1  0.8353910E-003  0.1936704E+03  0.7546771E-02  0.1059895E+00
        -11   -1    0    0    0    0  0.00000000000E+00  0.00000000000E+00  0.18250000000E+03  0.18250000000E+03  0.00000000000E+00 0. -1.
         11   -1    0    0    0    0 -0.00000000000E+00 -0.00000000000E+00 -0.18250000000E+03  0.18250000000E+03  0.00000000000E+00 0. -1.
        -11    1    1    2    0    0 -0.45250791294E+01 -0.55679526184E+01  0.15912937608E+03  0.15929104423E+03  0.00000000000E+00 0. -1.
         11    1    1    2    0    0  0.12905588741E+01 -0.23304452446E+01 -0.17130891142E+03  0.17132962280E+03  0.00000000000E+00 0. -1.
        -15    1    1    2    0    0  0.19819564754E+01  0.34614116481E+01  0.22509165447E+02  0.22928798054E+02  0.17770000000E+01 0.  1.
         15    1    1    2    0    0  0.12525637799E+01  0.44369862149E+01 -0.10329630109E+02  0.11450534917E+02  0.17770000000E+01 0. -1.
</event>
<event>
 6    1  0.8353910E-003  0.2074987E+03  0.7546771E-02  0.1050132E+00
        -11   -1    0    0    0    0  0.00000000000E+00  0.00000000000E+00  0.18250000000E+03  0.18250000000E+03  0.00000000000E+00 0.  1.
         11   -1    0    0    0    0 -0.00000000000E+00 -0.00000000000E+00 -0.18250000000E+03  0.18250000000E+03  0.00000000000E+00 0. -1.
        -11    1    1    2    0    0 -0.72177598731E+01  0.10291750601E+02  0.14241630255E+03  0.14296999483E+03  0.00000000000E+00 0.  1.
         11    1    1    2    0    0  0.10680648652E+02 -0.55848955694E+01 -0.15703950127E+03  0.15750134055E+03  0.00000000000E+00 0. -1.
        -15    1    1    2    0    0 -0.85884440099E+01  0.48051284349E+01 -0.23140745320E+02  0.25209173980E+02  0.17770000000E+01 0. -1.
         15    1    1    2    0    0  0.51255552315E+01 -0.95119834669E+01  0.37763944042E+02  0.39319490644E+02  0.17770000000E+01 0.  1.
</event>
<event>
 6    1  0.8353910E-003  0.1826097E+03  0.7546771E-02  0.1068367E+00
        -11   -1    0    0    0    0  0.00000000000E+00  0.00000000000E+00  0.18250000000E+03  0.18250000000E+03  0.00000000000E+00 0. -1.
         11   -1    0    0    0    0 -0.00000000000E+00 -0.00000000000E+00 -0.18250000000E+03  0.18250000000E+03  0.00000000000E+00 0.  1.
        -11    1    1    2    0    0 -0.24132560980E+01 -0.10082790649E+01  0.18237149720E+03  0.18239025035E+03  0.00000000000E+00 0. -1.
         11    1    1    2    0    0 -0.17680691456E+01 -0.90117339455E+00 -0.46815893337E+02  0.46857934770E+02  0.00000000000E+00 0.  1.
        -15    1    1    2    0    0  0.42754630952E+01  0.26187466432E+01 -0.91373504120E+02  0.91528205504E+02  0.17770000000E+01 0.  1.
         15    1    1    2    0    0 -0.94137851646E-01 -0.70929418370E+00 -0.44182099740E+02  0.44223609380E+02  0.17770000000E+01 0. -1.
</event>
<event>
 6    1  0.8353910E-003  0.1936271E+03  0.7546771E-02  0.1059927E+00
        -11   -1    0    0    0    0  0.00000000000E+00  0.00000000000E+00  0.18250000000E+03  0.18250000000E+03  0.00000000000E+00 0. -1.
         11   -1    0    0    0    0 -0.00000000000E+00 -0.00000000000E+00 -0.18250000000E+03  0.18250000000E+03  0.00000000000E+00 0. -1.
        -11    1    1    2    0    0 -0.18455522167E+00  0.36050771248E+01  0.17133486857E+03  0.17137289118E+03  0.00000000000E+00 0. -1.
         11    1    1    2    0    0  0.56118893650E+01  0.12983921115E+01 -0.13893078546E+03  0.13905014301E+03  0.00000000000E+00 0. -1.
        -15    1    1    2    0    0 -0.48934989724E+00 -0.35506781333E+01 -0.42729131566E+02  0.42916001583E+02  0.17770000000E+01 0.  1.
         15    1    1    2    0    0 -0.49379842461E+01 -0.13527911030E+01  0.10325048452E+02  0.11660964227E+02  0.17770000000E+01 0. -1.
</event>
<event>
 6    1  0.8353910E-003  0.1837887E+03  0.7546771E-02  0.1067434E+00
        -11   -1    0    0    0    0  0.00000000000E+00  0.00000000000E+00  0.18250000000E+03  0.18250000000E+03  0.00000000000E+00 0. -1.
         11   -1    0    0    0    0 -0.00000000000E+00 -0.00000000000E+00 -0.18250000000E+03  0.18250000000E+03  0.00000000000E+00 0.  1.
        -11    1    1    2    0    0  0.15454401300E+01  0.10308114120E+01  0.13252920320E+03  0.13254222217E+03  0.00000000000E+00 0. -1.
         11    1    1    2    0    0 -0.87278269984E+01  0.10368466171E+02 -0.18070377055E+03  0.18121129309E+03  0.00000000000E+00 0.  1.
        -15    1    1    2    0    0 -0.71558736086E+00 -0.31922651756E+01  0.25894753482E+02  0.26161013152E+02  0.17770000000E+01 0.  1.
         15    1    1    2    0    0  0.78979742293E+01 -0.82070124077E+01  0.22279813865E+02  0.25085471582E+02  0.17770000000E+01 0. -1.
</event>
<event>
 6    1  0.8353910E-003  0.1896481E+03  0.7546771E-02  0.1062903E+00
        -11   -1    0    0    0    0  0.00000000000E+00  0.00000000000E+00  0.18250000000E+03  0.18250000000E+03  0.00000000000E+00 0. -1.
         11   -1    0    0    0    0 -0.00000000000E+00 -0.00000000000E+00 -0.18250000000E+03  0.18250000000E+03  0.00000000000E+00 0. -1.
        -11    1    1    2    0    0  0.65448822111E+01  0.12416669311E+00  0.15275036793E+03  0.15289056807E+03  0.00000000000E+00 0. -1.
         11    1    1    2    0    0 -0.11100491248E+02  0.35705336122E+01 -0.17496371712E+03  0.17535185179E+03  0.00000000000E+00 0. -1.
        -15    1    1    2    0    0  0.12186312684E+01  0.52943368752E+01  0.25755737356E+02  0.26382395662E+02  0.17770000000E+01 0. -1.
         15    1    1    2    0    0  0.33369777684E+01 -0.89890371805E+01 -0.35423881673E+01  0.10375184480E+02  0.17770000000E+01 0.  1.
</event>
<event>
 6    1  0.8353910E-003  0.1862224E+03  0.7546771E-02  0.1065530E+00
        -11   -1    0    0    0    0  0.00000000000E+00  0.00000000000E+00  0.18250000000E+03  0.18250000000E+03  0.00000000000E+00 0.  1.
         11   -1    0    0    0    0 -0.00000000000E+00 -0.00000000000E+00 -0.18250000000E+03  0.18250000000E+03  0.00000000000E+00 0.  1.
        -11    1    1    2    0    0 -0.14275047651E+01  0.81950234028E+01  0.17858393583E+03  0.17877756659E+03  0.00000000000E+00 0.  1.
         11    1    1    2    0    0 -0.13169286117E+01  0.15985761022E+01 -0.14753991859E+03  0.14755445546E+03  0.00000000000E+00 0.  1.
        -15    1    1    2    0    0 -0.16364196972E+01 -0.77717497680E+01 -0.32354064133E+02  0.33361971746E+02  0.17770000000E+01 0. -1.
         15    1    1    2    0    0  0.43808530740E+01 -0.20218497370E+01  0.13100468989E+01  0.53060062092E+01  0.17770000000E+01 0.  1.
</event>
<event>
 6    1  0.8353910E-003  0.1844188E+03  0.7546771E-02  0.1066938E+00
        -11   -1    0    0    0    0  0.00000000000E+00  0.00000000000E+00  0.18250000000E+03  0.18250000000E+03  0.00000000000E+00 0. -1.
         11   -1    0    0    0    0 -0.00000000000E+00 -0.00000000000E+00 -0.18250000000E+03  0.18250000000E+03  0.00000000000E+00 0. -1.
        -11    1    1    2    0    0  0.19745179206E+01 -0.10180645726E+02  0.12250701723E+03  0.12294516477E+03  0.00000000000E+00 0. -1.
         11    1    1    2    0    0  0.24470220554E+01  0.29842142771E+01 -0.18053994934E+03  0.18058119160E+03  0.00000000000E+00 0. -1.
        -15    1    1    2    0    0 -0.44916017736E+01  0.11706032715E+02  0.24373255940E+02  0.27466689325E+02  0.17770000000E+01 0. -1.
         15    1    1    2    0    0  0.70061797612E-01 -0.45096012660E+01  0.33659676170E+02  0.34006954305E+02  0.17770000000E+01 0.  1.
</event>
<event>
 6    1  0.8353910E-003  0.1861905E+03  0.7546771E-02  0.1065555E+00
        -11   -1    0    0    0    0  0.00000000000E+00  0.00000000000E+00  0.18250000000E+03  0.18250000000E+03  0.00000000000E+00 0.  1.
         11   -1    0    0    0    0 -0.00000000000E+00 -0.00000000000E+00 -0.18250000000E+03  0.18250000000E+03  0.00000000000E+00 0. -1.
        -11    1    1    2    0    0  0.14217596025E+01  0.20015106414E+01  0.17333254630E+03  0.17334993237E+03  0.00000000000E+00 0.  1.
         11    1    1    2    0    0 -0.16797477162E+01 -0.32282762203E+01 -0.17877246447E+03  0.17880950023E+03  0.00000000000E+00 0. -1.
        -15    1    1    2    0    0 -0.21635144234E+01 -0.78672048354E+00  0.79324423703E+01  0.84487333215E+01  0.17770000000E+01 0. -1.
         15    1    1    2    0    0  0.24215025372E+01  0.20134860625E+01 -0.24925241989E+01  0.43918340751E+01  0.17770000000E+01 0.  1.
</event>
<event>
 6    1  0.8353910E-003  0.1837060E+03  0.7546771E-02  0.1067499E+00
        -11   -1    0    0    0    0  0.00000000000E+00  0.00000000000E+00  0.18250000000E+03  0.18250000000E+03  0.00000000000E+00 0.  1.
         11   -1    0    0    0    0 -0.00000000000E+00 -0.00000000000E+00 -0.18250000000E+03  0.18250000000E+03  0.00000000000E+00 0. -1.
        -11    1    1    2    0    0 -0.28990595307E+01  0.12081492852E+01  0.16130199610E+03  0.16133256992E+03  0.00000000000E+00 0.  1.
         11    1    1    2    0    0 -0.21403144141E+01  0.27026666694E+01 -0.18126126367E+03  0.18129404585E+03  0.00000000000E+00 0. -1.
        -15    1    1    2    0    0  0.45681626464E+01 -0.47529143046E+01  0.18889912568E+02  0.20085936129E+02  0.17770000000E+01 0.  1.
         15    1    1    2    0    0  0.47121129839E+00  0.84209835002E+00  0.10693550020E+01  0.22874481063E+01  0.17770000000E+01 0.  1.
</event>
<event>
 6    1  0.8353910E-003  0.1878172E+03  0.7546771E-02  0.1064299E+00
        -11   -1    0    0    0    0  0.00000000000E+00  0.00000000000E+00  0.18250000000E+03  0.18250000000E+03  0.00000000000E+00 0. -1.
         11   -1    0    0    0    0 -0.00000000000E+00 -0.00000000000E+00 -0.18250000000E+03  0.18250000000E+03  0.00000000000E+00 0.  1.
        -11    1    1    2    0    0  0.33172660495E+01 -0.16271855000E+01  0.17714430560E+03  0.17718283493E+03  0.00000000000E+00 0. -1.
         11    1    1    2    0    0 -0.26246264278E+01 -0.35873987231E+01 -0.12894006308E+03  0.12901665768E+03  0.00000000000E+00 0.  1.
        -15    1    1    2    0    0 -0.51905371182E+01  0.17044764470E+02 -0.39408656416E+02  0.43285859133E+02  0.17770000000E+01 0.  1.
         15    1    1    2    0    0  0.44978974965E+01 -0.11830180247E+02 -0.87955861050E+01  0.15514648255E+02  0.17770000000E+01 0. -1.
</event>
<event>
 6    1  0.8353910E-003  0.1852724E+03  0.7546771E-02  0.1066269E+00
        -11   -1    0    0    0    0  0.00000000000E+00  0.00000000000E+00  0.18250000000E+03  0.18250000000E+03  0.00000000000E+00 0. -1.
         11   -1    0    0    0    0 -0.00000000000E+00 -0.00000000000E+00 -0.18250000000E+03  0.18250000000E+03  0.00000000000E+00 0. -1.
        -11    1    1    2    0    0 -0.25613191540E+01  0.62229487051E+00  0.17309871199E+03  0.17311877916E+03  0.00000000000E+00 0. -1.
         11    1    1    2    0    0  0.27472343708E+01 -0.18006132463E+01 -0.17969757170E+03  0.17972759048E+03  0.00000000000E+00 0. -1.
        -15    1    1    2    0    0  0.26055666898E+01 -0.38825593068E+00  0.77004367926E+01  0.83303166950E+01  0.17770000000E+01 0. -1.
         15    1    1    2    0    0 -0.27914819066E+01  0.15665743065E+01 -0.11015770750E+01  0.38233136602E+01  0.17770000000E+01 0. -1.
</event>
<event>
 6    1  0.8353910E-003  0.1832182E+03  0.7546771E-02  0.1067885E+00
        -11   -1    0    0    0    0  0.00000000000E+00  0.00000000000E+00  0.18250000000E+03  0.18250000000E+03  0.00000000000E+00 0.  1.
         11   -1    0    0    0    0 -0.00000000000E+00 -0.00000000000E+00 -0.18250000000E+03  0.18250000000E+03  0.00000000000E+00 0.  1.
        -11    1    1    2    0    0 -0.15509432106E+01  0.18150148163E+01  0.44817921802E+02  0.44881464084E+02  0.00000000000E+00 0.  1.
         11    1    1    2    0    0  0.27628854986E+01  0.20141233328E+01 -0.18174962877E+03  0.18178178618E+03  0.00000000000E+00 0.  1.
        -15    1    1    2    0    0 -0.47077982636E+00  0.53557887970E+00  0.12944608077E+03  0.12946024113E+03  0.17770000000E+01 0.  1.
         15    1    1    2    0    0 -0.74116246158E+00 -0.43647170288E+01  0.74856261925E+01  0.88765086059E+01  0.17770000000E+01 0. -1.
</event>
<event>
 6    1  0.8353910E-003  0.1940162E+03  0.7546771E-02  0.1059640E+00
        -11   -1    0    0    0    0  0.00000000000E+00  0.00000000000E+00  0.18250000000E+03  0.18250000000E+03  0.00000000000E+00 0. -1.
         11   -1    0    0    0    0 -0.00000000000E+00 -0.00000000000E+00 -0.18250000000E+03  0.18250000000E+03  0.00000000000E+00 0.  1.
        -11    1    1    2    0    0 -0.67563669860E+01  0.29125564618E+01  0.15323830785E+03  0.15341483133E+03  0.00000000000E+00 0. -1.
         11    1    1    2    0    0 -0.24013305553E+01  0.73087855907E+00 -0.17096537277E+03  0.17098379823E+03  0.00000000000E+00 0.  1.
        -15    1    1    2    0    0 -0.10849916669E+02 -0.49906465593E+01  0.16482032754E+02  0.20431406646E+02  0.17770000000E+01 0.  1.
         15    1    1    2    0    0  0.20007614211E+02  0.13472115384E+01  0.12450321653E+01  0.20169963793E+02  0.17770000000E+01 0. -1.
</event>
<event>
 6    1  0.8353910E-003  0.1844184E+03  0.7546771E-02  0.1066938E+00
        -11   -1    0    0    0    0  0.00000000000E+00  0.00000000000E+00  0.18250000000E+03  0.18250000000E+03  0.00000000000E+00 0. -1.
         11   -1    0    0    0    0 -0.00000000000E+00 -0.00000000000E+00 -0.18250000000E+03  0.18250000000E+03  0.00000000000E+00 0.  1.
        -11    1    1    2    0    0 -0.16371580053E+01  0.10772763690E+01  0.13667536079E+03  0.13668941092E+03  0.00000000000E+00 0. -1.
         11    1    1    2    0    0 -0.12020093087E+02 -0.25779949361E+01 -0.18016268844E+03  0.18058162420E+03  0.00000000000E+00 0.  1.
        -15    1    1    2    0    0  0.64321813226E+01  0.17913236639E+01  0.37619413298E+02  0.38248657269E+02  0.17770000000E+01 0.  1.
         15    1    1    2    0    0  0.72250697692E+01 -0.29060509680E+00  0.58679143485E+01  0.94803076055E+01  0.17770000000E+01 0. -1.
</event>
<event>
 6    1  0.8353910E-003  0.1843544E+03  0.7546771E-02  0.1066988E+00
        -11   -1    0    0    0    0  0.00000000000E+00  0.00000000000E+00  0.18250000000E+03  0.18250000000E+03  0.00000000000E+00 0. -1.
         11   -1    0    0    0    0 -0.00000000000E+00 -0.00000000000E+00 -0.18250000000E+03  0.18250000000E+03  0.00000000000E+00 0.  1.
        -11    1    1    2    0    0 -0.16547961441E+01  0.26001431620E+01  0.13723631571E+03  0.13727091987E+03  0.00000000000E+00 0. -1.
         11    1    1    2    0    0  0.72048822419E+01 -0.15054717017E+01 -0.18049559619E+03  0.18064561168E+03  0.00000000000E+00 0.  1.
        -15    1    1    2    0    0  0.21234041429E+01  0.95286814016E+00  0.36176042003E+02  0.36294359711E+02  0.17770000000E+01 0.  1.
         15    1    1    2    0    0 -0.76734902406E+01 -0.20475396005E+01  0.70832384851E+01  0.10789108736E+02  0.17770000000E+01 0.  1.
</event>
<event>
 6    1  0.8353910E-003  0.1845052E+03  0.7546771E-02  0.1066870E+00
        -11   -1    0    0    0    0  0.00000000000E+00  0.00000000000E+00  0.18250000000E+03  0.18250000000E+03  0.00000000000E+00 0. -1.
         11   -1    0    0    0    0 -0.00000000000E+00 -0.00000000000E+00 -0.18250000000E+03  0.18250000000E+03  0.00000000000E+00 0.  1.
        -11    1    1    2    0    0 -0.47695982295E+01 -0.30412672732E+01  0.18040613933E+03  0.18049480182E+03  0.00000000000E+00 0. -1.
         11    1    1    2    0    0  0.30639374413E+01 -0.61742742258E+01 -0.15507555676E+03  0.15522866256E+03  0.00000000000E+00 0.  1.
        -15    1    1    2    0    0 -0.24851165308E+01  0.14908398010E+01 -0.13203995943E+01  0.36468605090E+01  0.17770000000E+01 0.  1.
         15    1    1    2    0    0  0.41907773189E+01  0.77247016980E+01 -0.24010182978E+02  0.25629675115E+02  0.17770000000E+01 0.  1.
</event>
<event>
 6    1  0.8353910E-003  0.1859852E+03  0.7546771E-02  0.1065714E+00
        -11   -1    0    0    0    0  0.00000000000E+00  0.00000000000E+00  0.18250000000E+03  0.18250000000E+03  0.00000000000E+00 0.  1.
         11   -1    0    0    0    0 -0.00000000000E+00 -0.00000000000E+00 -0.18250000000E+03  0.18250000000E+03  0.00000000000E+00 0. -1.
        -11    1    1    2    0    0 -0.42093838326E+01 -0.12772056919E+00  0.15699926381E+03  0.15705573552E+03  0.00000000000E+00 0.  1.
         11    1    1    2    0    0 -0.23374750019E+01 -0.58728129780E+01 -0.17890315263E+03  0.17901478079E+03  0.00000000000E+00 0. -1.
        -15    1    1    2    0    0  0.14849014560E+01  0.52055764553E+01  0.22739246387E+02  0.23442141835E+02  0.17770000000E+01 0. -1.
         15    1    1    2    0    0  0.50619573785E+01  0.79495709186E+00 -0.83535756342E+00  0.54873418463E+01  0.17770000000E+01 0.  1.
</event>
<event>
 6    1  0.8353910E-003  0.1826329E+03  0.7546771E-02  0.1068349E+00
        -11   -1    0    0    0    0  0.00000000000E+00  0.00000000000E+00  0.18250000000E+03  0.18250000000E+03  0.00000000000E+00 0. -1.
         11   -1    0    0    0    0 -0.00000000000E+00 -0.00000000000E+00 -0.18250000000E+03  0.18250000000E+03  0.00000000000E+00 0. -1.
        -11    1    1    2    0    0  0.33184899607E+01 -0.90692558409E+00  0.18233462151E+03  0.18236707239E+03  0.00000000000E+00 0. -1.
         11    1    1    2    0    0  0.42224339559E+00  0.20073993472E+01 -0.11101747308E+03  0.11103642317E+03  0.00000000000E+00 0. -1.
        -15    1    1    2    0    0 -0.10070547289E+01 -0.19193338637E+01 -0.24756941748E+02  0.24915093727E+02  0.17770000000E+01 0.  1.
         15    1    1    2    0    0 -0.27336786273E+01  0.81886010056E+00 -0.46560206682E+02  0.46681410711E+02  0.17770000000E+01 0. -1.
</event>
<event>
 6    1  0.8353910E-003  0.1831996E+03  0.7546771E-02  0.1067899E+00
        -11   -1    0    0    0    0  0.00000000000E+00  0.00000000000E+00  0.18250000000E+03  0.18250000000E+03  0.00000000000E+00 0.  1.
         11   -1    0    0    0    0 -0.00000000000E+00 -0.00000000000E+00 -0.18250000000E+03  0.18250000000E+03  0.00000000000E+00 0. -1.
        -11    1    1    2    0    0  0.47040792225E+01  0.13989344011E+01  0.18173413096E+03  0.18180038431E+03  0.00000000000E+00 0.  1.
         11    1    1    2    0    0  0.63441041718E-01  0.13159234700E+01 -0.28639232382E+02  0.28669518845E+02  0.00000000000E+00 0. -1.
        -15    1    1    2    0    0 -0.66136524142E+01 -0.39912890096E+01 -0.21672447866E+02  0.23076470955E+02  0.17770000000E+01 0.  1.
         15    1    1    2    0    0  0.18461321500E+01  0.12764311384E+01 -0.13142245071E+03  0.13145362589E+03  0.17770000000E+01 0. -1.
</event>
<event>
 6    1  0.8353910E-003  0.2283279E+03  0.7546771E-02  0.1036891E+00
        -11   -1    0    0    0    0  0.00000000000E+00  0.00000000000E+00  0.18250000000E+03  0.18250000000E+03  0.00000000000E+00 0. -1.
         11   -1    0    0    0    0 -0.00000000000E+00 -0.00000000000E+00 -0.18250000000E+03  0.18250000000E+03  0.00000000000E+00 0.  1.
        -11    1    1    2    0    0 -0.23798635489E+01  0.32301029014E+01  0.98681012678E+02  0.98762541372E+02  0.00000000000E+00 0. -1.
         11    1    1    2    0    0  0.15741894031E+02  0.35042843195E+00 -0.13576204180E+03  0.13667209672E+03  0.00000000000E+00 0.  1.
        -15    1    1    2    0    0 -0.30673401783E+02 -0.14483160098E+01 -0.40031973956E+02  0.50484372473E+02  0.17770000000E+01 0.  1.
         15    1    1    2    0    0  0.17311371301E+02 -0.21322153236E+01  0.77113003075E+02  0.79080989439E+02  0.17770000000E+01 0. -1.
</event>
<event>
 6    1  0.8353910E-003  0.1728578E+03  0.7546771E-02  0.1076400E+00
        -11   -1    0    0    0    0  0.00000000000E+00  0.00000000000E+00  0.18250000000E+03  0.18250000000E+03  0.00000000000E+00 0.  1.
         11   -1    0    0    0    0 -0.00000000000E+00 -0.00000000000E+00 -0.18250000000E+03  0.18250000000E+03  0.00000000000E+00 0. -1.
        -11    1    1    2    0    0  0.27531037768E+01 -0.28366231008E+01  0.17267546677E+03  0.17272070760E+03  0.00000000000E+00 0.  1.
         11    1    1    2    0    0  0.82313518290E+01  0.37462220739E+01 -0.17293427145E+03  0.17317058518E+03  0.00000000000E+00 0. -1.
        -15    1    1    2    0    0 -0.25364528480E+01 -0.34714440791E+01  0.66145462904E+01  0.80866846527E+01  0.17770000000E+01 0.  1.
         15    1    1    2    0    0 -0.84480027578E+01  0.25618451060E+01 -0.63557416110E+01  0.11022022563E+02  0.17770000000E+01 0. -1.
</event>
<event>
 6    1  0.8388471E-003  0.1945631E+03  0.7546771E-02  0.1059238E+00
        -11   -1    0    0    0    0  0.00000000000E+00  0.00000000000E+00  0.18250000000E+03  0.18250000000E+03  0.00000000000E+00 0.  1.
         11   -1    0    0    0    0 -0.00000000000E+00 -0.00000000000E+00 -0.18250000000E+03  0.18250000000E+03  0.00000000000E+00 0.  1.
        -11    1    1    2    0    0  0.13899861534E+02  0.56557896505E+00  0.12449706448E+03  0.12527188469E+03  0.00000000000E+00 0.  1.
         11    1    1    2    0    0 -0.16710911827E+01 -0.42230160029E+01 -0.17037636190E+03  0.17043688305E+03  0.00000000000E+00 0.  1.
        -15    1    1    2    0    0 -0.18094368446E+02  0.17174604207E+01  0.55101796779E+02  0.58049302985E+02  0.17770000000E+01 0. -1.
         15    1    1    2    0    0  0.58655980947E+01  0.19399766172E+01 -0.92224993587E+01  0.11241929270E+02  0.17770000000E+01 0.  1.
</event>
<event>
 6    1  0.8353910E-003  0.1746494E+03  0.7546771E-02  0.1074882E+00
        -11   -1    0    0    0    0  0.00000000000E+00  0.00000000000E+00  0.18250000000E+03  0.18250000000E+03  0.00000000000E+00 0.  1.
         11   -1    0    0    0    0 -0.00000000000E+00 -0.00000000000E+00 -0.18250000000E+03  0.18250000000E+03  0.00000000000E+00 0.  1.
        -11    1    1    2    0    0  0.40136331173E+01 -0.51349255379E+01  0.17540083370E+03  0.17552187662E+03  0.00000000000E+00 0.  1.
         11    1    1    2    0    0 -0.36297658805E+01 -0.18098089394E+01 -0.17380240802E+03  0.17384972718E+03  0.00000000000E+00 0.  1.
        -15    1    1    2    0    0  0.39121753304E+01 -0.23762519135E+01 -0.17458686814E+01  0.52112834720E+01  0.17770000000E+01 0.  1.
         15    1    1    2    0    0 -0.42960425672E+01  0.93209863909E+01  0.14744300033E+00  0.10417112723E+02  0.17770000000E+01 0.  1.
</event>
<event>
 6    1  0.8353910E-003  0.1829542E+03  0.7546771E-02  0.1068094E+00
        -11   -1    0    0    0    0  0.00000000000E+00  0.00000000000E+00  0.18250000000E+03  0.18250000000E+03  0.00000000000E+00 0. -1.
         11   -1    0    0    0    0 -0.00000000000E+00 -0.00000000000E+00 -0.18250000000E+03  0.18250000000E+03  0.00000000000E+00 0.  1.
        -11    1    1    2    0    0 -0.32898160889E+01 -0.15936936847E+01  0.18200904679E+03  0.18204575212E+03  0.00000000000E+00 0. -1.
         11    1    1    2    0    0 -0.28889229589E+01 -0.14845491653E+01 -0.14113968164E+03  0.14117705017E+03  0.00000000000E+00 0.  1.
        -15    1    1    2    0    0  0.43460506084E+01  0.30271841558E+01 -0.20468969999E+02  0.21217645054E+02  0.17770000000E+01 0.  1.
         15    1    1    2    0    0  0.18326884394E+01  0.51058694205E-01 -0.20400395159E+02  0.20559552659E+02  0.17770000000E+01 0. -1.
</event>
<event>
 6    1  0.8353910E-003  0.1829720E+03  0.7546771E-02  0.1068080E+00
        -11   -1    0    0    0    0  0.00000000000E+00  0.00000000000E+00  0.18250000000E+03  0.18250000000E+03  0.00000000000E+00 0. -1.
         11   -1    0    0    0    0 -0.00000000000E+00 -0.00000000000E+00 -0.18250000000E+03  0.18250000000E+03  0.00000000000E+00 0.  1.
        -11    1    1    2    0    0 -0.31094501032E+01 -0.73111626135E+00  0.18199992373E+03  0.18202795238E+03  0.00000000000E+00 0. -1.
         11    1    1    2    0    0 -0.23403175707E+01 -0.21606072041E+00 -0.45814587169E+02  0.45874831510E+02  0.00000000000E+00 0.  1.
        -15    1    1    2    0    0  0.52958494521E+00  0.67522424204E+01 -0.88425622379E+02  0.88702433225E+02  0.17770000000E+01 0.  1.
         15    1    1    2    0    0  0.49201827287E+01 -0.58050654386E+01 -0.47759714180E+02  0.48394782884E+02  0.17770000000E+01 0. -1.
</event>
<event>
 6    1  0.8353910E-003  0.1842393E+03  0.7546771E-02  0.1067079E+00
        -11   -1    0    0    0    0  0.00000000000E+00  0.00000000000E+00  0.18250000000E+03  0.18250000000E+03  0.00000000000E+00 0.  1.
         11   -1    0    0    0    0 -0.00000000000E+00 -0.00000000000E+00 -0.18250000000E+03  0.18250000000E+03  0.00000000000E+00 0.  1.
        -11    1    1    2    0    0  0.41529198189E+01 -0.42239580063E+01  0.18066357596E+03  0.18076066011E+03  0.00000000000E+00 0.  1.
         11    1    1    2    0    0 -0.10552596283E+01  0.43950832823E-01 -0.61520847875E+02  0.61529913276E+02  0.00000000000E+00 0.  1.
        -15    1    1    2    0    0 -0.92639454026E+01  0.67346294609E+00 -0.11818467262E+02  0.15136318383E+02  0.17770000000E+01 0. -1.
         15    1    1    2    0    0  0.61662852121E+01  0.35065442274E+01 -0.10732426082E+03  0.10757310824E+03  0.17770000000E+01 0.  1.
</event>
<event>
 6    1  0.8353910E-003  0.1903035E+03  0.7546771E-02  0.1062408E+00
        -11   -1    0    0    0    0  0.00000000000E+00  0.00000000000E+00  0.18250000000E+03  0.18250000000E+03  0.00000000000E+00 0.  1.
         11   -1    0    0    0    0 -0.00000000000E+00 -0.00000000000E+00 -0.18250000000E+03  0.18250000000E+03  0.00000000000E+00 0. -1.
        -11    1    1    2    0    0  0.14305389612E+00 -0.61269107184E+01  0.99536241072E+02  0.99724735076E+02  0.00000000000E+00 0.  1.
         11    1    1    2    0    0  0.75898935706E+01  0.38328612752E+01 -0.17448948660E+03  0.17469653186E+03  0.00000000000E+00 0. -1.
        -15    1    1    2    0    0  0.85226167413E+01  0.10215535323E+02  0.70639900781E+02  0.71903723613E+02  0.17770000000E+01 0.  1.
         15    1    1    2    0    0 -0.16255564208E+02 -0.79214858800E+01  0.43133447430E+01  0.18675009455E+02  0.17770000000E+01 0. -1.
</event>
<event>
 6    1  0.8353910E-003  0.2086079E+03  0.7546771E-02  0.1049385E+00
        -11   -1    0    0    0    0  0.00000000000E+00  0.00000000000E+00  0.18250000000E+03  0.18250000000E+03  0.00000000000E+00 0.  1.
         11   -1    0    0    0    0 -0.00000000000E+00 -0.00000000000E+00 -0.18250000000E+03  0.18250000000E+03  0.00000000000E+00 0.  1.
        -11    1    1    2    0    0  0.49957195827E+01 -0.32920514173E+01  0.15627760054E+03  0.15639208179E+03  0.00000000000E+00 0.  1.
         11    1    1    2    0    0 -0.20439790986E+01  0.15334010893E+01 -0.13237014463E+03  0.13239480488E+03  0.00000000000E+00 0.  1.
        -15    1    1    2    0    0 -0.18899466603E+02 -0.32562268919E+01  0.20860770684E+02  0.28392293567E+02  0.17770000000E+01 0. -1.
         15    1    1    2    0    0  0.15947726119E+02  0.50148772198E+01 -0.44768226588E+02  0.47820819762E+02  0.17770000000E+01 0.  1.
</event>
<event>
 6    1  0.8353910E-003  0.1438214E+03  0.7546771E-02  0.1104238E+00
        -11   -1    0    0    0    0  0.00000000000E+00  0.00000000000E+00  0.18250000000E+03  0.18250000000E+03  0.00000000000E+00 0. -1.
         11   -1    0    0    0    0 -0.00000000000E+00 -0.00000000000E+00 -0.18250000000E+03  0.18250000000E+03  0.00000000000E+00 0. -1.
        -11    1    1    2    0    0 -0.24656573262E+02  0.25412106429E+02  0.15496885861E+03  0.15896247638E+03  0.00000000000E+00 0. -1.
         11    1    1    2    0    0 -0.59571321848E+01 -0.17222087756E+01 -0.13203259370E+03  0.13217813445E+03  0.00000000000E+00 0. -1.
        -15    1    1    2    0    0  0.30337769621E+02 -0.50357142952E+01 -0.38635075444E+02  0.49412199583E+02  0.17770000000E+01 0. -1.
         15    1    1    2    0    0  0.27593582631E+00 -0.18654183358E+02  0.15698810540E+02  0.24447189587E+02  0.17770000000E+01 0.  1.
</event>
<event>
 6    1  0.8353910E-003  0.1967099E+03  0.7546771E-02  0.1057675E+00
        -11   -1    0    0    0    0  0.00000000000E+00  0.00000000000E+00  0.18250000000E+03  0.18250000000E+03  0.00000000000E+00 0.  1.
         11   -1    0    0    0    0 -0.00000000000E+00 -0.00000000000E+00 -0.18250000000E+03  0.18250000000E+03  0.00000000000E+00 0.  1.
        -11    1    1    2    0    0 -0.63969363681E+01 -0.31034412933E+01  0.15755525115E+03  0.15771559627E+03  0.00000000000E+00 0.  1.
         11    1    1    2    0    0 -0.96279630133E-02  0.28088167171E+01 -0.16826664255E+03  0.16829008449E+03  0.00000000000E+00 0.  1.
        -15    1    1    2    0    0  0.78916209940E+01  0.45154399482E+01  0.23537169069E+02  0.25294721517E+02  0.17770000000E+01 0. -1.
         15    1    1    2    0    0 -0.14850566629E+01 -0.42208153720E+01 -0.12825777673E+02  0.13699597718E+02  0.17770000000E+01 0.  1.
</event>
<event>
 6    1  0.8353910E-003  0.1832724E+03  0.7546771E-02  0.1067842E+00
        -11   -1    0    0    0    0  0.00000000000E+00  0.00000000000E+00  0.18250000000E+03  0.18250000000E+03  0.00000000000E+00 0.  1.
         11   -1    0    0    0    0 -0.00000000000E+00 -0.00000000000E+00 -0.18250000000E+03  0.18250000000E+03  0.00000000000E+00 0. -1.
        -11    1    1    2    0    0 -0.53589634148E+00  0.34219092007E+01  0.18169459785E+03  0.18172760807E+03  0.00000000000E+00 0.  1.
         11    1    1    2    0    0 -0.23487844094E+01 -0.62692444778E+00 -0.84187059897E+02  0.84222151935E+02  0.00000000000E+00 0. -1.
        -15    1    1    2    0    0  0.24507941196E+00  0.11829574611E+01 -0.93488439207E+00  0.23433288500E+01  0.17770000000E+01 0. -1.
         15    1    1    2    0    0  0.26396013390E+01 -0.39779422140E+01 -0.96572653557E+02  0.96706911147E+02  0.17770000000E+01 0. -1.
</event>
<event>
 6    1  0.8353910E-003  0.1549186E+03  0.7546771E-02  0.1092811E+00
        -11   -1    0    0    0    0  0.00000000000E+00  0.00000000000E+00  0.18250000000E+03  0.18250000000E+03  0.00000000000E+00 0.  1.
         11   -1    0    0    0    0 -0.00000000000E+00 -0.00000000000E+00 -0.18250000000E+03  0.18250000000E+03  0.00000000000E+00 0.  1.
        -11    1    1    2    0    0 -0.11811406803E+01  0.23644343443E+01  0.15251775374E+03  0.15254065310E+03  0.00000000000E+00 0.  1.
         11    1    1    2    0    0  0.29220011310E+00 -0.13562807308E+02 -0.15694653584E+03  0.15753174358E+03  0.00000000000E+00 0.  1.
        -15    1    1    2    0    0  0.20894099388E+01  0.21437264467E+02 -0.19312575089E+02  0.28983706238E+02  0.17770000000E+01 0. -1.
         15    1    1    2    0    0 -0.12004693716E+01 -0.10238891503E+02  0.23741357186E+02  0.25943897085E+02  0.17770000000E+01 0.  1.
</event>
<event>
 6    1  0.8353910E-003  0.1834498E+03  0.7546771E-02  0.1067701E+00
        -11   -1    0    0    0    0  0.00000000000E+00  0.00000000000E+00  0.18250000000E+03  0.18250000000E+03  0.00000000000E+00 0. -1.
         11   -1    0    0    0    0 -0.00000000000E+00 -0.00000000000E+00 -0.18250000000E+03  0.18250000000E+03  0.00000000000E+00 0. -1.
        -11    1    1    2    0    0  0.73379772618E+00  0.31674793435E+00  0.53285896555E+02  0.53291890191E+02  0.00000000000E+00 0. -1.
         11    1    1    2    0    0 -0.65448625020E+01  0.60916129512E+01 -0.18132990627E+03  0.18155020761E+03  0.00000000000E+00 0. -1.
        -15    1    1    2    0    0 -0.37729127083E+01 -0.16402275568E+01  0.99809305463E+02  0.99909861389E+02  0.17770000000E+01 0. -1.
         15    1    1    2    0    0  0.95839774841E+01 -0.47681333288E+01  0.28234704253E+02  0.30248040814E+02  0.17770000000E+01 0.  1.
</event>
<event>
 6    1  0.8353910E-003  0.1838550E+03  0.7546771E-02  0.1067381E+00
        -11   -1    0    0    0    0  0.00000000000E+00  0.00000000000E+00  0.18250000000E+03  0.18250000000E+03  0.00000000000E+00 0. -1.
         11   -1    0    0    0    0 -0.00000000000E+00 -0.00000000000E+00 -0.18250000000E+03  0.18250000000E+03  0.00000000000E+00 0. -1.
        -11    1    1    2    0    0 -0.33113742947E+01 -0.25527888892E+01  0.18109671232E+03  0.18114497273E+03  0.00000000000E+00 0. -1.
         11    1    1    2    0    0  0.17659905551E+01  0.27514283458E+01 -0.17431120460E+03  0.17434186282E+03  0.00000000000E+00 0. -1.
        -15    1    1    2    0    0  0.22926166561E+01  0.11066346524E+01 -0.97573483952E+00  0.32543077394E+01  0.17770000000E+01 0.  1.
         15    1    1    2    0    0 -0.74723291660E+00 -0.13052741090E+01 -0.58097728766E+01  0.62588567174E+01  0.17770000000E+01 0. -1.
</event>
<event>
 6    1  0.1212636E-002  0.1846581E+03  0.7546771E-02  0.1066750E+00
        -11   -1    0    0    0    0  0.00000000000E+00  0.00000000000E+00  0.18250000000E+03  0.18250000000E+03  0.00000000000E+00 0.  1.
         11   -1    0    0    0    0 -0.00000000000E+00 -0.00000000000E+00 -0.18250000000E+03  0.18250000000E+03  0.00000000000E+00 0.  1.
        -11    1    1    2    0    0  0.23272996966E+01 -0.53339964425E+01  0.18024795597E+03  0.18034187942E+03  0.00000000000E+00 0.  1.
         11    1    1    2    0    0 -0.29602699889E+00 -0.17114282662E+01 -0.12665536331E+03  0.12666727151E+03  0.00000000000E+00 0.  1.
        -15    1    1    2    0    0 -0.54880547113E+00  0.35336837548E+01 -0.53636495880E+02  0.53784937740E+02  0.17770000000E+01 0.  1.
         15    1    1    2    0    0 -0.14824672266E+01  0.35117409538E+01  0.43903217963E-01  0.42059113278E+01  0.17770000000E+01 0. -1.
</event>
<event>
 6    1  0.8353910E-003  0.1845369E+03  0.7546771E-02  0.1066845E+00
        -11   -1    0    0    0    0  0.00000000000E+00  0.00000000000E+00  0.18250000000E+03  0.18250000000E+03  0.00000000000E+00 0.  1.
         11   -1    0    0    0    0 -0.00000000000E+00 -0.00000000000E+00 -0.18250000000E+03  0.18250000000E+03  0.00000000000E+00 0. -1.
        -11    1    1    2    0    0 -0.14695369929E+01 -0.27315072260E+01  0.18043646287E+03  0.18046312035E+03  0.00000000000E+00 0.  1.
         11    1    1    2    0    0  0.40809249368E+01  0.52455622797E+01 -0.17657021235E+03  0.17669524544E+03  0.00000000000E+00 0. -1.
        -15    1    1    2    0    0  0.85502275259E+00 -0.33465820886E+00 -0.24414339670E+01  0.31561667952E+01  0.17770000000E+01 0.  1.
         15    1    1    2    0    0 -0.34664106965E+01 -0.21793968449E+01 -0.14248165594E+01  0.46854674209E+01  0.17770000000E+01 0.  1.
</event>
<event>
 6    1  0.8353910E-003  0.1877114E+03  0.7546771E-02  0.1064381E+00
        -11   -1    0    0    0    0  0.00000000000E+00  0.00000000000E+00  0.18250000000E+03  0.18250000000E+03  0.00000000000E+00 0. -1.
         11   -1    0    0    0    0 -0.00000000000E+00 -0.00000000000E+00 -0.18250000000E+03  0.18250000000E+03  0.00000000000E+00 0.  1.
        -11    1    1    2    0    0  0.40707918072E+01 -0.38398993648E+01  0.17125778443E+03  0.17134918996E+03  0.00000000000E+00 0. -1.
         11    1    1    2    0    0 -0.13637084175E+01  0.42059250047E+01 -0.17723350081E+03  0.17728864407E+03  0.00000000000E+00 0.  1.
        -15    1    1    2    0    0 -0.65121450818E+01 -0.45851334073E+01  0.34402476815E+00  0.81674698635E+01  0.17770000000E+01 0.  1.
         15    1    1    2    0    0  0.38050616921E+01  0.42191077675E+01  0.56316916149E+01  0.81946961066E+01  0.17770000000E+01 0. -1.
</event>
<event>
 6    1  0.8353910E-003  0.1788639E+03  0.7546771E-02  0.1071387E+00
        -11   -1    0    0    0    0  0.00000000000E+00  0.00000000000E+00  0.18250000000E+03  0.18250000000E+03  0.00000000000E+00 0. -1.
         11   -1    0    0    0    0 -0.00000000000E+00 -0.00000000000E+00 -0.18250000000E+03  0.18250000000E+03  0.00000000000E+00 0.  1.
        -11    1    1    2    0    0 -0.10216438927E+01  0.24106287525E+01  0.17789811985E+03  0.17791738514E+03  0.00000000000E+00 0. -1.
         11    1    1    2    0    0  0.58432145365E+00 -0.58532857839E+01 -0.17973569643E+03  0.17983192975E+03  0.00000000000E+00 0.  1.
        -15    1    1    2    0    0 -0.11730036756E+01  0.31545149286E+01 -0.56066284084E+00  0.38469434463E+01  0.17770000000E+01 0.  1.
         15    1    1    2    0    0  0.16103261147E+01  0.28814210278E+00  0.23982394178E+01  0.34037416724E+01  0.17770000000E+01 0.  1.
</event>
<event>
 6    1  0.8353910E-003  0.1852162E+03  0.7546771E-02  0.1066313E+00
        -11   -1    0    0    0    0  0.00000000000E+00  0.00000000000E+00  0.18250000000E+03  0.18250000000E+03  0.00000000000E+00 0.  1.
         11   -1    0    0    0    0 -0.00000000000E+00 -0.00000000000E+00 -0.18250000000E+03  0.18250000000E+03  0.00000000000E+00 0. -1.
        -11    1    1    2    0    0  0.26243831847E+01  0.18615600266E+01  0.17975502566E+03  0.17978382031E+03  0.00000000000E+00 0.  1.
         11    1    1    2    0    0  0.27435876930E+01  0.14890609145E+01 -0.16047238479E+03  0.16050274408E+03  0.00000000000E+00 0. -1.
        -15    1    1    2    0    0 -0.40437064709E+01 -0.57727174022E+01 -0.20062895094E+02  0.21339009274E+02  0.17770000000E+01 0.  1.
         15    1    1    2    0    0 -0.13242644068E+01  0.24220964611E+01  0.78025422330E+00  0.33744263422E+01  0.17770000000E+01 0. -1.
</event>
<event>
 6    1  0.8353910E-003  0.1831767E+03  0.7546771E-02  0.1067917E+00
        -11   -1    0    0    0    0  0.00000000000E+00  0.00000000000E+00  0.18250000000E+03  0.18250000000E+03  0.00000000000E+00 0.  1.
         11   -1    0    0    0    0 -0.00000000000E+00 -0.00000000000E+00 -0.18250000000E+03  0.18250000000E+03  0.00000000000E+00 0. -1.
        -11    1    1    2    0    0  0.22660832704E+01  0.99357723918E+00  0.18180643491E+03  0.18182327163E+03  0.00000000000E+00 0.  1.
         11    1    1    2    0    0 -0.23999825083E+01  0.39467739840E+01 -0.15854054999E+03  0.15860782746E+03  0.00000000000E+00 0. -1.
        -15    1    1    2    0    0  0.39930826522E+00 -0.31778647921E+01 -0.53903112429E+01  0.65170128144E+01  0.17770000000E+01 0.  1.
         15    1    1    2    0    0 -0.26540902735E+00 -0.17624864311E+01 -0.17875573682E+02  0.18051888096E+02  0.17770000000E+01 0. -1.
</event>
<event>
 6    1  0.8353910E-003  0.1832450E+03  0.7546771E-02  0.1067863E+00
        -11   -1    0    0    0    0  0.00000000000E+00  0.00000000000E+00  0.18250000000E+03  0.18250000000E+03  0.00000000000E+00 0. -1.
         11   -1    0    0    0    0 -0.00000000000E+00 -0.00000000000E+00 -0.18250000000E+03  0.18250000000E+03  0.00000000000E+00 0.  1.
        -11    1    1    2    0    0  0.42181124746E+01 -0.94589624840E-01  0.18170601193E+03  0.18175498946E+03  0.00000000000E+00 0. -1.
         11    1    1    2    0    0  0.24487589532E+01  0.12403863753E+01 -0.15091389580E+03  0.15093885824E+03  0.00000000000E+00 0.  1.
        -15    1    1    2    0    0 -0.15902898227E+01 -0.32080919586E+01 -0.13542203139E+02  0.14119839610E+02  0.17770000000E+01 0. -1.
         15    1    1    2    0    0 -0.50765816051E+01  0.20622952082E+01 -0.17249912991E+02  0.18186312697E+02  0.17770000000E+01 0. -1.
</event>
<event>
 6    1  0.8353910E-003  0.1849501E+03  0.7546771E-02  0.1066521E+00
        -11   -1    0    0    0    0  0.00000000000E+00  0.00000000000E+00  0.18250000000E+03  0.18250000000E+03  0.00000000000E+00 0.  1.
         11   -1    0    0    0    0 -0.00000000000E+00 -0.00000000000E+00 -0.18250000000E+03  0.18250000000E+03  0.00000000000E+00 0. -1.
        -11    1    1    2    0    0 -0.22354144783E+01  0.20838772021E+01  0.18002397241E+03  0.18004991048E+03  0.00000000000E+00 0.  1.
         11    1    1    2    0    0 -0.24377627115E+01 -0.42768489251E+01 -0.17634941596E+03  0.17641811311E+03  0.00000000000E+00 0. -1.
        -15    1    1    2    0    0  0.29316825757E+01 -0.37829014187E+00 -0.65054884524E-01  0.34496126296E+01  0.17770000000E+01 0.  1.
         15    1    1    2    0    0  0.17414946141E+01  0.25712618648E+01 -0.36095015633E+01  0.50823637812E+01  0.17770000000E+01 0. -1.
</event>
<event>
 6    1  0.8353910E-003  0.1875039E+03  0.7546771E-02  0.1064540E+00
        -11   -1    0    0    0    0  0.00000000000E+00  0.00000000000E+00  0.18250000000E+03  0.18250000000E+03  0.00000000000E+00 0. -1.
         11   -1    0    0    0    0 -0.00000000000E+00 -0.00000000000E+00 -0.18250000000E+03  0.18250000000E+03  0.00000000000E+00 0. -1.
        -11    1    1    2    0    0 -0.19041365404E+02 -0.19106335785E+02  0.17543445510E+03  0.17749612305E+03  0.00000000000E+00 0. -1.
         11    1    1    2    0    0  0.34328402709E+01 -0.43029098642E+01 -0.35083487775E+02  0.35512681398E+02  0.00000000000E+00 0. -1.
        -15    1    1    2    0    0  0.85299599173E+01  0.36342053242E+02 -0.12567068470E+03  0.13110981569E+03  0.17770000000E+01 0. -1.
         15    1    1    2    0    0  0.70785652159E+01 -0.12932807592E+02 -0.14680282626E+02  0.20881379857E+02  0.17770000000E+01 0.  1.
</event>
<event>
 6    1  0.8353910E-003  0.1706079E+03  0.7546771E-02  0.1078336E+00
        -11   -1    0    0    0    0  0.00000000000E+00  0.00000000000E+00  0.18250000000E+03  0.18250000000E+03  0.00000000000E+00 0.  1.
         11   -1    0    0    0    0 -0.00000000000E+00 -0.00000000000E+00 -0.18250000000E+03  0.18250000000E+03  0.00000000000E+00 0.  1.
        -11    1    1    2    0    0 -0.65955386161E+01 -0.25160358935E+01  0.16921940392E+03  0.16936657943E+03  0.00000000000E+00 0.  1.
         11    1    1    2    0    0  0.53615697794E+01 -0.20540222730E+01 -0.17179578581E+03  0.17189170271E+03  0.00000000000E+00 0.  1.
        -15    1    1    2    0    0  0.64900897059E+01  0.10938666045E+02  0.65393986326E+01  0.14411701590E+02  0.17770000000E+01 0. -1.
         15    1    1    2    0    0 -0.52561208693E+01 -0.63686078784E+01 -0.39630167441E+01  0.93300162709E+01  0.17770000000E+01 0.  1.
</event>
<event>
 6    1  0.8353910E-003  0.1830833E+03  0.7546771E-02  0.1067991E+00
        -11   -1    0    0    0    0  0.00000000000E+00  0.00000000000E+00  0.18250000000E+03  0.18250000000E+03  0.00000000000E+00 0.  1.
         11   -1    0    0    0    0 -0.00000000000E+00 -0.00000000000E+00 -0.18250000000E+03  0.18250000000E+03  0.00000000000E+00 0.  1.
        -11    1    1    2    0    0  0.20368060598E+01 -0.15390440749E+01  0.18189875834E+03  0.18191667191E+03  0.00000000000E+00 0.  1.
         11    1    1    2    0    0  0.61312244524E+00 -0.23688039395E+01 -0.13500057305E+03  0.13502274577E+03  0.00000000000E+00 0.  1.
        -15    1    1    2    0    0 -0.11544951378E+01  0.11636674164E+01 -0.23632549367E+01  0.33807815332E+01  0.17770000000E+01 0. -1.
         15    1    1    2    0    0 -0.14954333672E+01  0.27441805980E+01 -0.44534930344E+02  0.44679800781E+02  0.17770000000E+01 0.  1.
</event>
<event>
 6    1  0.8353910E-003  0.1843045E+03  0.7546771E-02  0.1067027E+00
        -11   -1    0    0    0    0  0.00000000000E+00  0.00000000000E+00  0.18250000000E+03  0.18250000000E+03  0.00000000000E+00 0. -1.
         11   -1    0    0    0    0 -0.00000000000E+00 -0.00000000000E+00 -0.18250000000E+03  0.18250000000E+03  0.00000000000E+00 0. -1.
        -11    1    1    2    0    0 -0.23274089364E+01  0.29649081331E+01  0.18065617421E+03  0.18069549190E+03  0.00000000000E+00 0. -1.
         11    1    1    2    0    0  0.12428714656E+01  0.13712503090E+01 -0.28771950122E+02  0.28831409448E+02  0.00000000000E+00 0. -1.
        -15    1    1    2    0    0 -0.78144140069E+01 -0.19745239717E+01 -0.14042050105E+03  0.14066285457E+03  0.17770000000E+01 0. -1.
         15    1    1    2    0    0  0.88989514777E+01 -0.23616344705E+01 -0.11463723044E+02  0.14810244083E+02  0.17770000000E+01 0.  1.
</event>
<event>
 6    1  0.8353910E-003  0.1828440E+03  0.7546771E-02  0.1068181E+00
        -11   -1    0    0    0    0  0.00000000000E+00  0.00000000000E+00  0.18250000000E+03  0.18250000000E+03  0.00000000000E+00 0.  1.
         11   -1    0    0    0    0 -0.00000000000E+00 -0.00000000000E+00 -0.18250000000E+03  0.18250000000E+03  0.00000000000E+00 0.  1.
        -11    1    1    2    0    0  0.19201016766E+01 -0.10815197018E+01  0.13993692476E+03  0.13995427605E+03  0.00000000000E+00 0.  1.
         11    1    1    2    0    0 -0.26318957221E+01  0.50385004445E+00 -0.18213624114E+03  0.18215595263E+03  0.00000000000E+00 0.  1.
        -15    1    1    2    0    0  0.27706680351E+01 -0.10157430310E+01  0.10881405924E+02  0.11413634791E+02  0.17770000000E+01 0. -1.
         15    1    1    2    0    0 -0.20588739895E+01  0.15934126883E+01  0.31317910463E+02  0.31476136530E+02  0.17770000000E+01 0.  1.
</event>
<event>
 6    1  0.8353910E-003  0.1836204E+03  0.7546771E-02  0.1067566E+00
        -11   -1    0    0    0    0  0.00000000000E+00  0.00000000000E+00  0.18250000000E+03  0.18250000000E+03  0.00000000000E+00 0.  1.
         11   -1    0    0    0    0 -0.00000000000E+00 -0.00000000000E+00 -0.18250000000E+03  0.18250000000E+03  0.00000000000E+00 0.  1.
        -11    1    1    2    0    0 -0.36697047590E+01  0.22832673137E+01  0.16860548901E+03  0.16866087562E+03  0.00000000000E+00 0.  1.
         11    1    1    2    0    0  0.27152436444E+01  0.31939933202E+01 -0.18133111776E+03  0.18137956999E+03  0.00000000000E+00 0.  1.
        -15    1    1    2    0    0 -0.84188041715E+00 -0.74749174031E+00  0.59985338123E+01  0.63567006722E+01  0.17770000000E+01 0. -1.
         15    1    1    2    0    0  0.17963415317E+01 -0.47297688936E+01  0.67270949434E+01  0.86028537163E+01  0.17770000000E+01 0.  1.
</event>
<event>
 6    1  0.8353910E-003  0.1280558E+03  0.7546771E-02  0.1122584E+00
        -11   -1    0    0    0    0  0.00000000000E+00  0.00000000000E+00  0.18250000000E+03  0.18250000000E+03  0.00000000000E+00 0.  1.
         11   -1    0    0    0    0 -0.00000000000E+00 -0.00000000000E+00 -0.18250000000E+03  0.18250000000E+03  0.00000000000E+00 0. -1.
        -11    1    1    2    0    0  0.16366644264E+01  0.12745081340E+02  0.14598438224E+03  0.14654881653E+03  0.00000000000E+00 0.  1.
         11    1    1    2    0    0 -0.39561082993E+01 -0.19026019108E+01 -0.67743436316E+02  0.67885520185E+02  0.00000000000E+00 0. -1.
        -15    1    1    2    0    0 -0.17910266332E+02 -0.12807477803E+02 -0.11034102544E+03  0.11253047921E+03  0.17770000000E+01 0. -1.
         15    1    1    2    0    0  0.20229710205E+02  0.19649983742E+01  0.32100079515E+02  0.38035184073E+02  0.17770000000E+01 0.  1.
</event>
<event>
 6    1  0.8353910E-003  0.1840201E+03  0.7546771E-02  0.1067251E+00
        -11   -1    0    0    0    0  0.00000000000E+00  0.00000000000E+00  0.18250000000E+03  0.18250000000E+03  0.00000000000E+00 0.  1.
         11   -1    0    0    0    0 -0.00000000000E+00 -0.00000000000E+00 -0.18250000000E+03  0.18250000000E+03  0.00000000000E+00 0.  1.
        -11    1    1    2    0    0 -0.13899127851E+01  0.41729806388E+01  0.18092641221E+03  0.18097986700E+03  0.00000000000E+00 0.  1.
         11    1    1    2    0    0  0.80277190135E-01 -0.23325231458E+01 -0.17189618775E+03  0.17191203120E+03  0.00000000000E+00 0.  1.
        -15    1    1    2    0    0  0.40135371217E-01 -0.35136561353E+01 -0.17192555647E+01  0.42966218104E+01  0.17770000000E+01 0. -1.
         15    1    1    2    0    0  0.12695002237E+01  0.16731986423E+01 -0.73109688904E+01  0.78114799898E+01  0.17770000000E+01 0.  1.
</event>
<event>
 6    1  0.8353910E-003  0.1846707E+03  0.7546771E-02  0.1066740E+00
        -11   -1    0    0    0    0  0.00000000000E+00  0.00000000000E+00  0.18250000000E+03  0.18250000000E+03  0.00000000000E+00 0. -1.
         11   -1    0    0    0    0 -0.00000000000E+00 -0.00000000000E+00 -0.18250000000E+03  0.18250000000E+03  0.00000000000E+00 0.  1.
        -11    1    1    2    0    0 -0.23968495173E+01  0.37936091268E+01  0.17521781626E+03  0.17527526777E+03  0.00000000000E+00 0. -1.
         11    1    1    2    0    0  0.35821986416E+01 -0.34434083995E+01 -0.18026079362E+03  0.18032926253E+03  0.00000000000E+00 0.  1.
        -15    1    1    2    0    0 -0.73568152635E+00 -0.26613868246E+01  0.55047659859E+01  0.64097101883E+01  0.17770000000E+01 0.  1.
         15    1    1    2    0    0 -0.44966759799E+00  0.23111860972E+01 -0.46178862697E+00  0.29857595115E+01  0.17770000000E+01 0. -1.
</event>
<event>
 6    1  0.8353910E-003  0.1825790E+03  0.7546771E-02  0.1068392E+00
        -11   -1    0    0    0    0  0.00000000000E+00  0.00000000000E+00  0.18250000000E+03  0.18250000000E+03  0.00000000000E+00 0.  1.
         11   -1    0    0    0    0 -0.00000000000E+00 -0.00000000000E+00 -0.18250000000E+03  0.18250000000E+03  0.00000000000E+00 0.  1.
        -11    1    1    2    0    0 -0.18872232406E+01 -0.22082858417E+01  0.18239783971E+03  0.18242096938E+03  0.00000000000E+00 0.  1.
         11    1    1    2    0    0  0.19015473880E+01  0.13555605326E+01 -0.33536412286E+02  0.33617620021E+02  0.00000000000E+00 0.  1.
        -15    1    1    2    0    0 -0.12200865907E+01  0.13311063060E+01 -0.11536203448E+03  0.11538984870E+03  0.17770000000E+01 0. -1.
         15    1    1    2    0    0  0.12057624434E+01 -0.47838099688E+00 -0.33499392947E+02  0.33571561897E+02  0.17770000000E+01 0.  1.
</event>
<event>
 6    1  0.8353910E-003  0.1851342E+03  0.7546771E-02  0.1066377E+00
        -11   -1    0    0    0    0  0.00000000000E+00  0.00000000000E+00  0.18250000000E+03  0.18250000000E+03  0.00000000000E+00 0. -1.
         11   -1    0    0    0    0 -0.00000000000E+00 -0.00000000000E+00 -0.18250000000E+03  0.18250000000E+03  0.00000000000E+00 0.  1.
        -11    1    1    2    0    0  0.41394895429E+01  0.44191854591E+01  0.17976388737E+03  0.17986583827E+03  0.00000000000E+00 0. -1.
         11    1    1    2    0    0  0.46488148862E+01 -0.39845888914E+00 -0.11880224230E+03  0.11889383090E+03  0.00000000000E+00 0.  1.
        -15    1    1    2    0    0  0.63440153366E+01 -0.71527050558E+01 -0.30880440103E+02  0.32375407799E+02  0.17770000000E+01 0.  1.
         15    1    1    2    0    0 -0.15132319766E+02  0.31319784858E+01 -0.30081204968E+02  0.33864923034E+02  0.17770000000E+01 0. -1.
</event>
<event>
 6    1  0.8353910E-003  0.1829650E+03  0.7546771E-02  0.1068085E+00
        -11   -1    0    0    0    0  0.00000000000E+00  0.00000000000E+00  0.18250000000E+03  0.18250000000E+03  0.00000000000E+00 0.  1.
         11   -1    0    0    0    0 -0.00000000000E+00 -0.00000000000E+00 -0.18250000000E+03  0.18250000000E+03  0.00000000000E+00 0. -1.
        -11    1    1    2    0    0 -0.18174846969E+01 -0.21248272469E+00  0.11834639838E+03  0.11836054414E+03  0.00000000000E+00 0.  1.
         11    1    1    2    0    0 -0.26667602548E+01  0.59509474592E+01 -0.18191812833E+03  0.18203497136E+03  0.00000000000E+00 0. -1.
        -15    1    1    2    0    0  0.16227769896E+01 -0.45342889092E+01  0.55950856745E+02  0.56185845909E+02  0.17770000000E+01 0.  1.
         15    1    1    2    0    0  0.28614679621E+01 -0.12041758253E+01  0.76208732039E+01  0.84186385898E+01  0.17770000000E+01 0. -1.
</event>
<event>
 6    1  0.8353910E-003  0.1837382E+03  0.7546771E-02  0.1067473E+00
        -11   -1    0    0    0    0  0.00000000000E+00  0.00000000000E+00  0.18250000000E+03  0.18250000000E+03  0.00000000000E+00 0. -1.
         11   -1    0    0    0    0 -0.00000000000E+00 -0.00000000000E+00 -0.18250000000E+03  0.18250000000E+03  0.00000000000E+00 0. -1.
        -11    1    1    2    0    0 -0.22159368724E+01 -0.42008441945E+00  0.16648481082E+03  0.16650008733E+03  0.00000000000E+00 0. -1.
         11    1    1    2    0    0 -0.60060916621E-01  0.29186082485E+01 -0.18123825384E+03  0.18126176248E+03  0.00000000000E+00 0. -1.
        -15    1    1    2    0    0  0.12200109074E+01  0.26059774032E+01  0.49769488486E+01  0.60172496776E+01  0.17770000000E+01 0.  1.
         15    1    1    2    0    0  0.10559868816E+01 -0.51045012323E+01  0.97764941680E+01  0.11220900514E+02  0.17770000000E+01 0. -1.
</event>
<event>
 6    1  0.8353910E-003  0.1850559E+03  0.7546771E-02  0.1066438E+00
        -11   -1    0    0    0    0  0.00000000000E+00  0.00000000000E+00  0.18250000000E+03  0.18250000000E+03  0.00000000000E+00 0. -1.
         11   -1    0    0    0    0 -0.00000000000E+00 -0.00000000000E+00 -0.18250000000E+03  0.18250000000E+03  0.00000000000E+00 0. -1.
        -11    1    1    2    0    0  0.80443236122E+00 -0.77819897854E+01  0.17977394192E+03  0.17994409318E+03  0.00000000000E+00 0. -1.
         11    1    1    2    0    0  0.23795996513E+00  0.17974763497E+01 -0.11283364517E+03  0.11284821234E+03  0.00000000000E+00 0. -1.
        -15    1    1    2    0    0 -0.31116485389E+00 -0.29790345811E+01 -0.61395168030E+02  0.61493868451E+02  0.17770000000E+01 0. -1.
         15    1    1    2    0    0 -0.73122747245E+00  0.89635480169E+01 -0.55451287257E+01  0.10713826032E+02  0.17770000000E+01 0. -1.
</event>
<event>
 6    1  0.8353910E-003  0.1845713E+03  0.7546771E-02  0.1066818E+00
        -11   -1    0    0    0    0  0.00000000000E+00  0.00000000000E+00  0.18250000000E+03  0.18250000000E+03  0.00000000000E+00 0. -1.
         11   -1    0    0    0    0 -0.00000000000E+00 -0.00000000000E+00 -0.18250000000E+03  0.18250000000E+03  0.00000000000E+00 0. -1.
        -11    1    1    2    0    0  0.12089607580E+02 -0.52736294872E+01  0.17994596528E+03  0.18042871224E+03  0.00000000000E+00 0. -1.
         11    1    1    2    0    0 -0.80378311259E+01  0.61623513515E+01 -0.99130631085E+02  0.99646692483E+02  0.00000000000E+00 0. -1.
        -15    1    1    2    0    0 -0.12893159045E+02 -0.59775452626E+01 -0.32559334556E+02  0.35570108143E+02  0.17770000000E+01 0.  1.
         15    1    1    2    0    0  0.88413825911E+01  0.50888233983E+01 -0.48255999642E+02  0.49354487133E+02  0.17770000000E+01 0. -1.
</event>
<event>
 6    1  0.8353910E-003  0.2029111E+03  0.7546771E-02  0.1053277E+00
        -11   -1    0    0    0    0  0.00000000000E+00  0.00000000000E+00  0.18250000000E+03  0.18250000000E+03  0.00000000000E+00 0. -1.
         11   -1    0    0    0    0 -0.00000000000E+00 -0.00000000000E+00 -0.18250000000E+03  0.18250000000E+03  0.00000000000E+00 0.  1.
        -11    1    1    2    0    0  0.23343523728E+01 -0.18438974464E+01  0.12534355945E+03  0.12537885410E+03  0.00000000000E+00 0. -1.
         11    1    1    2    0    0 -0.18288602080E+01  0.21203146224E+01 -0.16206473182E+03  0.16208891931E+03  0.00000000000E+00 0.  1.
        -15    1    1    2    0    0 -0.10395011009E+02  0.23220126973E+02  0.44091565316E+02  0.50935787140E+02  0.17770000000E+01 0. -1.
         15    1    1    2    0    0  0.98895188444E+01 -0.23496544149E+02 -0.73703929487E+01  0.26596439445E+02  0.17770000000E+01 0.  1.
</event>
<event>
 6    1  0.8353910E-003  0.1827152E+03  0.7546771E-02  0.1068284E+00
        -11   -1    0    0    0    0  0.00000000000E+00  0.00000000000E+00  0.18250000000E+03  0.18250000000E+03  0.00000000000E+00 0. -1.
         11   -1    0    0    0    0 -0.00000000000E+00 -0.00000000000E+00 -0.18250000000E+03  0.18250000000E+03  0.00000000000E+00 0. -1.
        -11    1    1    2    0    0  0.32622708773E+01  0.65107096344E+01  0.18213931197E+03  0.18228483402E+03  0.00000000000E+00 0. -1.
         11    1    1    2    0    0 -0.19480103385E+00 -0.34518213255E+01 -0.14860437040E+03  0.14864458254E+03  0.00000000000E+00 0. -1.
        -15    1    1    2    0    0 -0.24468688782E+01 -0.19289394862E+01 -0.15902673596E+02  0.16302169529E+02  0.17770000000E+01 0.  1.
         15    1    1    2    0    0 -0.62060096521E+00 -0.11299488227E+01 -0.17632267974E+02  0.17768413908E+02  0.17770000000E+01 0. -1.
</event>
<event>
 6    1  0.8353910E-003  0.1868432E+03  0.7546771E-02  0.1065049E+00
        -11   -1    0    0    0    0  0.00000000000E+00  0.00000000000E+00  0.18250000000E+03  0.18250000000E+03  0.00000000000E+00 0.  1.
         11   -1    0    0    0    0 -0.00000000000E+00 -0.00000000000E+00 -0.18250000000E+03  0.18250000000E+03  0.00000000000E+00 0.  1.
        -11    1    1    2    0    0 -0.16911537364E+01  0.20645819411E+01  0.17055697857E+03  0.17057785741E+03  0.00000000000E+00 0.  1.
         11    1    1    2    0    0  0.16643382239E+01 -0.21208659794E+01 -0.17813643217E+03  0.17815683136E+03  0.00000000000E+00 0.  1.
        -15    1    1    2    0    0 -0.40487632893E+01  0.44161987468E+01  0.78483105116E+01  0.10032397641E+02  0.17770000000E+01 0.  1.
         15    1    1    2    0    0  0.40755788018E+01 -0.43599147084E+01 -0.26885691295E+00  0.62329135943E+01  0.17770000000E+01 0. -1.
</event>
<event>
 6    1  0.8353910E-003  0.1860442E+03  0.7546771E-02  0.1065668E+00
        -11   -1    0    0    0    0  0.00000000000E+00  0.00000000000E+00  0.18250000000E+03  0.18250000000E+03  0.00000000000E+00 0.  1.
         11   -1    0    0    0    0 -0.00000000000E+00 -0.00000000000E+00 -0.18250000000E+03  0.18250000000E+03  0.00000000000E+00 0. -1.
        -11    1    1    2    0    0  0.24630810199E+01  0.16098265402E+00  0.17246121636E+03  0.17247887938E+03  0.00000000000E+00 0.  1.
         11    1    1    2    0    0  0.25168939309E+01 -0.16340330955E+00 -0.17893797786E+03  0.17895575256E+03  0.00000000000E+00 0. -1.
        -15    1    1    2    0    0 -0.18574804938E+01  0.10644705083E+00  0.88776946831E+01  0.92429841850E+01  0.17770000000E+01 0.  1.
         15    1    1    2    0    0 -0.31224944570E+01 -0.10402639531E+00 -0.24009331885E+01  0.43223838678E+01  0.17770000000E+01 0.  1.
</event>
<event>
 6    1  0.8353910E-003  0.1640390E+03  0.7546771E-02  0.1084180E+00
        -11   -1    0    0    0    0  0.00000000000E+00  0.00000000000E+00  0.18250000000E+03  0.18250000000E+03  0.00000000000E+00 0. -1.
         11   -1    0    0    0    0 -0.00000000000E+00 -0.00000000000E+00 -0.18250000000E+03  0.18250000000E+03  0.00000000000E+00 0. -1.
        -11    1    1    2    0    0 -0.17098033090E+02  0.89437896743E+00  0.16737363252E+03  0.16824706687E+03  0.00000000000E+00 0. -1.
         11    1    1    2    0    0 -0.10978685617E+01 -0.21828811606E+01 -0.16039313095E+03  0.16041174128E+03  0.00000000000E+00 0. -1.
        -15    1    1    2    0    0 -0.65936701339E+00 -0.76579498080E+01 -0.12408227605E+02  0.14703768273E+02  0.17770000000E+01 0. -1.
         15    1    1    2    0    0  0.18855268665E+02  0.89464520012E+01  0.54277260373E+01  0.21637423571E+02  0.17770000000E+01 0.  1.
</event>
<event>
 6    1  0.8353910E-003  0.1859019E+03  0.7546771E-02  0.1065779E+00
        -11   -1    0    0    0    0  0.00000000000E+00  0.00000000000E+00  0.18250000000E+03  0.18250000000E+03  0.00000000000E+00 0.  1.
         11   -1    0    0    0    0 -0.00000000000E+00 -0.00000000000E+00 -0.18250000000E+03  0.18250000000E+03  0.00000000000E+00 0.  1.
        -11    1    1    2    0    0 -0.60658377557E+01 -0.18021796264E+01  0.17041509649E+03  0.17053254045E+03  0.00000000000E+00 0.  1.
         11    1    1    2    0    0  0.60543566095E+01 -0.32977212498E+01 -0.17896533972E+03  0.17909808212E+03  0.00000000000E+00 0.  1.
        -15    1    1    2    0    0  0.31149775041E+01  0.19658915268E+01  0.96568626887E+01  0.10487160737E+02  0.17770000000E+01 0. -1.
         15    1    1    2    0    0 -0.31034963579E+01  0.31340093494E+01 -0.11066194635E+01  0.48822166976E+01  0.17770000000E+01 0. -1.
</event>
<event>
 6    1  0.8353910E-003  0.1884241E+03  0.7546771E-02  0.1063835E+00
        -11   -1    0    0    0    0  0.00000000000E+00  0.00000000000E+00  0.18250000000E+03  0.18250000000E+03  0.00000000000E+00 0. -1.
         11   -1    0    0    0    0 -0.00000000000E+00 -0.00000000000E+00 -0.18250000000E+03  0.18250000000E+03  0.00000000000E+00 0. -1.
        -11    1    1    2    0    0  0.23580772423E+01  0.58987453447E+01  0.17646162027E+03  0.17657593028E+03  0.00000000000E+00 0. -1.
         11    1    1    2    0    0  0.46121166441E+01 -0.19447675383E+01 -0.15055667815E+03  0.15063985886E+03  0.00000000000E+00 0. -1.
        -15    1    1    2    0    0 -0.66697836850E+01 -0.14023885273E+02 -0.21654624148E+02  0.26706475780E+02  0.17770000000E+01 0.  1.
         15    1    1    2    0    0 -0.30041020137E+00  0.10069907467E+02 -0.42503179738E+01  0.11077735083E+02  0.17770000000E+01 0. -1.
</event>
<event>
 6    1  0.8353910E-003  0.1846671E+03  0.7546771E-02  0.1066743E+00
        -11   -1    0    0    0    0  0.00000000000E+00  0.00000000000E+00  0.18250000000E+03  0.18250000000E+03  0.00000000000E+00 0. -1.
         11   -1    0    0    0    0 -0.00000000000E+00 -0.00000000000E+00 -0.18250000000E+03  0.18250000000E+03  0.00000000000E+00 0.  1.
        -11    1    1    2    0    0 -0.17407317015E+01 -0.18469554126E+01  0.18031506799E+03  0.18033292860E+03  0.00000000000E+00 0. -1.
         11    1    1    2    0    0 -0.40307566116E+01 -0.12356137021E+01 -0.16854480449E+03  0.16859752330E+03  0.00000000000E+00 0.  1.
        -15    1    1    2    0    0  0.62493185239E+01  0.40623813938E+01 -0.11697213744E+02  0.13983542576E+02  0.17770000000E+01 0. -1.
         15    1    1    2    0    0 -0.47783021078E+00 -0.97981227919E+00 -0.73049756080E-01  0.20860055320E+01  0.17770000000E+01 0. -1.
</event>
<event>
 6    1  0.8353910E-003  0.1827046E+03  0.7546771E-02  0.1068292E+00
        -11   -1    0    0    0    0  0.00000000000E+00  0.00000000000E+00  0.18250000000E+03  0.18250000000E+03  0.00000000000E+00 0. -1.
         11   -1    0    0    0    0 -0.00000000000E+00 -0.00000000000E+00 -0.18250000000E+03  0.18250000000E+03  0.00000000000E+00 0. -1.
        -11    1    1    2    0    0  0.72856210391E+00  0.25208022795E+00  0.41780037208E+02  0.41787149416E+02  0.00000000000E+00 0. -1.
         11    1    1    2    0    0 -0.51085290855E+01  0.12778693052E+01 -0.18221933398E+03  0.18229540777E+03  0.00000000000E+00 0. -1.
        -15    1    1    2    0    0  0.61419094681E+01  0.14745725701E+01  0.55219499179E+02  0.55607987149E+02  0.17770000000E+01 0.  1.
         15    1    1    2    0    0 -0.17619424865E+01 -0.30045221033E+01  0.85219797593E+02  0.85309455661E+02  0.17770000000E+01 0.  1.
</event>
<event>
 6    1  0.8353910E-003  0.1831089E+03  0.7546771E-02  0.1067971E+00
        -11   -1    0    0    0    0  0.00000000000E+00  0.00000000000E+00  0.18250000000E+03  0.18250000000E+03  0.00000000000E+00 0. -1.
         11   -1    0    0    0    0 -0.00000000000E+00 -0.00000000000E+00 -0.18250000000E+03  0.18250000000E+03  0.00000000000E+00 0. -1.
        -11    1    1    2    0    0  0.23569603268E+01  0.28546411981E+01  0.18185341765E+03  0.18189109310E+03  0.00000000000E+00 0. -1.
         11    1    1    2    0    0  0.28130439209E+01 -0.27735853862E+00 -0.27973196424E+02  0.28115651549E+02  0.00000000000E+00 0. -1.
        -15    1    1    2    0    0 -0.93146195579E+00 -0.64462411694E+01 -0.13524901123E+03  0.13541740809E+03  0.17770000000E+01 0. -1.
         15    1    1    2    0    0 -0.42385422919E+01  0.38689585099E+01 -0.18631210000E+02  0.19575847255E+02  0.17770000000E+01 0.  1.
</event>
<event>
 6    1  0.1406980E-002  0.1848929E+03  0.7546771E-02  0.1066566E+00
        -11   -1    0    0    0    0  0.00000000000E+00  0.00000000000E+00  0.18250000000E+03  0.18250000000E+03  0.00000000000E+00 0.  1.
         11   -1    0    0    0    0 -0.00000000000E+00 -0.00000000000E+00 -0.18250000000E+03  0.18250000000E+03  0.00000000000E+00 0.  1.
        -11    1    1    2    0    0  0.17835412037E+01  0.18494031345E+01  0.18008878907E+03  0.18010711607E+03  0.00000000000E+00 0.  1.
         11    1    1    2    0    0  0.35038833629E+01 -0.20398559931E+01 -0.15721619351E+03  0.15726846382E+03  0.00000000000E+00 0.  1.
        -15    1    1    2    0    0 -0.15785412827E+01 -0.11353655297E+01  0.13911601979E+01  0.29789097273E+01  0.17770000000E+01 0. -1.
         15    1    1    2    0    0 -0.37088832839E+01  0.13258183883E+01 -0.24263755753E+02  0.24645510379E+02  0.17770000000E+01 0. -1.
</event>
<event>
 6    1  0.8353910E-003  0.1762644E+03  0.7546771E-02  0.1073530E+00
        -11   -1    0    0    0    0  0.00000000000E+00  0.00000000000E+00  0.18250000000E+03  0.18250000000E+03  0.00000000000E+00 0. -1.
         11   -1    0    0    0    0 -0.00000000000E+00 -0.00000000000E+00 -0.18250000000E+03  0.18250000000E+03  0.00000000000E+00 0. -1.
        -11    1    1    2    0    0 -0.47154850657E+00 -0.30421391357E+01  0.17627268176E+03  0.17629956127E+03  0.00000000000E+00 0. -1.
         11    1    1    2    0    0  0.74032329083E+01 -0.65739796002E+00 -0.17616011377E+03  0.17631683332E+03  0.00000000000E+00 0. -1.
        -15    1    1    2    0    0 -0.27843956555E+01  0.56808830501E+01  0.22137922444E+01  0.69342552950E+01  0.17770000000E+01 0. -1.
         15    1    1    2    0    0 -0.41472887462E+01 -0.19813459544E+01 -0.23263602323E+01  0.54493501141E+01  0.17770000000E+01 0.  1.
</event>
<event>
 6    1  0.8353910E-003  0.1887571E+03  0.7546771E-02  0.1063580E+00
        -11   -1    0    0    0    0  0.00000000000E+00  0.00000000000E+00  0.18250000000E+03  0.18250000000E+03  0.00000000000E+00 0. -1.
         11   -1    0    0    0    0 -0.00000000000E+00 -0.00000000000E+00 -0.18250000000E+03  0.18250000000E+03  0.00000000000E+00 0. -1.
        -11    1    1    2    0    0  0.84019779719E+00 -0.21347006405E+01  0.16239215858E+03  0.16240836200E+03  0.00000000000E+00 0. -1.
         11    1    1    2    0    0 -0.24883370091E+01  0.44626984037E+01 -0.17616881042E+03  0.17624289280E+03  0.00000000000E+00 0. -1.
        -15    1    1    2    0    0  0.31782586610E+01 -0.35934077848E+01 -0.51360923698E+01  0.72492124714E+01  0.17770000000E+01 0.  1.
         15    1    1    2    0    0 -0.15301194491E+01  0.12654100217E+01  0.18912744206E+02  0.19099532728E+02  0.17770000000E+01 0. -1.
</event>
<event>
 6    1  0.8353910E-003  0.1826501E+03  0.7546771E-02  0.1068335E+00
        -11   -1    0    0    0    0  0.00000000000E+00  0.00000000000E+00  0.18250000000E+03  0.18250000000E+03  0.00000000000E+00 0.  1.
         11   -1    0    0    0    0 -0.00000000000E+00 -0.00000000000E+00 -0.18250000000E+03  0.18250000000E+03  0.00000000000E+00 0. -1.
        -11    1    1    2    0    0  0.13935049254E+01 -0.24207169030E+01  0.73387260564E+02  0.73440395828E+02  0.00000000000E+00 0.  1.
         11    1    1    2    0    0  0.22267545850E+01  0.15319005083E+01 -0.18232982630E+03  0.18234985800E+03  0.00000000000E+00 0. -1.
        -15    1    1    2    0    0 -0.17985071255E+01 -0.14853155983E+01  0.80741604637E+02  0.80794834232E+02  0.17770000000E+01 0.  1.
         15    1    1    2    0    0 -0.18217523849E+01  0.23741319931E+01  0.28200961099E+02  0.28414911937E+02  0.17770000000E+01 0. -1.
</event>
<event>
 6    1  0.8353910E-003  0.1855710E+03  0.7546771E-02  0.1066036E+00
        -11   -1    0    0    0    0  0.00000000000E+00  0.00000000000E+00  0.18250000000E+03  0.18250000000E+03  0.00000000000E+00 0.  1.
         11   -1    0    0    0    0 -0.00000000000E+00 -0.00000000000E+00 -0.18250000000E+03  0.18250000000E+03  0.00000000000E+00 0.  1.
        -11    1    1    2    0    0 -0.33236340340E+01 -0.39082078198E+01  0.15836357144E+03  0.15844665156E+03  0.00000000000E+00 0.  1.
         11    1    1    2    0    0 -0.50382390613E+01 -0.51323305588E+01 -0.17928479811E+03  0.17942899293E+03  0.00000000000E+00 0.  1.
        -15    1    1    2    0    0  0.10298444460E+01  0.28307034467E+01 -0.54434378571E+00  0.35394209615E+01  0.17770000000E+01 0. -1.
         15    1    1    2    0    0  0.73320286492E+01  0.62098349320E+01  0.21465570457E+02  0.23584934557E+02  0.17770000000E+01 0.  1.
</event>
<event>
 6    1  0.8353910E-003  0.1840468E+03  0.7546771E-02  0.1067230E+00
        -11   -1    0    0    0    0  0.00000000000E+00  0.00000000000E+00  0.18250000000E+03  0.18250000000E+03  0.00000000000E+00 0.  1.
         11   -1    0    0    0    0 -0.00000000000E+00 -0.00000000000E+00 -0.18250000000E+03  0.18250000000E+03  0.00000000000E+00 0. -1.
        -11    1    1    2    0    0 -0.14299609304E+01  0.68103738241E+00  0.11568323076E+03  0.11569407280E+03  0.00000000000E+00 0.  1.
         11    1    1    2    0    0 -0.51721166631E+01  0.34233459105E+01 -0.18084688442E+03  0.18095321410E+03  0.00000000000E+00 0. -1.
        -15    1    1    2    0    0  0.11498154231E+01  0.10272236736E+01  0.57306747625E+02  0.57355019975E+02  0.17770000000E+01 0.  1.
         15    1    1    2    0    0  0.54522621704E+01 -0.51316069666E+01  0.78569060316E+01  0.10997693132E+02  0.17770000000E+01 0. -1.
</event>
<event>
 6    1  0.8353910E-003  0.1826276E+03  0.7546771E-02  0.1068353E+00
        -11   -1    0    0    0    0  0.00000000000E+00  0.00000000000E+00  0.18250000000E+03  0.18250000000E+03  0.00000000000E+00 0.  1.
         11   -1    0    0    0    0 -0.00000000000E+00 -0.00000000000E+00 -0.18250000000E+03  0.18250000000E+03  0.00000000000E+00 0.  1.
        -11    1    1    2    0    0 -0.38165427034E+01 -0.22598644402E+01  0.18231842818E+03  0.18237237246E+03  0.00000000000E+00 0.  1.
         11    1    1    2    0    0 -0.53147561101E+00  0.43407880891E+00 -0.31688043359E+02  0.31695472590E+02  0.00000000000E+00 0.  1.
        -15    1    1    2    0    0 -0.18630170137E+01  0.94501298685E+00 -0.29780798533E+02  0.29906814813E+02  0.17770000000E+01 0.  1.
         15    1    1    2    0    0  0.62110353281E+01  0.88077264445E+00 -0.12084958628E+03  0.12102534013E+03  0.17770000000E+01 0.  1.
</event>
<event>
 6    1  0.8353910E-003  0.1842130E+03  0.7546771E-02  0.1067099E+00
        -11   -1    0    0    0    0  0.00000000000E+00  0.00000000000E+00  0.18250000000E+03  0.18250000000E+03  0.00000000000E+00 0. -1.
         11   -1    0    0    0    0 -0.00000000000E+00 -0.00000000000E+00 -0.18250000000E+03  0.18250000000E+03  0.00000000000E+00 0.  1.
        -11    1    1    2    0    0 -0.14801490505E+01  0.52531371335E+01  0.18070458682E+03  0.18078698512E+03  0.00000000000E+00 0. -1.
         11    1    1    2    0    0  0.37823378979E+01 -0.21040890244E+01 -0.16848315424E+03  0.16853873897E+03  0.00000000000E+00 0.  1.
        -15    1    1    2    0    0  0.40024610068E+00  0.21796587227E+01 -0.13557043160E+01  0.31475025466E+01  0.17770000000E+01 0. -1.
         15    1    1    2    0    0 -0.27024349481E+01 -0.53287068318E+01 -0.10865728265E+02  0.12526773362E+02  0.17770000000E+01 0.  1.
</event>
<event>
 6    1  0.8353910E-003  0.1852175E+03  0.7546771E-02  0.1066312E+00
        -11   -1    0    0    0    0  0.00000000000E+00  0.00000000000E+00  0.18250000000E+03  0.18250000000E+03  0.00000000000E+00 0. -1.
         11   -1    0    0    0    0 -0.00000000000E+00 -0.00000000000E+00 -0.18250000000E+03  0.18250000000E+03  0.00000000000E+00 0. -1.
        -11    1    1    2    0    0 -0.75840346627E+00  0.25623454685E+01  0.17976265585E+03  0.17978251647E+03  0.00000000000E+00 0. -1.
         11    1    1    2    0    0  0.32144939913E+01  0.52471001411E+01 -0.17271760379E+03  0.17282718446E+03  0.00000000000E+00 0. -1.
        -15    1    1    2    0    0 -0.56512239553E+00 -0.19301135615E+01  0.21762171847E+00  0.26925433877E+01  0.17770000000E+01 0.  1.
         15    1    1    2    0    0 -0.18909681295E+01 -0.58793320481E+01 -0.72626737782E+01  0.96977556789E+01  0.17770000000E+01 0. -1.
</event>
<event>
 6    1  0.8353910E-003  0.1833599E+03  0.7546771E-02  0.1067772E+00
        -11   -1    0    0    0    0  0.00000000000E+00  0.00000000000E+00  0.18250000000E+03  0.18250000000E+03  0.00000000000E+00 0. -1.
         11   -1    0    0    0    0 -0.00000000000E+00 -0.00000000000E+00 -0.18250000000E+03  0.18250000000E+03  0.00000000000E+00 0. -1.
        -11    1    1    2    0    0 -0.16876227331E+01 -0.19741384207E+01  0.16351635730E+03  0.16353698174E+03  0.00000000000E+00 0. -1.
         11    1    1    2    0    0 -0.33326081015E+01  0.16546456380E+01 -0.18160203423E+03  0.18164014690E+03  0.00000000000E+00 0. -1.
        -15    1    1    2    0    0  0.56090369054E+01  0.81349394656E+00  0.15450556921E+02  0.16552960629E+02  0.17770000000E+01 0. -1.
         15    1    1    2    0    0 -0.58880607082E+00 -0.49400116389E+00  0.26351200113E+01  0.32699107347E+01  0.17770000000E+01 0. -1.
</event>
<event>
 6    1  0.8353910E-003  0.1838085E+03  0.7546771E-02  0.1067418E+00
        -11   -1    0    0    0    0  0.00000000000E+00  0.00000000000E+00  0.18250000000E+03  0.18250000000E+03  0.00000000000E+00 0.  1.
         11   -1    0    0    0    0 -0.00000000000E+00 -0.00000000000E+00 -0.18250000000E+03  0.18250000000E+03  0.00000000000E+00 0.  1.
        -11    1    1    2    0    0 -0.19818891851E+01  0.31574179456E+01  0.12657225385E+03  0.12662714013E+03  0.00000000000E+00 0.  1.
         11    1    1    2    0    0  0.64624887399E+01  0.37522868110E+01 -0.18103735261E+03  0.18119151872E+03  0.00000000000E+00 0.  1.
        -15    1    1    2    0    0 -0.21304704552E+01  0.37189794591E+01  0.66370021354E+01  0.80979774588E+01  0.17770000000E+01 0. -1.
         15    1    1    2    0    0 -0.23501290996E+01 -0.10628684216E+02  0.47828096630E+02  0.49083363690E+02  0.17770000000E+01 0.  1.
</event>
<event>
 6    1  0.8353910E-003  0.1838577E+03  0.7546771E-02  0.1067379E+00
        -11   -1    0    0    0    0  0.00000000000E+00  0.00000000000E+00  0.18250000000E+03  0.18250000000E+03  0.00000000000E+00 0. -1.
         11   -1    0    0    0    0 -0.00000000000E+00 -0.00000000000E+00 -0.18250000000E+03  0.18250000000E+03  0.00000000000E+00 0. -1.
        -11    1    1    2    0    0  0.23959982118E+01  0.19798707915E+01  0.16002667145E+03  0.16005685325E+03  0.00000000000E+00 0. -1.
         11    1    1    2    0    0  0.15336365753E+01  0.55105337354E+01 -0.18105193067E+03  0.18114226349E+03  0.00000000000E+00 0. -1.
        -15    1    1    2    0    0 -0.91981587392E+00 -0.15209074654E+00  0.94256414440E+01  0.96368894602E+01  0.17770000000E+01 0. -1.
         15    1    1    2    0    0 -0.30098189132E+01 -0.73383137803E+01  0.11599617769E+02  0.14163993802E+02  0.17770000000E+01 0. -1.
</event>
<event>
 6    1  0.8353910E-003  0.1886714E+03  0.7546771E-02  0.1063646E+00
        -11   -1    0    0    0    0  0.00000000000E+00  0.00000000000E+00  0.18250000000E+03  0.18250000000E+03  0.00000000000E+00 0. -1.
         11   -1    0    0    0    0 -0.00000000000E+00 -0.00000000000E+00 -0.18250000000E+03  0.18250000000E+03  0.00000000000E+00 0.  1.
        -11    1    1    2    0    0 -0.54229811312E+00 -0.28098139039E+01  0.15576315462E+03  0.15578943956E+03  0.00000000000E+00 0. -1.
         11    1    1    2    0    0  0.14392307540E+01 -0.11769916314E+02 -0.17592945532E+03  0.17632860109E+03  0.00000000000E+00 0.  1.
        -15    1    1    2    0    0  0.11396260785E+01  0.19309051394E+02  0.19270826420E+02  0.27361664666E+02  0.17770000000E+01 0. -1.
         15    1    1    2    0    0 -0.20365587194E+01 -0.47293211762E+01  0.89547427878E+00  0.55202946832E+01  0.17770000000E+01 0.  1.
</event>
<event>
 6    1  0.8353910E-003  0.1717454E+03  0.7546771E-02  0.1077353E+00
        -11   -1    0    0    0    0  0.00000000000E+00  0.00000000000E+00  0.18250000000E+03  0.18250000000E+03  0.00000000000E+00 0.  1.
         11   -1    0    0    0    0 -0.00000000000E+00 -0.00000000000E+00 -0.18250000000E+03  0.18250000000E+03  0.00000000000E+00 0.  1.
        -11    1    1    2    0    0  0.10420856230E+02 -0.28842035908E+01  0.16776242669E+03  0.16811051331E+03  0.00000000000E+00 0.  1.
         11    1    1    2    0    0  0.31092300016E+01  0.15818899923E+01 -0.17570620982E+03  0.17574083719E+03  0.00000000000E+00 0.  1.
        -15    1    1    2    0    0 -0.13736809014E+02  0.18681671425E+01  0.10846944955E+02  0.17691916635E+02  0.17770000000E+01 0.  1.
         15    1    1    2    0    0  0.20672278245E+00 -0.56585354400E+00 -0.29031618243E+01  0.34567328679E+01  0.17770000000E+01 0. -1.
</event>
<event>
 6    1  0.8353910E-003  0.1840079E+03  0.7546771E-02  0.1067261E+00
        -11   -1    0    0    0    0  0.00000000000E+00  0.00000000000E+00  0.18250000000E+03  0.18250000000E+03  0.00000000000E+00 0.  1.
         11   -1    0    0    0    0 -0.00000000000E+00 -0.00000000000E+00 -0.18250000000E+03  0.18250000000E+03  0.00000000000E+00 0. -1.
        -11    1    1    2    0    0 -0.20357134141E+01  0.14225699262E+01  0.60371151979E+02  0.60422213014E+02  0.00000000000E+00 0.  1.
         11    1    1    2    0    0  0.41493075040E+01  0.14286118733E+01 -0.18093884306E+03  0.18099205125E+03  0.00000000000E+00 0. -1.
        -15    1    1    2    0    0 -0.15811135470E+01 -0.68597494992E+01  0.11847642886E+03  0.11869868579E+03  0.17770000000E+01 0.  1.
         15    1    1    2    0    0 -0.53248054285E+00  0.40085676996E+01  0.20912622220E+01  0.48870499498E+01  0.17770000000E+01 0. -1.
</event>
<event>
 6    1  0.8353910E-003  0.1722506E+03  0.7546771E-02  0.1076919E+00
        -11   -1    0    0    0    0  0.00000000000E+00  0.00000000000E+00  0.18250000000E+03  0.18250000000E+03  0.00000000000E+00 0.  1.
         11   -1    0    0    0    0 -0.00000000000E+00 -0.00000000000E+00 -0.18250000000E+03  0.18250000000E+03  0.00000000000E+00 0. -1.
        -11    1    1    2    0    0 -0.63603066985E+00 -0.23515736185E+01  0.16783965596E+03  0.16785733390E+03  0.00000000000E+00 0.  1.
         11    1    1    2    0    0  0.19567323085E+01 -0.12606536412E+02 -0.17662258295E+03  0.17708272182E+03  0.00000000000E+00 0. -1.
        -15    1    1    2    0    0 -0.38534835205E+01  0.14089171836E+02  0.80155128312E+01  0.16755902638E+02  0.17770000000E+01 0.  1.
         15    1    1    2    0    0  0.25327818818E+01  0.86893819434E+00  0.76741415920E+00  0.33040416368E+01  0.17770000000E+01 0. -1.
</event>
<event>
 6    1  0.8353910E-003  0.1847060E+03  0.7546771E-02  0.1066712E+00
        -11   -1    0    0    0    0  0.00000000000E+00  0.00000000000E+00  0.18250000000E+03  0.18250000000E+03  0.00000000000E+00 0.  1.
         11   -1    0    0    0    0 -0.00000000000E+00 -0.00000000000E+00 -0.18250000000E+03  0.18250000000E+03  0.00000000000E+00 0. -1.
        -11    1    1    2    0    0 -0.23091707873E+00  0.16834457069E+01  0.12325788624E+03  0.12326959817E+03  0.00000000000E+00 0.  1.
         11    1    1    2    0    0  0.60111844168E+00  0.66433753339E+01 -0.18017057136E+03  0.18029401145E+03  0.00000000000E+00 0. -1.
        -15    1    1    2    0    0  0.75321277605E+00 -0.91010804314E+01  0.74387299185E+01  0.11911734815E+02  0.17770000000E+01 0. -1.
         15    1    1    2    0    0 -0.11234141390E+01  0.77425939072E+00  0.49473955201E+02  0.49524655568E+02  0.17770000000E+01 0.  1.
</event>
<event>
 6    1  0.8353910E-003  0.1827587E+03  0.7546771E-02  0.1068249E+00
        -11   -1    0    0    0    0  0.00000000000E+00  0.00000000000E+00  0.18250000000E+03  0.18250000000E+03  0.00000000000E+00 0.  1.
         11   -1    0    0    0    0 -0.00000000000E+00 -0.00000000000E+00 -0.18250000000E+03  0.18250000000E+03  0.00000000000E+00 0.  1.
        -11    1    1    2    0    0  0.35616873649E+01 -0.49367063505E+00  0.18220585039E+03  0.18224132694E+03  0.00000000000E+00 0.  1.
         11    1    1    2    0    0 -0.11927249530E+01  0.77304208813E+00 -0.72251177243E+02  0.72265156195E+02  0.00000000000E+00 0.  1.
        -15    1    1    2    0    0  0.33900754627E+01 -0.22393456931E+01 -0.37216091498E+02  0.37479360669E+02  0.17770000000E+01 0. -1.
         15    1    1    2    0    0 -0.57590378747E+01  0.19599742400E+01 -0.72738581648E+02  0.73014156199E+02  0.17770000000E+01 0. -1.
</event>
<event>
 6    1  0.8353910E-003  0.1832373E+03  0.7546771E-02  0.1067869E+00
        -11   -1    0    0    0    0  0.00000000000E+00  0.00000000000E+00  0.18250000000E+03  0.18250000000E+03  0.00000000000E+00 0. -1.
         11   -1    0    0    0    0 -0.00000000000E+00 -0.00000000000E+00 -0.18250000000E+03  0.18250000000E+03  0.00000000000E+00 0. -1.
        -11    1    1    2    0    0 -0.39325726162E+01 -0.19232887370E+01  0.18171000118E+03  0.18176272637E+03  0.00000000000E+00 0. -1.
         11    1    1    2    0    0 -0.14788393330E+01 -0.10337573884E+01 -0.13184628724E+03  0.13185863293E+03  0.00000000000E+00 0. -1.
        -15    1    1    2    0    0  0.52449247574E+01  0.41658391062E+01 -0.15874148699E+02  0.17320790314E+02  0.17770000000E+01 0. -1.
         15    1    1    2    0    0  0.16648719179E+00 -0.12087929808E+01 -0.33989565248E+02  0.34057850390E+02  0.17770000000E+01 0.  1.
</event>
<event>
 6    1  0.1006416E-002  0.1845009E+03  0.7546771E-02  0.1066873E+00
        -11   -1    0    0    0    0  0.00000000000E+00  0.00000000000E+00  0.18250000000E+03  0.18250000000E+03  0.00000000000E+00 0.  1.
         11   -1    0    0    0    0 -0.00000000000E+00 -0.00000000000E+00 -0.18250000000E+03  0.18250000000E+03  0.00000000000E+00 0. -1.
        -11    1    1    2    0    0 -0.29048165494E+01  0.59872750312E+00  0.18047474411E+03  0.18049911273E+03  0.00000000000E+00 0.  1.
         11    1    1    2    0    0  0.23621614467E+00 -0.28187203109E+01 -0.16515501300E+03  0.16517923386E+03  0.00000000000E+00 0. -1.
        -15    1    1    2    0    0  0.77343035022E+00  0.28028760733E+01 -0.16171151837E+02  0.16526287832E+02  0.17770000000E+01 0. -1.
         15    1    1    2    0    0  0.18951700545E+01 -0.58288326552E+00  0.85142071789E+00  0.27953655710E+01  0.17770000000E+01 0. -1.
</event>
<event>
 6    1  0.8353910E-003  0.1991070E+03  0.7546771E-02  0.1055954E+00
        -11   -1    0    0    0    0  0.00000000000E+00  0.00000000000E+00  0.18250000000E+03  0.18250000000E+03  0.00000000000E+00 0. -1.
         11   -1    0    0    0    0 -0.00000000000E+00 -0.00000000000E+00 -0.18250000000E+03  0.18250000000E+03  0.00000000000E+00 0. -1.
        -11    1    1    2    0    0 -0.61694898671E+01  0.64794281763E+01  0.15072167445E+03  0.15098698203E+03  0.00000000000E+00 0. -1.
         11    1    1    2    0    0 -0.31150735187E+01  0.52982775408E+00 -0.16586289422E+03  0.16589298985E+03  0.00000000000E+00 0. -1.
        -15    1    1    2    0    0  0.14707423756E+01  0.38446032276E+01 -0.14701163123E+02  0.15369644866E+02  0.17770000000E+01 0.  1.
         15    1    1    2    0    0  0.78138210102E+01 -0.10853859158E+02  0.29842382897E+02  0.32750383256E+02  0.17770000000E+01 0. -1.
</event>
<event>
 6    1  0.8353910E-003  0.1862742E+03  0.7546771E-02  0.1065490E+00
        -11   -1    0    0    0    0  0.00000000000E+00  0.00000000000E+00  0.18250000000E+03  0.18250000000E+03  0.00000000000E+00 0.  1.
         11   -1    0    0    0    0 -0.00000000000E+00 -0.00000000000E+00 -0.18250000000E+03  0.18250000000E+03  0.00000000000E+00 0.  1.
        -11    1    1    2    0    0 -0.85880797858E+01 -0.21846332704E+01  0.17850595738E+03  0.17872578034E+03  0.00000000000E+00 0.  1.
         11    1    1    2    0    0 -0.48387304372E+00  0.36015725339E+00 -0.43371753840E+02  0.43375948146E+02  0.00000000000E+00 0.  1.
        -15    1    1    2    0    0  0.14580015471E+01 -0.39200979147E+00 -0.13474196481E+03  0.13476213953E+03  0.17770000000E+01 0.  1.
         15    1    1    2    0    0  0.76139512824E+01  0.22164858084E+01 -0.39223872679E+00  0.81361319857E+01  0.17770000000E+01 0. -1.
</event>
<event>
 6    1  0.8353910E-003  0.1830136E+03  0.7546771E-02  0.1068047E+00
        -11   -1    0    0    0    0  0.00000000000E+00  0.00000000000E+00  0.18250000000E+03  0.18250000000E+03  0.00000000000E+00 0. -1.
         11   -1    0    0    0    0 -0.00000000000E+00 -0.00000000000E+00 -0.18250000000E+03  0.18250000000E+03  0.00000000000E+00 0. -1.
        -11    1    1    2    0    0  0.26644160888E+01 -0.14430443579E+01  0.18196119863E+03  0.18198642614E+03  0.00000000000E+00 0. -1.
         11    1    1    2    0    0 -0.33787939282E+00 -0.21380824548E+01 -0.98209193144E+02  0.98233045240E+02  0.00000000000E+00 0. -1.
        -15    1    1    2    0    0 -0.12510573564E+00  0.16405884224E+01 -0.25892416780E+01  0.35452902961E+01  0.17770000000E+01 0. -1.
         15    1    1    2    0    0 -0.22014309604E+01  0.19405383903E+01 -0.81162763811E+02  0.81235238327E+02  0.17770000000E+01 0.  1.
</event>
<event>
 6    1  0.8353910E-003  0.1869427E+03  0.7546771E-02  0.1064972E+00
        -11   -1    0    0    0    0  0.00000000000E+00  0.00000000000E+00  0.18250000000E+03  0.18250000000E+03  0.00000000000E+00 0.  1.
         11   -1    0    0    0    0 -0.00000000000E+00 -0.00000000000E+00 -0.18250000000E+03  0.18250000000E+03  0.00000000000E+00 0. -1.
        -11    1    1    2    0    0 -0.11367557496E+01 -0.22714876371E+01  0.17699308680E+03  0.17701131219E+03  0.00000000000E+00 0.  1.
         11    1    1    2    0    0  0.77208046404E+00  0.36775236104E+01 -0.17801766125E+03  0.17805731662E+03  0.00000000000E+00 0. -1.
        -15    1    1    2    0    0  0.24667928853E+01  0.29784907985E+01  0.19344666513E+01  0.46750791224E+01  0.17770000000E+01 0. -1.
         15    1    1    2    0    0 -0.21021175997E+01 -0.43845267718E+01 -0.90989220227E+00  0.52562920615E+01  0.17770000000E+01 0.  1.
</event>
<event>
 6    1  0.8353910E-003  0.1844665E+03  0.7546771E-02  0.1066900E+00
        -11   -1    0    0    0    0  0.00000000000E+00  0.00000000000E+00  0.18250000000E+03  0.18250000000E+03  0.00000000000E+00 0.  1.
         11   -1    0    0    0    0 -0.00000000000E+00 -0.00000000000E+00 -0.18250000000E+03  0.18250000000E+03  0.00000000000E+00 0.  1.
        -11    1    1    2    0    0  0.73928055389E+01  0.16540887056E+02  0.17962208554E+03  0.18053350972E+03  0.00000000000E+00 0.  1.
         11    1    1    2    0    0 -0.67692468304E+00 -0.26529809477E+01 -0.91233912506E+02  0.91274987407E+02  0.00000000000E+00 0.  1.
        -15    1    1    2    0    0 -0.13513532964E+02 -0.12542104994E+02 -0.37736512135E+02  0.42037150807E+02  0.17770000000E+01 0. -1.
         15    1    1    2    0    0  0.67976521078E+01 -0.13458011145E+01 -0.50651660897E+02  0.51154352067E+02  0.17770000000E+01 0.  1.
</event>
<event>
 6    1  0.8353910E-003  0.1836969E+03  0.7546771E-02  0.1067506E+00
        -11   -1    0    0    0    0  0.00000000000E+00  0.00000000000E+00  0.18250000000E+03  0.18250000000E+03  0.00000000000E+00 0.  1.
         11   -1    0    0    0    0 -0.00000000000E+00 -0.00000000000E+00 -0.18250000000E+03  0.18250000000E+03  0.00000000000E+00 0.  1.
        -11    1    1    2    0    0  0.19691168020E+01 -0.15483062045E+01  0.18128577082E+03  0.18130307602E+03  0.00000000000E+00 0.  1.
         11    1    1    2    0    0 -0.27639089896E-01 -0.29763200851E+01 -0.85017147354E+02  0.85069234094E+02  0.00000000000E+00 0.  1.
        -15    1    1    2    0    0 -0.13299281907E+00  0.45575319993E+01 -0.95947037167E+02  0.96071746394E+02  0.17770000000E+01 0.  1.
         15    1    1    2    0    0 -0.18084848930E+01 -0.32905709674E-01 -0.32158629682E+00  0.25559434932E+01  0.17770000000E+01 0. -1.
</event>
<event>
 6    1  0.8353910E-003  0.1826997E+03  0.7546771E-02  0.1068296E+00
        -11   -1    0    0    0    0  0.00000000000E+00  0.00000000000E+00  0.18250000000E+03  0.18250000000E+03  0.00000000000E+00 0.  1.
         11   -1    0    0    0    0 -0.00000000000E+00 -0.00000000000E+00 -0.18250000000E+03  0.18250000000E+03  0.00000000000E+00 0.  1.
        -11    1    1    2    0    0 -0.76106254958E+00  0.10055466570E+00  0.56495316726E+02  0.56500532205E+02  0.00000000000E+00 0.  1.
         11    1    1    2    0    0  0.13123268512E+01  0.31181838727E+01 -0.18226889826E+03  0.18230029223E+03  0.00000000000E+00 0.  1.
        -15    1    1    2    0    0 -0.32206646187E+00 -0.27169112184E+01  0.12765436747E+02  0.13175713936E+02  0.17770000000E+01 0.  1.
         15    1    1    2    0    0 -0.22919783978E+00 -0.50182732000E+00  0.11300814479E+03  0.11302346163E+03  0.17770000000E+01 0.  1.
</event>
<event>
 6    1  0.8353910E-003  0.1848053E+03  0.7546771E-02  0.1066634E+00
        -11   -1    0    0    0    0  0.00000000000E+00  0.00000000000E+00  0.18250000000E+03  0.18250000000E+03  0.00000000000E+00 0.  1.
         11   -1    0    0    0    0 -0.00000000000E+00 -0.00000000000E+00 -0.18250000000E+03  0.18250000000E+03  0.00000000000E+00 0. -1.
        -11    1    1    2    0    0  0.34002016822E+01 -0.25395612876E+00  0.16678659842E+03  0.16682144730E+03  0.00000000000E+00 0.  1.
         11    1    1    2    0    0  0.21013101406E+01  0.23921821969E+01 -0.18016659704E+03  0.18019473003E+03  0.00000000000E+00 0. -1.
        -15    1    1    2    0    0 -0.77064993580E+00  0.36485229136E+01  0.63174104612E+01  0.75480477416E+01  0.17770000000E+01 0.  1.
         15    1    1    2    0    0 -0.47308618870E+01 -0.57867489818E+01  0.70625881560E+01  0.10435774932E+02  0.17770000000E+01 0.  1.
</event>
<event>
 6    1  0.8353910E-003  0.1884509E+03  0.7546771E-02  0.1063814E+00
        -11   -1    0    0    0    0  0.00000000000E+00  0.00000000000E+00  0.18250000000E+03  0.18250000000E+03  0.00000000000E+00 0.  1.
         11   -1    0    0    0    0 -0.00000000000E+00 -0.00000000000E+00 -0.18250000000E+03  0.18250000000E+03  0.00000000000E+00 0. -1.
        -11    1    1    2    0    0 -0.24330965645E+01 -0.40026433260E+00  0.16449809161E+03  0.16451657154E+03  0.00000000000E+00 0.  1.
         11    1    1    2    0    0  0.15612616008E+01  0.48163719751E+01 -0.17647648736E+03  0.17654910242E+03  0.00000000000E+00 0. -1.
        -15    1    1    2    0    0 -0.84185425844E+01 -0.49181358933E+01  0.10338348251E+02  0.14321281139E+02  0.17770000000E+01 0.  1.
         15    1    1    2    0    0  0.92903775481E+01  0.50202825078E+00  0.16400475000E+01  0.96130448950E+01  0.17770000000E+01 0. -1.
</event>
<event>
 6    1  0.8353910E-003  0.1830826E+03  0.7546771E-02  0.1067992E+00
        -11   -1    0    0    0    0  0.00000000000E+00  0.00000000000E+00  0.18250000000E+03  0.18250000000E+03  0.00000000000E+00 0.  1.
         11   -1    0    0    0    0 -0.00000000000E+00 -0.00000000000E+00 -0.18250000000E+03  0.18250000000E+03  0.00000000000E+00 0. -1.
        -11    1    1    2    0    0 -0.23911837505E+01 -0.58972183730E+01  0.11363728074E+03  0.11381531759E+03  0.00000000000E+00 0.  1.
         11    1    1    2    0    0 -0.26918917636E+01  0.41323632195E+01 -0.18185057313E+03  0.18191743637E+03  0.00000000000E+00 0. -1.
        -15    1    1    2    0    0  0.24059469204E+01  0.26821848528E+01  0.62641775707E+02  0.62770474659E+02  0.17770000000E+01 0.  1.
         15    1    1    2    0    0  0.26771285937E+01 -0.91732969921E+00  0.55715166858E+01  0.64967713877E+01  0.17770000000E+01 0. -1.
</event>
<event>
 6    1  0.8353910E-003  0.1835061E+03  0.7546771E-02  0.1067657E+00
        -11   -1    0    0    0    0  0.00000000000E+00  0.00000000000E+00  0.18250000000E+03  0.18250000000E+03  0.00000000000E+00 0.  1.
         11   -1    0    0    0    0 -0.00000000000E+00 -0.00000000000E+00 -0.18250000000E+03  0.18250000000E+03  0.00000000000E+00 0. -1.
        -11    1    1    2    0    0 -0.88068564110E+01  0.74455017369E+01  0.18112710632E+03  0.18149387003E+03  0.00000000000E+00 0.  1.
         11    1    1    2    0    0 -0.85838911392E+00 -0.71444643152E+01 -0.46794392783E+02  0.47344433655E+02  0.00000000000E+00 0. -1.
        -15    1    1    2    0    0  0.37645048477E+00 -0.35595391350E+01 -0.48107235326E+01  0.62540246025E+01  0.17770000000E+01 0.  1.
         15    1    1    2    0    0  0.92887950401E+01  0.32585017134E+01 -0.12952199000E+03  0.12990767171E+03  0.17770000000E+01 0. -1.
</event>
<event>
 6    1  0.8353910E-003  0.1826344E+03  0.7546771E-02  0.1068348E+00
        -11   -1    0    0    0    0  0.00000000000E+00  0.00000000000E+00  0.18250000000E+03  0.18250000000E+03  0.00000000000E+00 0.  1.
         11   -1    0    0    0    0 -0.00000000000E+00 -0.00000000000E+00 -0.18250000000E+03  0.18250000000E+03  0.00000000000E+00 0.  1.
        -11    1    1    2    0    0 -0.20542178874E-01  0.11696231863E+01  0.58190144798E+02  0.58201901962E+02  0.00000000000E+00 0.  1.
         11    1    1    2    0    0  0.25330118778E+01 -0.53548667217E+01 -0.18226939632E+03  0.18236563158E+03  0.00000000000E+00 0.  1.
        -15    1    1    2    0    0  0.79702385029E+00  0.48339725121E+01  0.54414620463E+02  0.54663618490E+02  0.17770000000E+01 0.  1.
         15    1    1    2    0    0 -0.33094935493E+01 -0.64872897672E+00  0.69664631061E+02  0.69768847967E+02  0.17770000000E+01 0. -1.
</event>
<event>
 6    1  0.8353910E-003  0.1826002E+03  0.7546771E-02  0.1068375E+00
        -11   -1    0    0    0    0  0.00000000000E+00  0.00000000000E+00  0.18250000000E+03  0.18250000000E+03  0.00000000000E+00 0.  1.
         11   -1    0    0    0    0 -0.00000000000E+00 -0.00000000000E+00 -0.18250000000E+03  0.18250000000E+03  0.00000000000E+00 0. -1.
        -11    1    1    2    0    0  0.64145705798E+00  0.88009159876E+00  0.37895891677E+02  0.37911536956E+02  0.00000000000E+00 0.  1.
         11    1    1    2    0    0  0.26103331223E+01  0.88349747234E-01 -0.18238108797E+03  0.18239978863E+03  0.00000000000E+00 0. -1.
        -15    1    1    2    0    0 -0.66606024816E+00 -0.32689557649E+01  0.70486618102E+02  0.70587893923E+02  0.17770000000E+01 0. -1.
         15    1    1    2    0    0 -0.25857299321E+01  0.23005144189E+01  0.73998578189E+02  0.74100780488E+02  0.17770000000E+01 0.  1.
</event>
<event>
 6    1  0.8353910E-003  0.1831448E+03  0.7546771E-02  0.1067943E+00
        -11   -1    0    0    0    0  0.00000000000E+00  0.00000000000E+00  0.18250000000E+03  0.18250000000E+03  0.00000000000E+00 0. -1.
         11   -1    0    0    0    0 -0.00000000000E+00 -0.00000000000E+00 -0.18250000000E+03  0.18250000000E+03  0.00000000000E+00 0. -1.
        -11    1    1    2    0    0  0.67203130347E+01  0.17357753337E+00  0.18173089626E+03  0.18185519347E+03  0.00000000000E+00 0. -1.
         11    1    1    2    0    0  0.39757967741E+01  0.28792345282E+01 -0.93751048263E+02  0.93879475935E+02  0.00000000000E+00 0. -1.
        -15    1    1    2    0    0 -0.11494234410E+02 -0.28043310897E+00 -0.64257510615E+02  0.65302231714E+02  0.17770000000E+01 0.  1.
         15    1    1    2    0    0  0.79812460144E+00 -0.27723789526E+01 -0.23722337384E+02  0.23963098879E+02  0.17770000000E+01 0. -1.
</event>
<event>
 6    1  0.8353910E-003  0.1847198E+03  0.7546771E-02  0.1066701E+00
        -11   -1    0    0    0    0  0.00000000000E+00  0.00000000000E+00  0.18250000000E+03  0.18250000000E+03  0.00000000000E+00 0. -1.
         11   -1    0    0    0    0 -0.00000000000E+00 -0.00000000000E+00 -0.18250000000E+03  0.18250000000E+03  0.00000000000E+00 0.  1.
        -11    1    1    2    0    0 -0.80225299093E+00  0.12971205616E+01  0.67283450295E+02  0.67300734136E+02  0.00000000000E+00 0. -1.
         11    1    1    2    0    0 -0.35909043834E+01  0.84546972716E+01 -0.18004599126E+03  0.18028015828E+03  0.00000000000E+00 0.  1.
        -15    1    1    2    0    0  0.22062158277E+01  0.81345032868E+01  0.75504111120E+02  0.75993855390E+02  0.17770000000E+01 0. -1.
         15    1    1    2    0    0  0.21869415466E+01 -0.17886321120E+02  0.37258429841E+02  0.41425252199E+02  0.17770000000E+01 0. -1.
</event>
<event>
 6    1  0.1085747E-002  0.1900496E+03  0.7546771E-02  0.1062599E+00
        -11   -1    0    0    0    0  0.00000000000E+00  0.00000000000E+00  0.18250000000E+03  0.18250000000E+03  0.00000000000E+00 0.  1.
         11   -1    0    0    0    0 -0.00000000000E+00 -0.00000000000E+00 -0.18250000000E+03  0.18250000000E+03  0.00000000000E+00 0. -1.
        -11    1    1    2    0    0 -0.42523866023E+01 -0.60500828142E+01  0.17479408205E+03  0.17495044273E+03  0.00000000000E+00 0.  1.
         11    1    1    2    0    0  0.17576487794E+01  0.72051211817E+01 -0.13888911821E+03  0.13908698810E+03  0.00000000000E+00 0. -1.
        -15    1    1    2    0    0  0.90754867352E+00  0.24487129102E+01  0.70843901766E+01  0.77566843874E+01  0.17770000000E+01 0. -1.
         15    1    1    2    0    0  0.15871891494E+01 -0.36037512777E+01 -0.42989354011E+02  0.43205884784E+02  0.17770000000E+01 0.  1.
</event>
<event>
 6    1  0.8353910E-003  0.1840376E+03  0.7546771E-02  0.1067237E+00
        -11   -1    0    0    0    0  0.00000000000E+00  0.00000000000E+00  0.18250000000E+03  0.18250000000E+03  0.00000000000E+00 0. -1.
         11   -1    0    0    0    0 -0.00000000000E+00 -0.00000000000E+00 -0.18250000000E+03  0.18250000000E+03  0.00000000000E+00 0. -1.
        -11    1    1    2    0    0  0.73486395653E+00  0.29429591710E+01  0.18093698726E+03  0.18096241155E+03  0.00000000000E+00 0. -1.
         11    1    1    2    0    0 -0.23838550609E+01 -0.16889449681E+01 -0.16112385220E+03  0.16115033679E+03  0.00000000000E+00 0. -1.
        -15    1    1    2    0    0 -0.14426267516E+01 -0.28195974209E+01 -0.11312843729E+01  0.38037921727E+01  0.17770000000E+01 0. -1.
         15    1    1    2    0    0  0.30916178559E+01  0.15655832181E+01 -0.18681850693E+02  0.19083459490E+02  0.17770000000E+01 0. -1.
</event>
<event>
 6    1  0.8353910E-003  0.1764404E+03  0.7546771E-02  0.1073383E+00
        -11   -1    0    0    0    0  0.00000000000E+00  0.00000000000E+00  0.18250000000E+03  0.18250000000E+03  0.00000000000E+00 0. -1.
         11   -1    0    0    0    0 -0.00000000000E+00 -0.00000000000E+00 -0.18250000000E+03  0.18250000000E+03  0.00000000000E+00 0.  1.
        -11    1    1    2    0    0 -0.15766944631E+01  0.24061707895E+01  0.17550595284E+03  0.17552952773E+03  0.00000000000E+00 0. -1.
         11    1    1    2    0    0 -0.26819933410E+01 -0.10571079379E+01 -0.17736090438E+03  0.17738433123E+03  0.00000000000E+00 0.  1.
        -15    1    1    2    0    0  0.52658659676E+01 -0.14317708878E+01 -0.32441414134E+01  0.65925332592E+01  0.17770000000E+01 0.  1.
         15    1    1    2    0    0 -0.10071781635E+01  0.82708036214E-01  0.50990929561E+01  0.54936077806E+01  0.17770000000E+01 0.  1.
</event>
<event>
 6    1  0.8353910E-003  0.1897247E+03  0.7546771E-02  0.1062845E+00
        -11   -1    0    0    0    0  0.00000000000E+00  0.00000000000E+00  0.18250000000E+03  0.18250000000E+03  0.00000000000E+00 0.  1.
         11   -1    0    0    0    0 -0.00000000000E+00 -0.00000000000E+00 -0.18250000000E+03  0.18250000000E+03  0.00000000000E+00 0. -1.
        -11    1    1    2    0    0  0.13695774177E+01  0.13738492520E+01  0.88346932601E+02  0.88368227911E+02  0.00000000000E+00 0.  1.
         11    1    1    2    0    0 -0.19194829211E+01  0.19079861359E+01 -0.17525438316E+03  0.17527527961E+03  0.00000000000E+00 0. -1.
        -15    1    1    2    0    0  0.38507059385E+01  0.18309881279E+01  0.92672392155E+02  0.92787447699E+02  0.17770000000E+01 0. -1.
         15    1    1    2    0    0 -0.33008004350E+01 -0.51128235157E+01 -0.57649415945E+01  0.85690447777E+01  0.17770000000E+01 0.  1.
</event>
<event>
 6    1  0.8353910E-003  0.1847102E+03  0.7546771E-02  0.1066709E+00
        -11   -1    0    0    0    0  0.00000000000E+00  0.00000000000E+00  0.18250000000E+03  0.18250000000E+03  0.00000000000E+00 0.  1.
         11   -1    0    0    0    0 -0.00000000000E+00 -0.00000000000E+00 -0.18250000000E+03  0.18250000000E+03  0.00000000000E+00 0.  1.
        -11    1    1    2    0    0 -0.16575315393E+00  0.48936574980E+01  0.14533699074E+03  0.14541944930E+03  0.00000000000E+00 0.  1.
         11    1    1    2    0    0 -0.22596270967E+01 -0.37193625635E+01 -0.18023723000E+03  0.18028976302E+03  0.00000000000E+00 0.  1.
        -15    1    1    2    0    0 -0.18233901422E+01  0.19475346978E+01 -0.68109608721E+00  0.32770816117E+01  0.17770000000E+01 0. -1.
         15    1    1    2    0    0  0.42487703928E+01 -0.31218296322E+01  0.35581335353E+02  0.36013706066E+02  0.17770000000E+01 0.  1.
</event>
<event>
 6    1  0.8353910E-003  0.1837048E+03  0.7546771E-02  0.1067500E+00
        -11   -1    0    0    0    0  0.00000000000E+00  0.00000000000E+00  0.18250000000E+03  0.18250000000E+03  0.00000000000E+00 0.  1.
         11   -1    0    0    0    0 -0.00000000000E+00 -0.00000000000E+00 -0.18250000000E+03  0.18250000000E+03  0.00000000000E+00 0. -1.
        -11    1    1    2    0    0 -0.53653933068E+01  0.14230327989E+01  0.10623699542E+03  0.10638191417E+03  0.00000000000E+00 0.  1.
         11    1    1    2    0    0 -0.45753041644E+00 -0.32631373564E+01 -0.18126523358E+03  0.18129518003E+03  0.00000000000E+00 0. -1.
        -15    1    1    2    0    0  0.87220415852E+01 -0.45842220790E+01  0.28000808086E+02  0.29737049012E+02  0.17770000000E+01 0. -1.
         15    1    1    2    0    0 -0.28991178620E+01  0.64243266365E+01  0.47027430074E+02  0.47585856780E+02  0.17770000000E+01 0.  1.
</event>
<event>
 6    1  0.8353910E-003  0.1830089E+03  0.7546771E-02  0.1068050E+00
        -11   -1    0    0    0    0  0.00000000000E+00  0.00000000000E+00  0.18250000000E+03  0.18250000000E+03  0.00000000000E+00 0. -1.
         11   -1    0    0    0    0 -0.00000000000E+00 -0.00000000000E+00 -0.18250000000E+03  0.18250000000E+03  0.00000000000E+00 0. -1.
        -11    1    1    2    0    0  0.28067253286E+01 -0.11852492003E+01  0.14557777411E+03  0.14560965228E+03  0.00000000000E+00 0. -1.
         11    1    1    2    0    0  0.46920470435E+00  0.24981069319E+01 -0.18197336456E+03  0.18199111544E+03  0.00000000000E+00 0. -1.
        -15    1    1    2    0    0  0.16319367989E+01 -0.14259629154E+01  0.19920876594E+02  0.20117048522E+02  0.17770000000E+01 0. -1.
         15    1    1    2    0    0 -0.49078668318E+01  0.11310518377E+00  0.16474713859E+02  0.17282183755E+02  0.17770000000E+01 0.  1.
</event>
<event>
 6    1  0.8353910E-003  0.1853028E+03  0.7546771E-02  0.1066245E+00
        -11   -1    0    0    0    0  0.00000000000E+00  0.00000000000E+00  0.18250000000E+03  0.18250000000E+03  0.00000000000E+00 0.  1.
         11   -1    0    0    0    0 -0.00000000000E+00 -0.00000000000E+00 -0.18250000000E+03  0.18250000000E+03  0.00000000000E+00 0. -1.
        -11    1    1    2    0    0  0.31154929142E+01 -0.47681404025E+00  0.17669920417E+03  0.17672731085E+03  0.00000000000E+00 0.  1.
         11    1    1    2    0    0  0.50175004520E+00  0.30174874502E+01 -0.17967112869E+03  0.17969716600E+03  0.00000000000E+00 0. -1.
        -15    1    1    2    0    0 -0.25503462609E+01 -0.21758128912E+01 -0.11353556240E+01  0.39604531535E+01  0.17770000000E+01 0. -1.
         15    1    1    2    0    0 -0.10668966985E+01 -0.36486051879E+00  0.41072801525E+01  0.46150699902E+01  0.17770000000E+01 0. -1.
</event>
<event>
 6    1  0.8353910E-003  0.1846662E+03  0.7546771E-02  0.1066744E+00
        -11   -1    0    0    0    0  0.00000000000E+00  0.00000000000E+00  0.18250000000E+03  0.18250000000E+03  0.00000000000E+00 0.  1.
         11   -1    0    0    0    0 -0.00000000000E+00 -0.00000000000E+00 -0.18250000000E+03  0.18250000000E+03  0.00000000000E+00 0.  1.
        -11    1    1    2    0    0 -0.25805616754E+01 -0.14978049065E+01  0.18030914910E+03  0.18033383478E+03  0.00000000000E+00 0.  1.
         11    1    1    2    0    0  0.26785629409E+01 -0.15843775913E+01 -0.17541078944E+03  0.17543839376E+03  0.00000000000E+00 0.  1.
        -15    1    1    2    0    0 -0.29189327063E+01  0.28874935104E+01 -0.29947473170E+01  0.53836815851E+01  0.17770000000E+01 0. -1.
         15    1    1    2    0    0  0.28209314408E+01  0.19468898735E+00 -0.19036123420E+01  0.38440898720E+01  0.17770000000E+01 0.  1.
</event>
<event>
 6    1  0.8353910E-003  0.1830694E+03  0.7546771E-02  0.1068002E+00
        -11   -1    0    0    0    0  0.00000000000E+00  0.00000000000E+00  0.18250000000E+03  0.18250000000E+03  0.00000000000E+00 0.  1.
         11   -1    0    0    0    0 -0.00000000000E+00 -0.00000000000E+00 -0.18250000000E+03  0.18250000000E+03  0.00000000000E+00 0.  1.
        -11    1    1    2    0    0 -0.19886987535E+01 -0.20232682025E+01  0.12702855415E+03  0.12706023023E+03  0.00000000000E+00 0.  1.
         11    1    1    2    0    0 -0.20339176957E+01 -0.52304034694E+01 -0.18184401729E+03  0.18193059271E+03  0.00000000000E+00 0.  1.
        -15    1    1    2    0    0 -0.34284194694E+00  0.20963920728E+01  0.50844611431E+01  0.57898078068E+01  0.17770000000E+01 0. -1.
         15    1    1    2    0    0  0.43654583962E+01  0.51572795991E+01  0.49731001991E+02  0.50219369250E+02  0.17770000000E+01 0.  1.
</event>
<event>
 6    1  0.8353910E-003  0.1844598E+03  0.7546771E-02  0.1066905E+00
        -11   -1    0    0    0    0  0.00000000000E+00  0.00000000000E+00  0.18250000000E+03  0.18250000000E+03  0.00000000000E+00 0.  1.
         11   -1    0    0    0    0 -0.00000000000E+00 -0.00000000000E+00 -0.18250000000E+03  0.18250000000E+03  0.00000000000E+00 0.  1.
        -11    1    1    2    0    0 -0.32537041785E+01 -0.63135092107E+00  0.16950084490E+03  0.16953324634E+03  0.00000000000E+00 0.  1.
         11    1    1    2    0    0 -0.15097810171E+01  0.19115629899E+01 -0.18052380474E+03  0.18054023815E+03  0.00000000000E+00 0.  1.
        -15    1    1    2    0    0  0.47063660756E+01  0.67708599664E+00  0.11179218743E+02  0.12277662147E+02  0.17770000000E+01 0.  1.
         15    1    1    2    0    0  0.57119119982E-01 -0.19572980654E+01 -0.15625889763E+00  0.26488533659E+01  0.17770000000E+01 0. -1.
</event>
<event>
 6    1  0.8353910E-003  0.1845333E+03  0.7546771E-02  0.1066848E+00
        -11   -1    0    0    0    0  0.00000000000E+00  0.00000000000E+00  0.18250000000E+03  0.18250000000E+03  0.00000000000E+00 0. -1.
         11   -1    0    0    0    0 -0.00000000000E+00 -0.00000000000E+00 -0.18250000000E+03  0.18250000000E+03  0.00000000000E+00 0. -1.
        -11    1    1    2    0    0 -0.85331360571E+01  0.99371013368E+01  0.17999071914E+03  0.18046667108E+03  0.00000000000E+00 0. -1.
         11    1    1    2    0    0 -0.12265773878E+01 -0.33525237622E+00 -0.30531358212E+02  0.30557825847E+02  0.00000000000E+00 0. -1.
        -15    1    1    2    0    0  0.61291735926E+01 -0.17751440658E+02 -0.40954976264E+02  0.45090444931E+02  0.17770000000E+01 0. -1.
         15    1    1    2    0    0  0.36305398523E+01  0.81495916969E+01 -0.10850438467E+03  0.10888505814E+03  0.17770000000E+01 0.  1.
</event>
<event>
 6    1  0.1553765E-002  0.1836891E+03  0.7546771E-02  0.1067512E+00
        -11   -1    0    0    0    0  0.00000000000E+00  0.00000000000E+00  0.18250000000E+03  0.18250000000E+03  0.00000000000E+00 0.  1.
         11   -1    0    0    0    0 -0.00000000000E+00 -0.00000000000E+00 -0.18250000000E+03  0.18250000000E+03  0.00000000000E+00 0.  1.
        -11    1    1    2    0    0  0.24216474440E+01 -0.12023951135E+01  0.18129072836E+03  0.18131088858E+03  0.00000000000E+00 0.  1.
         11    1    1    2    0    0 -0.24279321709E+01  0.77537645214E+01 -0.92533949110E+02  0.92889975007E+02  0.00000000000E+00 0.  1.
        -15    1    1    2    0    0  0.17069026643E+00 -0.79450964378E+01 -0.88051863917E+02  0.88427609721E+02  0.17770000000E+01 0. -1.
         15    1    1    2    0    0 -0.16440553953E+00  0.13937270299E+01 -0.70491533048E+00  0.23715266894E+01  0.17770000000E+01 0.  1.
</event>
<event>
 6    1  0.8353910E-003  0.1831999E+03  0.7546771E-02  0.1067899E+00
        -11   -1    0    0    0    0  0.00000000000E+00  0.00000000000E+00  0.18250000000E+03  0.18250000000E+03  0.00000000000E+00 0. -1.
         11   -1    0    0    0    0 -0.00000000000E+00 -0.00000000000E+00 -0.18250000000E+03  0.18250000000E+03  0.00000000000E+00 0. -1.
        -11    1    1    2    0    0 -0.99602989783E+00 -0.16298029830E+01  0.13846318390E+03  0.13847635766E+03  0.00000000000E+00 0. -1.
         11    1    1    2    0    0  0.35458692141E+01  0.47362223861E+01 -0.18170375602E+03  0.18180005485E+03  0.00000000000E+00 0. -1.
        -15    1    1    2    0    0  0.30826534117E+00 -0.29174907233E+01  0.39652373841E+02  0.39800442961E+02  0.17770000000E+01 0. -1.
         15    1    1    2    0    0 -0.28581046574E+01 -0.18892867982E+00  0.35881982734E+01  0.49231445366E+01  0.17770000000E+01 0.  1.
</event>
<event>
 6    1  0.8353910E-003  0.1826462E+03  0.7546771E-02  0.1068338E+00
        -11   -1    0    0    0    0  0.00000000000E+00  0.00000000000E+00  0.18250000000E+03  0.18250000000E+03  0.00000000000E+00 0. -1.
         11   -1    0    0    0    0 -0.00000000000E+00 -0.00000000000E+00 -0.18250000000E+03  0.18250000000E+03  0.00000000000E+00 0. -1.
        -11    1    1    2    0    0  0.98428957556E+00  0.53974608642E+01  0.18227119963E+03  0.18235375407E+03  0.00000000000E+00 0. -1.
         11    1    1    2    0    0  0.15859612595E+01 -0.24530496464E+01 -0.54355252995E+02  0.54433686756E+02  0.00000000000E+00 0. -1.
        -15    1    1    2    0    0  0.17403366229E+01  0.37971917083E+00 -0.22298878506E+02  0.22440380340E+02  0.17770000000E+01 0. -1.
         15    1    1    2    0    0 -0.43105874580E+01 -0.33241303886E+01 -0.10561706813E+03  0.10577217884E+03  0.17770000000E+01 0. -1.
</event>
<event>
 6    1  0.8353910E-003  0.1895138E+03  0.7546771E-02  0.1063005E+00
        -11   -1    0    0    0    0  0.00000000000E+00  0.00000000000E+00  0.18250000000E+03  0.18250000000E+03  0.00000000000E+00 0.  1.
         11   -1    0    0    0    0 -0.00000000000E+00 -0.00000000000E+00 -0.18250000000E+03  0.18250000000E+03  0.00000000000E+00 0.  1.
        -11    1    1    2    0    0  0.20715989022E+02 -0.13540580785E+01  0.17425391659E+03  0.17548621918E+03  0.00000000000E+00 0.  1.
         11    1    1    2    0    0  0.42117916413E+00  0.15650206258E+01 -0.85530416976E+02  0.85545770846E+02  0.00000000000E+00 0.  1.
        -15    1    1    2    0    0 -0.31605799861E+02  0.97004178697E+01 -0.34434466601E+02  0.47769393034E+02  0.17770000000E+01 0.  1.
         15    1    1    2    0    0  0.10468631675E+02 -0.99113804171E+01 -0.54289033016E+02  0.56198616938E+02  0.17770000000E+01 0. -1.
</event>
<event>
 6    1  0.8353910E-003  0.1835239E+03  0.7546771E-02  0.1067643E+00
        -11   -1    0    0    0    0  0.00000000000E+00  0.00000000000E+00  0.18250000000E+03  0.18250000000E+03  0.00000000000E+00 0. -1.
         11   -1    0    0    0    0 -0.00000000000E+00 -0.00000000000E+00 -0.18250000000E+03  0.18250000000E+03  0.00000000000E+00 0.  1.
        -11    1    1    2    0    0  0.30731529029E+01  0.16918457020E+01  0.16650169176E+03  0.16653864407E+03  0.00000000000E+00 0. -1.
         11    1    1    2    0    0 -0.42451108839E+01 -0.12476399270E+01 -0.18142214570E+03  0.18147609352E+03  0.00000000000E+00 0.  1.
        -15    1    1    2    0    0  0.35757640640E+01  0.14349119889E+01  0.56546169801E+01  0.70694754578E+01  0.17770000000E+01 0.  1.
         15    1    1    2    0    0 -0.24038060829E+01 -0.18791177639E+01  0.92658369560E+01  0.99157869455E+01  0.17770000000E+01 0. -1.
</event>
<event>
 6    1  0.8353910E-003  0.1933432E+03  0.7546771E-02  0.1060137E+00
        -11   -1    0    0    0    0  0.00000000000E+00  0.00000000000E+00  0.18250000000E+03  0.18250000000E+03  0.00000000000E+00 0. -1.
         11   -1    0    0    0    0 -0.00000000000E+00 -0.00000000000E+00 -0.18250000000E+03  0.18250000000E+03  0.00000000000E+00 0. -1.
        -11    1    1    2    0    0 -0.37271020570E+01 -0.29027938953E+01  0.17159180994E+03  0.17165682841E+03  0.00000000000E+00 0. -1.
         11    1    1    2    0    0  0.12300668012E+01 -0.27584947727E+01 -0.90102611152E+02  0.90153218989E+02  0.00000000000E+00 0. -1.
        -15    1    1    2    0    0 -0.94141159356E+00 -0.19432464083E+02 -0.74265141124E+02  0.76791769294E+02  0.17770000000E+01 0. -1.
         15    1    1    2    0    0  0.34384468494E+01  0.25093752751E+02 -0.72240576609E+01  0.26398183308E+02  0.17770000000E+01 0.  1.
</event>
<event>
 6    1  0.8353910E-003  0.1854099E+03  0.7546771E-02  0.1066162E+00
        -11   -1    0    0    0    0  0.00000000000E+00  0.00000000000E+00  0.18250000000E+03  0.18250000000E+03  0.00000000000E+00 0. -1.
         11   -1    0    0    0    0 -0.00000000000E+00 -0.00000000000E+00 -0.18250000000E+03  0.18250000000E+03  0.00000000000E+00 0.  1.
        -11    1    1    2    0    0  0.35622860538E+01  0.64613287391E+00  0.17955356566E+03  0.17959006184E+03  0.00000000000E+00 0. -1.
         11    1    1    2    0    0  0.94713611783E+01 -0.92358953149E+01 -0.13745366946E+03  0.13808881089E+03  0.00000000000E+00 0.  1.
        -15    1    1    2    0    0 -0.66261223601E+01  0.82680937192E+01 -0.10481621875E+02  0.15009630156E+02  0.17770000000E+01 0.  1.
         15    1    1    2    0    0 -0.64075248720E+01  0.32166872186E+00 -0.31618274321E+02  0.32311497114E+02  0.17770000000E+01 0. -1.
</event>
<event>
 6    1  0.8353910E-003  0.1835513E+03  0.7546771E-02  0.1067621E+00
        -11   -1    0    0    0    0  0.00000000000E+00  0.00000000000E+00  0.18250000000E+03  0.18250000000E+03  0.00000000000E+00 0.  1.
         11   -1    0    0    0    0 -0.00000000000E+00 -0.00000000000E+00 -0.18250000000E+03  0.18250000000E+03  0.00000000000E+00 0. -1.
        -11    1    1    2    0    0  0.13930696462E+00  0.34580976031E+01  0.11757047223E+03  0.11762140020E+03  0.00000000000E+00 0.  1.
         11    1    1    2    0    0  0.23940971452E+01 -0.24687630492E+01 -0.18141606942E+03  0.18144866143E+03  0.00000000000E+00 0. -1.
        -15    1    1    2    0    0 -0.58592246711E+01 -0.65406212224E+01  0.26164152613E+02  0.27655575400E+02  0.17770000000E+01 0.  1.
         15    1    1    2    0    0  0.33258205613E+01  0.55512866685E+01  0.37681444577E+02  0.38274362966E+02  0.17770000000E+01 0. -1.
</event>
<event>
 6    1  0.1186701E-002  0.1947112E+03  0.7546771E-02  0.1059130E+00
        -11   -1    0    0    0    0  0.00000000000E+00  0.00000000000E+00  0.18250000000E+03  0.18250000000E+03  0.00000000000E+00 0.  1.
         11   -1    0    0    0    0 -0.00000000000E+00 -0.00000000000E+00 -0.18250000000E+03  0.18250000000E+03  0.00000000000E+00 0.  1.
        -11    1    1    2    0    0 -0.15786180400E+01 -0.20093952702E+01  0.16183753732E+03  0.16185770970E+03  0.00000000000E+00 0.  1.
         11    1    1    2    0    0  0.32919849735E+00  0.15196611810E+02 -0.16960906485E+03  0.17028881426E+03  0.00000000000E+00 0.  1.
        -15    1    1    2    0    0  0.22435419764E+01 -0.28123165894E+01  0.17820686311E+02  0.18266833190E+02  0.17770000000E+01 0.  1.
         15    1    1    2    0    0 -0.99412243374E+00 -0.10374899951E+02 -0.10049158784E+02  0.14586642851E+02  0.17770000000E+01 0.  1.
</event>
<event>
 6    1  0.8353910E-003  0.1676027E+03  0.7546771E-02  0.1080973E+00
        -11   -1    0    0    0    0  0.00000000000E+00  0.00000000000E+00  0.18250000000E+03  0.18250000000E+03  0.00000000000E+00 0.  1.
         11   -1    0    0    0    0 -0.00000000000E+00 -0.00000000000E+00 -0.18250000000E+03  0.18250000000E+03  0.00000000000E+00 0. -1.
        -11    1    1    2    0    0 -0.65929340018E+01 -0.84962658897E+01  0.16520575441E+03  0.16555541249E+03  0.00000000000E+00 0.  1.
         11    1    1    2    0    0  0.14801591528E+02 -0.27560102273E+01 -0.16929599899E+03  0.16996416674E+03  0.00000000000E+00 0. -1.
        -15    1    1    2    0    0 -0.88684326078E+01  0.17675718368E+02  0.83537650219E+01  0.21541198569E+02  0.17770000000E+01 0.  1.
         15    1    1    2    0    0  0.65977508141E+00 -0.64234422514E+01 -0.42635204478E+01  0.79392221989E+01  0.17770000000E+01 0. -1.
</event>
<event>
 6    1  0.1568548E-002  0.1909011E+03  0.7546771E-02  0.1061957E+00
        -11   -1    0    0    0    0  0.00000000000E+00  0.00000000000E+00  0.18250000000E+03  0.18250000000E+03  0.00000000000E+00 0. -1.
         11   -1    0    0    0    0 -0.00000000000E+00 -0.00000000000E+00 -0.18250000000E+03  0.18250000000E+03  0.00000000000E+00 0.  1.
        -11    1    1    2    0    0  0.52090605645E+01 -0.25505221298E+01  0.91031636691E+02  0.91216217603E+02  0.00000000000E+00 0. -1.
         11    1    1    2    0    0 -0.55035065961E+02  0.17777022043E+02 -0.16421186885E+03  0.17409887670E+03  0.00000000000E+00 0.  1.
        -15    1    1    2    0    0  0.55652672456E+02 -0.14784573872E+02  0.51883656269E+02  0.77529833567E+02  0.17770000000E+01 0.  1.
         15    1    1    2    0    0 -0.58266670596E+01 -0.44192604074E+00  0.21296575886E+02  0.22155072131E+02  0.17770000000E+01 0. -1.
</event>
<event>
 6    1  0.8353910E-003  0.1871453E+03  0.7546771E-02  0.1064816E+00
        -11   -1    0    0    0    0  0.00000000000E+00  0.00000000000E+00  0.18250000000E+03  0.18250000000E+03  0.00000000000E+00 0.  1.
         11   -1    0    0    0    0 -0.00000000000E+00 -0.00000000000E+00 -0.18250000000E+03  0.18250000000E+03  0.00000000000E+00 0.  1.
        -11    1    1    2    0    0  0.24491085442E+00  0.27163655472E+01  0.99452790601E+02  0.99490181332E+02  0.00000000000E+00 0.  1.
         11    1    1    2    0    0  0.45465560363E+00 -0.79251341860E+01 -0.17767745959E+03  0.17785469944E+03  0.00000000000E+00 0.  1.
        -15    1    1    2    0    0  0.98290665802E+01 -0.69055189749E+01  0.66749107250E+02  0.67844659258E+02  0.17770000000E+01 0.  1.
         15    1    1    2    0    0 -0.10528633038E+02  0.12114287614E+02  0.11475561744E+02  0.19810459974E+02  0.17770000000E+01 0. -1.
</event>
<event>
 6    1  0.8353910E-003  0.1828052E+03  0.7546771E-02  0.1068212E+00
        -11   -1    0    0    0    0  0.00000000000E+00  0.00000000000E+00  0.18250000000E+03  0.18250000000E+03  0.00000000000E+00 0. -1.
         11   -1    0    0    0    0 -0.00000000000E+00 -0.00000000000E+00 -0.18250000000E+03  0.18250000000E+03  0.00000000000E+00 0.  1.
        -11    1    1    2    0    0 -0.70485624988E+00 -0.62914659295E+00  0.51787234643E+02  0.51795852341E+02  0.00000000000E+00 0. -1.
         11    1    1    2    0    0  0.77415316586E+01 -0.24917756269E+01 -0.18201324319E+03  0.18219484338E+03  0.00000000000E+00 0.  1.
        -15    1    1    2    0    0 -0.46580670844E+01  0.51383168573E+01  0.35470421245E+02  0.36185748595E+02  0.17770000000E+01 0. -1.
         15    1    1    2    0    0 -0.23786083244E+01 -0.20173946374E+01  0.94755587301E+02  0.94823555684E+02  0.17770000000E+01 0. -1.
</event>
<event>
 6    1  0.8353910E-003  0.1784065E+03  0.7546771E-02  0.1071761E+00
        -11   -1    0    0    0    0  0.00000000000E+00  0.00000000000E+00  0.18250000000E+03  0.18250000000E+03  0.00000000000E+00 0. -1.
         11   -1    0    0    0    0 -0.00000000000E+00 -0.00000000000E+00 -0.18250000000E+03  0.18250000000E+03  0.00000000000E+00 0. -1.
        -11    1    1    2    0    0 -0.29589394695E+01  0.12182948132E+01  0.17835270887E+03  0.17838141250E+03  0.00000000000E+00 0. -1.
         11    1    1    2    0    0  0.46670049062E+01  0.29939275027E+01 -0.17837441650E+03  0.17846057547E+03  0.00000000000E+00 0. -1.
        -15    1    1    2    0    0  0.17196325167E+01 -0.10161600489E+01  0.13183532623E+01  0.29808558438E+01  0.17770000000E+01 0. -1.
         15    1    1    2    0    0 -0.34276979533E+01 -0.31960622669E+01 -0.12966456350E+01  0.51771561862E+01  0.17770000000E+01 0.  1.
</event>
<event>
 6    1  0.8353910E-003  0.1889926E+03  0.7546771E-02  0.1063401E+00
        -11   -1    0    0    0    0  0.00000000000E+00  0.00000000000E+00  0.18250000000E+03  0.18250000000E+03  0.00000000000E+00 0.  1.
         11   -1    0    0    0    0 -0.00000000000E+00 -0.00000000000E+00 -0.18250000000E+03  0.18250000000E+03  0.00000000000E+00 0. -1.
        -11    1    1    2    0    0 -0.49261408853E+01  0.16652260952E+01  0.17593059752E+03  0.17600742878E+03  0.00000000000E+00 0.  1.
         11    1    1    2    0    0  0.10925220260E+01 -0.26706754211E+01 -0.12197696383E+03  0.12201108891E+03  0.00000000000E+00 0. -1.
        -15    1    1    2    0    0  0.47614266955E+01  0.11899846931E+01 -0.60196338731E+02  0.60422215893E+02  0.17770000000E+01 0. -1.
         15    1    1    2    0    0 -0.92780783622E+00 -0.18453536714E+00  0.62427050385E+01  0.65592664133E+01  0.17770000000E+01 0.  1.
</event>
<event>
 6    1  0.8353910E-003  0.1828517E+03  0.7546771E-02  0.1068175E+00
        -11   -1    0    0    0    0  0.00000000000E+00  0.00000000000E+00  0.18250000000E+03  0.18250000000E+03  0.00000000000E+00 0.  1.
         11   -1    0    0    0    0 -0.00000000000E+00 -0.00000000000E+00 -0.18250000000E+03  0.18250000000E+03  0.00000000000E+00 0. -1.
        -11    1    1    2    0    0 -0.15783927811E+01  0.21148684969E+01  0.10925549030E+03  0.10928735588E+03  0.00000000000E+00 0.  1.
         11    1    1    2    0    0 -0.20138955984E+00 -0.33120011957E+01 -0.18211807782E+03  0.18214830271E+03  0.00000000000E+00 0. -1.
        -15    1    1    2    0    0 -0.32547134831E+01  0.25302420706E+01  0.39004525542E+02  0.39262017607E+02  0.17770000000E+01 0.  1.
         15    1    1    2    0    0  0.50344958240E+01 -0.13331093719E+01  0.33858061977E+02  0.34302323808E+02  0.17770000000E+01 0. -1.
</event>
<event>
 6    1  0.8353910E-003  0.1838677E+03  0.7546771E-02  0.1067371E+00
        -11   -1    0    0    0    0  0.00000000000E+00  0.00000000000E+00  0.18250000000E+03  0.18250000000E+03  0.00000000000E+00 0. -1.
         11   -1    0    0    0    0 -0.00000000000E+00 -0.00000000000E+00 -0.18250000000E+03  0.18250000000E+03  0.00000000000E+00 0.  1.
        -11    1    1    2    0    0 -0.45123575987E+01  0.33696747548E+01  0.16830423164E+03  0.16839842774E+03  0.00000000000E+00 0. -1.
         11    1    1    2    0    0  0.17762449829E+01 -0.45746943759E+01 -0.18106584119E+03  0.18113233207E+03  0.00000000000E+00 0.  1.
        -15    1    1    2    0    0 -0.70458049394E+00  0.36624604848E+01  0.54635757792E+01  0.68497036264E+01  0.17770000000E+01 0. -1.
         15    1    1    2    0    0  0.34406931098E+01 -0.24574408638E+01  0.72980337714E+01  0.86195365654E+01  0.17770000000E+01 0. -1.
</event>
<event>
 6    1  0.8353910E-003  0.1826835E+03  0.7546771E-02  0.1068309E+00
        -11   -1    0    0    0    0  0.00000000000E+00  0.00000000000E+00  0.18250000000E+03  0.18250000000E+03  0.00000000000E+00 0. -1.
         11   -1    0    0    0    0 -0.00000000000E+00 -0.00000000000E+00 -0.18250000000E+03  0.18250000000E+03  0.00000000000E+00 0. -1.
        -11    1    1    2    0    0 -0.13504423754E+01 -0.29987636754E+01  0.18228681849E+03  0.18231648437E+03  0.00000000000E+00 0. -1.
         11    1    1    2    0    0 -0.20021591222E+01  0.26769709167E+01 -0.13087184743E+03  0.13091453420E+03  0.00000000000E+00 0. -1.
        -15    1    1    2    0    0  0.24690657952E+01  0.74472691390E+00 -0.42957179841E+02  0.43071196094E+02  0.17770000000E+01 0. -1.
         15    1    1    2    0    0  0.88353570238E+00 -0.42293415517E+00 -0.84577912144E+01  0.86977853425E+01  0.17770000000E+01 0.  1.
</event>
<event>
 6    1  0.8353910E-003  0.1826770E+03  0.7546771E-02  0.1068314E+00
        -11   -1    0    0    0    0  0.00000000000E+00  0.00000000000E+00  0.18250000000E+03  0.18250000000E+03  0.00000000000E+00 0. -1.
         11   -1    0    0    0    0 -0.00000000000E+00 -0.00000000000E+00 -0.18250000000E+03  0.18250000000E+03  0.00000000000E+00 0.  1.
        -11    1    1    2    0    0  0.27410564843E+01  0.22747901219E+01  0.18228823622E+03  0.18232303509E+03  0.00000000000E+00 0. -1.
         11    1    1    2    0    0 -0.77197692920E+00  0.27429326899E+01 -0.10209861807E+03  0.10213837399E+03  0.00000000000E+00 0.  1.
        -15    1    1    2    0    0 -0.19529416476E+01 -0.65538307840E+00 -0.24687073506E+02  0.24836522207E+02  0.17770000000E+01 0. -1.
         15    1    1    2    0    0 -0.16137907543E-01 -0.43623397334E+01 -0.55502544641E+02  0.55702068714E+02  0.17770000000E+01 0.  1.
</event>
<event>
 6    1  0.8353910E-003  0.1868783E+03  0.7546771E-02  0.1065022E+00
        -11   -1    0    0    0    0  0.00000000000E+00  0.00000000000E+00  0.18250000000E+03  0.18250000000E+03  0.00000000000E+00 0.  1.
         11   -1    0    0    0    0 -0.00000000000E+00 -0.00000000000E+00 -0.18250000000E+03  0.18250000000E+03  0.00000000000E+00 0.  1.
        -11    1    1    2    0    0 -0.46183397984E+01  0.47441669352E+00  0.17806115946E+03  0.17812167370E+03  0.00000000000E+00 0.  1.
         11    1    1    2    0    0 -0.48769943498E+01  0.61432451014E-01 -0.17050586120E+03  0.17057560656E+03  0.00000000000E+00 0.  1.
        -15    1    1    2    0    0  0.32961472880E+01  0.11800516438E+00  0.23810254762E+01  0.44390903889E+01  0.17770000000E+01 0.  1.
         15    1    1    2    0    0  0.61991868602E+01 -0.65385430891E+00 -0.99363237299E+01  0.11863629354E+02  0.17770000000E+01 0. -1.
</event>
<event>
 6    1  0.8353910E-003  0.1873960E+03  0.7546771E-02  0.1064623E+00
        -11   -1    0    0    0    0  0.00000000000E+00  0.00000000000E+00  0.18250000000E+03  0.18250000000E+03  0.00000000000E+00 0. -1.
         11   -1    0    0    0    0 -0.00000000000E+00 -0.00000000000E+00 -0.18250000000E+03  0.18250000000E+03  0.00000000000E+00 0.  1.
        -11    1    1    2    0    0 -0.24398320849E+01 -0.54652333135E+01  0.17750316857E+03  0.17760404389E+03  0.00000000000E+00 0. -1.
         11    1    1    2    0    0  0.63798039166E+01 -0.38349589828E+01 -0.15738643722E+03  0.15756236680E+03  0.00000000000E+00 0.  1.
        -15    1    1    2    0    0 -0.16384925774E+01  0.10264230907E+01  0.36522694547E+01  0.44983334088E+01  0.17770000000E+01 0. -1.
         15    1    1    2    0    0 -0.23014792544E+01  0.82737692056E+01 -0.23769000799E+02  0.25335255902E+02  0.17770000000E+01 0.  1.
</event>
<event>
 6    1  0.8353910E-003  0.1847313E+03  0.7546771E-02  0.1066692E+00
        -11   -1    0    0    0    0  0.00000000000E+00  0.00000000000E+00  0.18250000000E+03  0.18250000000E+03  0.00000000000E+00 0. -1.
         11   -1    0    0    0    0 -0.00000000000E+00 -0.00000000000E+00 -0.18250000000E+03  0.18250000000E+03  0.00000000000E+00 0. -1.
        -11    1    1    2    0    0 -0.19492862629E+01  0.54632062446E+01  0.18017535787E+03  0.18026870478E+03  0.00000000000E+00 0. -1.
         11    1    1    2    0    0 -0.47488331563E+00 -0.46895960086E+01 -0.17075973979E+03  0.17082478320E+03  0.00000000000E+00 0. -1.
        -15    1    1    2    0    0 -0.10919382383E+01  0.11224666423E+01 -0.92314582507E+01  0.95304675076E+01  0.17770000000E+01 0.  1.
         15    1    1    2    0    0  0.35161078169E+01 -0.18960768783E+01 -0.18415983126E+00  0.43760445098E+01  0.17770000000E+01 0. -1.
</event>
<event>
 6    1  0.8353910E-003  0.1851320E+03  0.7546771E-02  0.1066379E+00
        -11   -1    0    0    0    0  0.00000000000E+00  0.00000000000E+00  0.18250000000E+03  0.18250000000E+03  0.00000000000E+00 0.  1.
         11   -1    0    0    0    0 -0.00000000000E+00 -0.00000000000E+00 -0.18250000000E+03  0.18250000000E+03  0.00000000000E+00 0. -1.
        -11    1    1    2    0    0 -0.15230492880E+01  0.75341401655E+00  0.98021726752E+02  0.98036453563E+02  0.00000000000E+00 0.  1.
         11    1    1    2    0    0 -0.61583686621E+01 -0.85641533297E+01 -0.17955837563E+03  0.17986795291E+03  0.00000000000E+00 0. -1.
        -15    1    1    2    0    0  0.55163726024E+00  0.16213507661E+02  0.28011256462E+02  0.32418672890E+02  0.17770000000E+01 0. -1.
         15    1    1    2    0    0  0.71297806898E+01 -0.84027683482E+01  0.53525392412E+02  0.54676920638E+02  0.17770000000E+01 0.  1.
</event>
<event>
 6    1  0.8353910E-003  0.1838131E+03  0.7546771E-02  0.1067414E+00
        -11   -1    0    0    0    0  0.00000000000E+00  0.00000000000E+00  0.18250000000E+03  0.18250000000E+03  0.00000000000E+00 0.  1.
         11   -1    0    0    0    0 -0.00000000000E+00 -0.00000000000E+00 -0.18250000000E+03  0.18250000000E+03  0.00000000000E+00 0.  1.
        -11    1    1    2    0    0  0.21093842469E+01 -0.65964480911E-01  0.11166819556E+03  0.11168813614E+03  0.00000000000E+00 0.  1.
         11    1    1    2    0    0 -0.31178929018E+01  0.14200126777E+01 -0.18115451996E+03  0.18118691397E+03  0.00000000000E+00 0.  1.
        -15    1    1    2    0    0  0.78634762091E+00  0.40712314625E-01 -0.57496624702E+00  0.20268979399E+01  0.17770000000E+01 0. -1.
         15    1    1    2    0    0  0.22216103394E+00 -0.13947605114E+01  0.70061290642E+02  0.70098051955E+02  0.17770000000E+01 0.  1.
</event>
<event>
 6    1  0.8353910E-003  0.1826814E+03  0.7546771E-02  0.1068310E+00
        -11   -1    0    0    0    0  0.00000000000E+00  0.00000000000E+00  0.18250000000E+03  0.18250000000E+03  0.00000000000E+00 0.  1.
         11   -1    0    0    0    0 -0.00000000000E+00 -0.00000000000E+00 -0.18250000000E+03  0.18250000000E+03  0.00000000000E+00 0.  1.
        -11    1    1    2    0    0  0.21574869816E+01 -0.36950328024E+01  0.38264091389E+02  0.38502580528E+02  0.00000000000E+00 0.  1.
         11    1    1    2    0    0  0.27301780330E+01  0.27051210964E+01 -0.18227805898E+03  0.18231857376E+03  0.00000000000E+00 0.  1.
        -15    1    1    2    0    0 -0.18773017181E+01 -0.11101090768E+01  0.57096338837E+02  0.57165603657E+02  0.17770000000E+01 0.  1.
         15    1    1    2    0    0 -0.30103632966E+01  0.21000207829E+01  0.86917628757E+02  0.87013242051E+02  0.17770000000E+01 0.  1.
</event>
<event>
 6    1  0.8353910E-003  0.1858331E+03  0.7546771E-02  0.1065832E+00
        -11   -1    0    0    0    0  0.00000000000E+00  0.00000000000E+00  0.18250000000E+03  0.18250000000E+03  0.00000000000E+00 0.  1.
         11   -1    0    0    0    0 -0.00000000000E+00 -0.00000000000E+00 -0.18250000000E+03  0.18250000000E+03  0.00000000000E+00 0.  1.
        -11    1    1    2    0    0  0.45007966213E+01  0.97026935211E+00  0.17910772207E+03  0.17916689063E+03  0.00000000000E+00 0.  1.
         11    1    1    2    0    0 -0.20784049275E+01  0.98298209854E+00 -0.16742725177E+03  0.16744303705E+03  0.00000000000E+00 0.  1.
        -15    1    1    2    0    0 -0.49123251944E+01 -0.24223178202E+00  0.92124950709E+00  0.53099947934E+01  0.17770000000E+01 0.  1.
         15    1    1    2    0    0  0.24899335006E+01 -0.17110196686E+01 -0.12601719806E+02  0.13080077531E+02  0.17770000000E+01 0.  1.
</event>
<event>
 6    1  0.8353910E-003  0.1830998E+03  0.7546771E-02  0.1067978E+00
        -11   -1    0    0    0    0  0.00000000000E+00  0.00000000000E+00  0.18250000000E+03  0.18250000000E+03  0.00000000000E+00 0.  1.
         11   -1    0    0    0    0 -0.00000000000E+00 -0.00000000000E+00 -0.18250000000E+03  0.18250000000E+03  0.00000000000E+00 0. -1.
        -11    1    1    2    0    0  0.35062625821E+01  0.13041038318E+01  0.18186173742E+03  0.18190020919E+03  0.00000000000E+00 0.  1.
         11    1    1    2    0    0 -0.24019004375E+01  0.24460363397E+01 -0.13452123168E+03  0.13456490625E+03  0.00000000000E+00 0. -1.
        -15    1    1    2    0    0 -0.80193888204E+00 -0.60266750594E+01 -0.18618597044E+02  0.19666565616E+02  0.17770000000E+01 0.  1.
         15    1    1    2    0    0 -0.30242326252E+00  0.22765348878E+01 -0.28721908693E+02  0.28868318948E+02  0.17770000000E+01 0. -1.
</event>
<event>
 6    1  0.8353910E-003  0.1857123E+03  0.7546771E-02  0.1065926E+00
        -11   -1    0    0    0    0  0.00000000000E+00  0.00000000000E+00  0.18250000000E+03  0.18250000000E+03  0.00000000000E+00 0.  1.
         11   -1    0    0    0    0 -0.00000000000E+00 -0.00000000000E+00 -0.18250000000E+03  0.18250000000E+03  0.00000000000E+00 0.  1.
        -11    1    1    2    0    0 -0.25089612209E+01  0.13907660000E+01  0.15049030070E+03  0.15051763924E+03  0.00000000000E+00 0.  1.
         11    1    1    2    0    0 -0.35879459607E+01 -0.49406860947E+00 -0.17925108138E+03  0.17928766727E+03  0.00000000000E+00 0.  1.
        -15    1    1    2    0    0  0.17695918407E+00  0.33250181380E+01 -0.14704925143E+01  0.40505724787E+01  0.17770000000E+01 0.  1.
         15    1    1    2    0    0  0.59199479976E+01 -0.42217155286E+01  0.30231273187E+02  0.31144121016E+02  0.17770000000E+01 0. -1.
</event>
<event>
 6    1  0.8353910E-003  0.1881274E+03  0.7546771E-02  0.1064062E+00
        -11   -1    0    0    0    0  0.00000000000E+00  0.00000000000E+00  0.18250000000E+03  0.18250000000E+03  0.00000000000E+00 0.  1.
         11   -1    0    0    0    0 -0.00000000000E+00 -0.00000000000E+00 -0.18250000000E+03  0.18250000000E+03  0.00000000000E+00 0.  1.
        -11    1    1    2    0    0  0.79485665334E+01 -0.22676083634E+01  0.17209357490E+03  0.17229196232E+03  0.00000000000E+00 0.  1.
         11    1    1    2    0    0 -0.43252555910E+01  0.41798790742E+00 -0.17681920093E+03  0.17687258795E+03  0.00000000000E+00 0.  1.
        -15    1    1    2    0    0  0.31853815535E+01  0.21143362633E+01 -0.31559418262E+01  0.52663812325E+01  0.17770000000E+01 0. -1.
         15    1    1    2    0    0 -0.68086924958E+01 -0.26471580739E+00  0.78815678604E+01  0.10569068497E+02  0.17770000000E+01 0.  1.
</event>
<event>
 6    1  0.8353910E-003  0.1843150E+03  0.7546771E-02  0.1067019E+00
        -11   -1    0    0    0    0  0.00000000000E+00  0.00000000000E+00  0.18250000000E+03  0.18250000000E+03  0.00000000000E+00 0. -1.
         11   -1    0    0    0    0 -0.00000000000E+00 -0.00000000000E+00 -0.18250000000E+03  0.18250000000E+03  0.00000000000E+00 0.  1.
        -11    1    1    2    0    0  0.20691100899E+01 -0.14709404628E+01  0.16800810049E+03  0.16802727967E+03  0.00000000000E+00 0. -1.
         11    1    1    2    0    0  0.12533533938E+01  0.31688484761E+01 -0.18065291065E+03  0.18068504814E+03  0.00000000000E+00 0.  1.
        -15    1    1    2    0    0 -0.19266520045E+01 -0.10961347463E+01  0.13501585691E+02  0.13797247715E+02  0.17770000000E+01 0. -1.
         15    1    1    2    0    0 -0.13958114792E+01 -0.60177326701E+00 -0.85677553949E+00  0.24904244769E+01  0.17770000000E+01 0.  1.
</event>
<event>
 6    1  0.8353910E-003  0.1853634E+03  0.7546771E-02  0.1066198E+00
        -11   -1    0    0    0    0  0.00000000000E+00  0.00000000000E+00  0.18250000000E+03  0.18250000000E+03  0.00000000000E+00 0. -1.
         11   -1    0    0    0    0 -0.00000000000E+00 -0.00000000000E+00 -0.18250000000E+03  0.18250000000E+03  0.00000000000E+00 0.  1.
        -11    1    1    2    0    0 -0.40620178183E+01  0.16473178238E+01  0.17958311176E+03  0.17963659892E+03  0.00000000000E+00 0. -1.
         11    1    1    2    0    0 -0.24172769579E+00  0.38882155719E+01 -0.68979397827E+02  0.69089318836E+02  0.00000000000E+00 0.  1.
        -15    1    1    2    0    0  0.50306889679E+01  0.13335743254E+02 -0.69995389554E+02  0.71453916390E+02  0.17770000000E+01 0.  1.
         15    1    1    2    0    0 -0.72694345383E+00 -0.18871276649E+02 -0.40608324376E+02  0.44820165849E+02  0.17770000000E+01 0. -1.
</event>
<event>
 6    1  0.8353910E-003  0.1844236E+03  0.7546771E-02  0.1066934E+00
        -11   -1    0    0    0    0  0.00000000000E+00  0.00000000000E+00  0.18250000000E+03  0.18250000000E+03  0.00000000000E+00 0. -1.
         11   -1    0    0    0    0 -0.00000000000E+00 -0.00000000000E+00 -0.18250000000E+03  0.18250000000E+03  0.00000000000E+00 0.  1.
        -11    1    1    2    0    0 -0.13790954210E+01 -0.25773832063E+01  0.16100689220E+03  0.16103342555E+03  0.00000000000E+00 0. -1.
         11    1    1    2    0    0 -0.70045990576E+01  0.54460178013E+01 -0.18035832672E+03  0.18057643682E+03  0.00000000000E+00 0.  1.
        -15    1    1    2    0    0  0.31226013419E+01 -0.41541211408E+01  0.34207441714E+01  0.64704390329E+01  0.17770000000E+01 0. -1.
         15    1    1    2    0    0  0.52610931368E+01  0.12854865458E+01  0.15930690347E+02  0.16919698596E+02  0.17770000000E+01 0.  1.
</event>
<event>
 6    1  0.8353910E-003  0.1723307E+03  0.7546771E-02  0.1076851E+00
        -11   -1    0    0    0    0  0.00000000000E+00  0.00000000000E+00  0.18250000000E+03  0.18250000000E+03  0.00000000000E+00 0. -1.
         11   -1    0    0    0    0 -0.00000000000E+00 -0.00000000000E+00 -0.18250000000E+03  0.18250000000E+03  0.00000000000E+00 0.  1.
        -11    1    1    2    0    0 -0.26775132446E+01 -0.57041499484E+01  0.16873930280E+03  0.16885691787E+03  0.00000000000E+00 0. -1.
         11    1    1    2    0    0 -0.22826304708E+01 -0.51974782326E+01 -0.17599731026E+03  0.17608883383E+03  0.00000000000E+00 0.  1.
        -15    1    1    2    0    0 -0.26838023462E+01  0.38887995735E+01 -0.25609319699E+01  0.56605351965E+01  0.17770000000E+01 0.  1.
         15    1    1    2    0    0  0.76439460616E+01  0.70128286075E+01  0.98189394290E+01  0.14393713106E+02  0.17770000000E+01 0. -1.
</event>
<event>
 6    1  0.8353910E-003  0.1844948E+03  0.7546771E-02  0.1066878E+00
        -11   -1    0    0    0    0  0.00000000000E+00  0.00000000000E+00  0.18250000000E+03  0.18250000000E+03  0.00000000000E+00 0. -1.
         11   -1    0    0    0    0 -0.00000000000E+00 -0.00000000000E+00 -0.18250000000E+03  0.18250000000E+03  0.00000000000E+00 0. -1.
        -11    1    1    2    0    0 -0.78687485730E+01  0.47063554751E+01  0.18027219740E+03  0.18050521361E+03  0.00000000000E+00 0. -1.
         11    1    1    2    0    0  0.23456271487E+01  0.19681044309E+01 -0.11526398054E+03  0.11530464262E+03  0.00000000000E+00 0. -1.
        -15    1    1    2    0    0  0.96620167906E+01 -0.71504430428E+01 -0.63126869632E+02  0.64285634497E+02  0.17770000000E+01 0. -1.
         15    1    1    2    0    0 -0.41388953663E+01  0.47598313674E+00 -0.18813472281E+01  0.49045092713E+01  0.17770000000E+01 0.  1.
</event>
<event>
 6    1  0.8353910E-003  0.1845864E+03  0.7546771E-02  0.1066806E+00
        -11   -1    0    0    0    0  0.00000000000E+00  0.00000000000E+00  0.18250000000E+03  0.18250000000E+03  0.00000000000E+00 0. -1.
         11   -1    0    0    0    0 -0.00000000000E+00 -0.00000000000E+00 -0.18250000000E+03  0.18250000000E+03  0.00000000000E+00 0. -1.
        -11    1    1    2    0    0 -0.22782519221E+01  0.12701636661E+01  0.16687371826E+03  0.16689410294E+03  0.00000000000E+00 0. -1.
         11    1    1    2    0    0 -0.41483859019E+01  0.28723498677E+01 -0.18034304975E+03  0.18041362225E+03  0.00000000000E+00 0. -1.
        -15    1    1    2    0    0  0.10990552203E+01  0.49294867777E+00  0.87621238033E+01  0.90212783640E+01  0.17770000000E+01 0. -1.
         15    1    1    2    0    0  0.53275826037E+01 -0.46354622116E+01  0.47072076837E+01  0.86709964532E+01  0.17770000000E+01 0. -1.
</event>
<event>
 6    1  0.8353910E-003  0.1860954E+03  0.7546771E-02  0.1065628E+00
        -11   -1    0    0    0    0  0.00000000000E+00  0.00000000000E+00  0.18250000000E+03  0.18250000000E+03  0.00000000000E+00 0.  1.
         11   -1    0    0    0    0 -0.00000000000E+00 -0.00000000000E+00 -0.18250000000E+03  0.18250000000E+03  0.00000000000E+00 0. -1.
        -11    1    1    2    0    0  0.53313623470E+01 -0.84385165929E+01  0.17862597173E+03  0.17890463874E+03  0.00000000000E+00 0.  1.
         11    1    1    2    0    0 -0.99997124223E+01 -0.98535214849E+01 -0.14204427900E+03  0.14273634201E+03  0.00000000000E+00 0. -1.
        -15    1    1    2    0    0  0.90863437187E+00  0.10589223237E+02 -0.31375121778E+02  0.33173984699E+02  0.17770000000E+01 0.  1.
         15    1    1    2    0    0  0.37597157034E+01  0.77028148406E+01 -0.52065709553E+01  0.10185034548E+02  0.17770000000E+01 0. -1.
</event>
<event>
 6    1  0.8353910E-003  0.1914875E+03  0.7546771E-02  0.1061518E+00
        -11   -1    0    0    0    0  0.00000000000E+00  0.00000000000E+00  0.18250000000E+03  0.18250000000E+03  0.00000000000E+00 0.  1.
         11   -1    0    0    0    0 -0.00000000000E+00 -0.00000000000E+00 -0.18250000000E+03  0.18250000000E+03  0.00000000000E+00 0. -1.
        -11    1    1    2    0    0  0.11308889279E+01  0.43758586366E+01  0.17345367595E+03  0.17351254925E+03  0.00000000000E+00 0.  1.
         11    1    1    2    0    0 -0.24145409341E+01 -0.61605734432E+01 -0.16559366569E+03  0.16572581208E+03  0.00000000000E+00 0. -1.
        -15    1    1    2    0    0 -0.10860362919E+02  0.18506376235E+01 -0.75701448612E+01  0.13484701130E+02  0.17770000000E+01 0. -1.
         15    1    1    2    0    0  0.12144014925E+02 -0.65922816852E-01 -0.28986539666E+00  0.12276937536E+02  0.17770000000E+01 0.  1.
</event>
<event>
 6    1  0.8353910E-003  0.1776866E+03  0.7546771E-02  0.1072352E+00
        -11   -1    0    0    0    0  0.00000000000E+00  0.00000000000E+00  0.18250000000E+03  0.18250000000E+03  0.00000000000E+00 0.  1.
         11   -1    0    0    0    0 -0.00000000000E+00 -0.00000000000E+00 -0.18250000000E+03  0.18250000000E+03  0.00000000000E+00 0.  1.
        -11    1    1    2    0    0  0.28158959850E+01  0.23556897407E+00  0.17617889981E+03  0.17620155930E+03  0.00000000000E+00 0.  1.
         11    1    1    2    0    0  0.21262941269E+00  0.50703978891E+01 -0.17916482957E+03  0.17923668793E+03  0.00000000000E+00 0.  1.
        -15    1    1    2    0    0 -0.42969547009E+00 -0.44185601280E+00  0.32573034171E+01  0.37613334715E+01  0.17770000000E+01 0.  1.
         15    1    1    2    0    0 -0.25988299276E+01 -0.48641108504E+01 -0.27137365752E+00  0.58004192969E+01  0.17770000000E+01 0. -1.
</event>
<event>
 6    1  0.8353910E-003  0.1834070E+03  0.7546771E-02  0.1067735E+00
        -11   -1    0    0    0    0  0.00000000000E+00  0.00000000000E+00  0.18250000000E+03  0.18250000000E+03  0.00000000000E+00 0.  1.
         11   -1    0    0    0    0 -0.00000000000E+00 -0.00000000000E+00 -0.18250000000E+03  0.18250000000E+03  0.00000000000E+00 0.  1.
        -11    1    1    2    0    0 -0.54035773293E+01  0.29927700171E+01  0.18148788519E+03  0.18159297285E+03  0.00000000000E+00 0.  1.
         11    1    1    2    0    0  0.17558042967E+01  0.70948318369E+01 -0.10190618735E+03  0.10216795245E+03  0.00000000000E+00 0.  1.
        -15    1    1    2    0    0  0.14959612363E+01 -0.34549572666E+01 -0.63316451647E+02  0.63453174923E+02  0.17770000000E+01 0.  1.
         15    1    1    2    0    0  0.21518117963E+01 -0.66326445874E+01 -0.16265246189E+02  0.17785899775E+02  0.17770000000E+01 0. -1.
</event>
<event>
 6    1  0.8353910E-003  0.1832570E+03  0.7546771E-02  0.1067854E+00
        -11   -1    0    0    0    0  0.00000000000E+00  0.00000000000E+00  0.18250000000E+03  0.18250000000E+03  0.00000000000E+00 0. -1.
         11   -1    0    0    0    0 -0.00000000000E+00 -0.00000000000E+00 -0.18250000000E+03  0.18250000000E+03  0.00000000000E+00 0.  1.
        -11    1    1    2    0    0  0.27092519511E+01  0.60429791607E+00  0.16779601600E+03  0.16781897452E+03  0.00000000000E+00 0. -1.
         11    1    1    2    0    0 -0.32231701235E+01 -0.28594742706E+01 -0.18169196131E+03  0.18174304450E+03  0.00000000000E+00 0.  1.
        -15    1    1    2    0    0  0.13588887505E+01  0.29905700351E+01  0.46894990793E+01  0.59949327258E+01  0.17770000000E+01 0. -1.
         15    1    1    2    0    0 -0.84497057812E+00 -0.73539368062E+00  0.92064462327E+01  0.94430482568E+01  0.17770000000E+01 0.  1.
</event>
<event>
 6    1  0.8353910E-003  0.1830828E+03  0.7546771E-02  0.1067992E+00
        -11   -1    0    0    0    0  0.00000000000E+00  0.00000000000E+00  0.18250000000E+03  0.18250000000E+03  0.00000000000E+00 0.  1.
         11   -1    0    0    0    0 -0.00000000000E+00 -0.00000000000E+00 -0.18250000000E+03  0.18250000000E+03  0.00000000000E+00 0.  1.
        -11    1    1    2    0    0  0.36079589747E+01  0.12017306568E+00  0.18188140061E+03  0.18191722210E+03  0.00000000000E+00 0.  1.
         11    1    1    2    0    0 -0.29377823091E+01 -0.32914671219E+01 -0.13305610893E+03  0.13312923212E+03  0.00000000000E+00 0.  1.
        -15    1    1    2    0    0  0.51609694935E+00 -0.10081446505E+01 -0.39079633403E+02  0.39136404889E+02  0.17770000000E+01 0. -1.
         15    1    1    2    0    0 -0.11862736149E+01  0.41794387067E+01 -0.97456582734E+01  0.10817140897E+02  0.17770000000E+01 0.  1.
</event>
<event>
 6    1  0.8353910E-003  0.1834756E+03  0.7546771E-02  0.1067681E+00
        -11   -1    0    0    0    0  0.00000000000E+00  0.00000000000E+00  0.18250000000E+03  0.18250000000E+03  0.00000000000E+00 0.  1.
         11   -1    0    0    0    0 -0.00000000000E+00 -0.00000000000E+00 -0.18250000000E+03  0.18250000000E+03  0.00000000000E+00 0.  1.
        -11    1    1    2    0    0  0.13163378361E+01  0.14236143311E+01  0.77975651778E+02  0.77999754443E+02  0.00000000000E+00 0.  1.
         11    1    1    2    0    0 -0.29933101154E+01 -0.60620968502E+00 -0.18149872554E+03  0.18152441920E+03  0.00000000000E+00 0.  1.
        -15    1    1    2    0    0 -0.54009819079E+01 -0.22448785404E+01  0.10453275053E+02  0.12109449763E+02  0.17770000000E+01 0. -1.
         15    1    1    2    0    0  0.70779541873E+01  0.14274738943E+01  0.93069798707E+02  0.93366376590E+02  0.17770000000E+01 0.  1.
</event>
<event>
 6    1  0.8353910E-003  0.1839668E+03  0.7546771E-02  0.1067293E+00
        -11   -1    0    0    0    0  0.00000000000E+00  0.00000000000E+00  0.18250000000E+03  0.18250000000E+03  0.00000000000E+00 0. -1.
         11   -1    0    0    0    0 -0.00000000000E+00 -0.00000000000E+00 -0.18250000000E+03  0.18250000000E+03  0.00000000000E+00 0. -1.
        -11    1    1    2    0    0 -0.34060127954E+01  0.13255206053E+01  0.71768621028E+02  0.71861623223E+02  0.00000000000E+00 0. -1.
         11    1    1    2    0    0 -0.28563881079E+00  0.58863081945E+01 -0.18093728834E+03  0.18103323597E+03  0.00000000000E+00 0. -1.
        -15    1    1    2    0    0 -0.13172326780E+01  0.22638808403E+01  0.89703221029E+00  0.32897802622E+01  0.17770000000E+01 0.  1.
         15    1    1    2    0    0  0.50088842841E+01 -0.94757096401E+01  0.10827163510E+03  0.10881536055E+03  0.17770000000E+01 0. -1.
</event>
<event>
 6    1  0.8353910E-003  0.1848440E+03  0.7546771E-02  0.1066604E+00
        -11   -1    0    0    0    0  0.00000000000E+00  0.00000000000E+00  0.18250000000E+03  0.18250000000E+03  0.00000000000E+00 0. -1.
         11   -1    0    0    0    0 -0.00000000000E+00 -0.00000000000E+00 -0.18250000000E+03  0.18250000000E+03  0.00000000000E+00 0.  1.
        -11    1    1    2    0    0 -0.17855420153E+01  0.20142712811E+01  0.18013586604E+03  0.18015597598E+03  0.00000000000E+00 0. -1.
         11    1    1    2    0    0 -0.83737183582E+01  0.89690688478E+00 -0.10650139265E+03  0.10683384407E+03  0.00000000000E+00 0.  1.
        -15    1    1    2    0    0  0.87175889727E+01 -0.73976897806E+01 -0.71680013438E+02  0.72607879924E+02  0.17770000000E+01 0.  1.
         15    1    1    2    0    0  0.14416714007E+01  0.44865116148E+01 -0.19544599486E+01  0.54023000276E+01  0.17770000000E+01 0. -1.
</event>
<event>
 6    1  0.8353910E-003  0.1828732E+03  0.7546771E-02  0.1068158E+00
        -11   -1    0    0    0    0  0.00000000000E+00  0.00000000000E+00  0.18250000000E+03  0.18250000000E+03  0.00000000000E+00 0. -1.
         11   -1    0    0    0    0 -0.00000000000E+00 -0.00000000000E+00 -0.18250000000E+03  0.18250000000E+03  0.00000000000E+00 0.  1.
        -11    1    1    2    0    0  0.99852420076E+00 -0.50424948863E-01  0.57200570771E+02  0.57209307719E+02  0.00000000000E+00 0. -1.
         11    1    1    2    0    0 -0.14177418794E+02  0.42108060305E+01 -0.18152533456E+03  0.18212681620E+03  0.00000000000E+00 0.  1.
        -15    1    1    2    0    0  0.18968448474E+01 -0.56731307989E+01  0.59193328186E+02  0.59521342930E+02  0.17770000000E+01 0. -1.
         15    1    1    2    0    0  0.11282049746E+02  0.15127497173E+01  0.65131435608E+02  0.66142533150E+02  0.17770000000E+01 0.  1.
</event>
<event>
 6    1  0.8353910E-003  0.1832288E+03  0.7546771E-02  0.1067876E+00
        -11   -1    0    0    0    0  0.00000000000E+00  0.00000000000E+00  0.18250000000E+03  0.18250000000E+03  0.00000000000E+00 0.  1.
         11   -1    0    0    0    0 -0.00000000000E+00 -0.00000000000E+00 -0.18250000000E+03  0.18250000000E+03  0.00000000000E+00 0.  1.
        -11    1    1    2    0    0  0.13342450103E+01 -0.48660572351E+01  0.18170113425E+03  0.18177117734E+03  0.00000000000E+00 0.  1.
         11    1    1    2    0    0 -0.34701349009E+01 -0.36787620634E+00 -0.11709553430E+03  0.11714751948E+03  0.00000000000E+00 0.  1.
        -15    1    1    2    0    0  0.97758247493E+00  0.66230842331E+01 -0.16319060608E+02  0.17728236810E+02  0.17770000000E+01 0.  1.
         15    1    1    2    0    0  0.11583074157E+01 -0.13891507916E+01 -0.48286539348E+02  0.48353066368E+02  0.17770000000E+01 0. -1.
</event>
<event>
 6    1  0.8353910E-003  0.1875103E+03  0.7546771E-02  0.1064535E+00
        -11   -1    0    0    0    0  0.00000000000E+00  0.00000000000E+00  0.18250000000E+03  0.18250000000E+03  0.00000000000E+00 0.  1.
         11   -1    0    0    0    0 -0.00000000000E+00 -0.00000000000E+00 -0.18250000000E+03  0.18250000000E+03  0.00000000000E+00 0. -1.
        -11    1    1    2    0    0 -0.23681845348E+01  0.24923118501E+01  0.17745638188E+03  0.17748968247E+03  0.00000000000E+00 0.  1.
         11    1    1    2    0    0 -0.32737347981E+01 -0.31365063158E+01 -0.17233563094E+03  0.17239525720E+03  0.00000000000E+00 0. -1.
        -15    1    1    2    0    0 -0.12183967568E+01  0.51892395343E+01 -0.87631912326E+00  0.56866828475E+01  0.17770000000E+01 0. -1.
         15    1    1    2    0    0  0.68603160898E+01 -0.45450450687E+01 -0.42444318101E+01  0.94283774807E+01  0.17770000000E+01 0.  1.
</event>
<event>
 6    1  0.8353910E-003  0.1833387E+03  0.7546771E-02  0.1067789E+00
        -11   -1    0    0    0    0  0.00000000000E+00  0.00000000000E+00  0.18250000000E+03  0.18250000000E+03  0.00000000000E+00 0.  1.
         11   -1    0    0    0    0 -0.00000000000E+00 -0.00000000000E+00 -0.18250000000E+03  0.18250000000E+03  0.00000000000E+00 0.  1.
        -11    1    1    2    0    0 -0.20500980225E+01  0.15851096354E+01  0.18164282745E+03  0.18166131189E+03  0.00000000000E+00 0.  1.
         11    1    1    2    0    0 -0.74527623502E-01  0.26064530159E+01 -0.92532706871E+02  0.92569438761E+02  0.00000000000E+00 0.  1.
        -15    1    1    2    0    0  0.83997230497E+00 -0.95126623106E+01 -0.73365364260E+02  0.74005612623E+02  0.17770000000E+01 0. -1.
         15    1    1    2    0    0  0.12846533411E+01  0.53210996592E+01 -0.15744756317E+02  0.16763636726E+02  0.17770000000E+01 0.  1.
</event>
<event>
 6    1  0.8353910E-003  0.2015499E+03  0.7546771E-02  0.1054227E+00
        -11   -1    0    0    0    0  0.00000000000E+00  0.00000000000E+00  0.18250000000E+03  0.18250000000E+03  0.00000000000E+00 0. -1.
         11   -1    0    0    0    0 -0.00000000000E+00 -0.00000000000E+00 -0.18250000000E+03  0.18250000000E+03  0.00000000000E+00 0. -1.
        -11    1    1    2    0    0 -0.28604756827E+01  0.50971582546E+01  0.15133303041E+03  0.15144586305E+03  0.00000000000E+00 0. -1.
         11    1    1    2    0    0 -0.26529905164E+01  0.28148816118E+01 -0.16340428929E+03  0.16345006478E+03  0.00000000000E+00 0. -1.
        -15    1    1    2    0    0  0.56658924084E+00  0.20070123388E+02  0.49766470728E+01  0.20761879039E+02  0.17770000000E+01 0.  1.
         15    1    1    2    0    0  0.49468769583E+01 -0.27982163254E+02  0.70946118093E+01  0.29342193131E+02  0.17770000000E+01 0. -1.
</event>
<event>
 6    1  0.8353910E-003  0.1833735E+03  0.7546771E-02  0.1067762E+00
        -11   -1    0    0    0    0  0.00000000000E+00  0.00000000000E+00  0.18250000000E+03  0.18250000000E+03  0.00000000000E+00 0.  1.
         11   -1    0    0    0    0 -0.00000000000E+00 -0.00000000000E+00 -0.18250000000E+03  0.18250000000E+03  0.00000000000E+00 0. -1.
        -11    1    1    2    0    0 -0.98458400744E+00  0.16622495159E+01  0.81237007820E+02  0.81259977348E+02  0.00000000000E+00 0.  1.
         11    1    1    2    0    0 -0.20153468913E+00  0.30180368925E+01 -0.18160127855E+03  0.18162646705E+03  0.00000000000E+00 0. -1.
        -15    1    1    2    0    0 -0.75208511421E+00 -0.56065688237E+01  0.98676700608E+02  0.98854682326E+02  0.17770000000E+01 0. -1.
         15    1    1    2    0    0  0.19382038108E+01  0.92628241530E+00  0.16875701193E+01  0.32588732766E+01  0.17770000000E+01 0.  1.
</event>
<event>
 6    1  0.8353910E-003  0.1832665E+03  0.7546771E-02  0.1067846E+00
        -11   -1    0    0    0    0  0.00000000000E+00  0.00000000000E+00  0.18250000000E+03  0.18250000000E+03  0.00000000000E+00 0.  1.
         11   -1    0    0    0    0 -0.00000000000E+00 -0.00000000000E+00 -0.18250000000E+03  0.18250000000E+03  0.00000000000E+00 0.  1.
        -11    1    1    2    0    0 -0.10147425786E+01  0.18361620030E+00  0.40905014689E+02  0.40918011244E+02  0.00000000000E+00 0.  1.
         11    1    1    2    0    0  0.43133014046E+01  0.49312658177E+01 -0.18161533075E+03  0.18173345954E+03  0.00000000000E+00 0.  1.
        -15    1    1    2    0    0 -0.79247527227E+01 -0.40583577179E+01  0.26243328736E+02  0.27769443732E+02  0.17770000000E+01 0. -1.
         15    1    1    2    0    0  0.46261938967E+01 -0.10565243001E+01  0.11446698733E+03  0.11457908548E+03  0.17770000000E+01 0.  1.
</event>
<event>
 6    1  0.8353910E-003  0.1832544E+03  0.7546771E-02  0.1067856E+00
        -11   -1    0    0    0    0  0.00000000000E+00  0.00000000000E+00  0.18250000000E+03  0.18250000000E+03  0.00000000000E+00 0. -1.
         11   -1    0    0    0    0 -0.00000000000E+00 -0.00000000000E+00 -0.18250000000E+03  0.18250000000E+03  0.00000000000E+00 0. -1.
        -11    1    1    2    0    0  0.14693537713E+01  0.10294998356E+02  0.18144788165E+03  0.18174564574E+03  0.00000000000E+00 0. -1.
         11    1    1    2    0    0 -0.92074379629E+01 -0.29461543859E+01 -0.92847168937E+02  0.93349094902E+02  0.00000000000E+00 0. -1.
        -15    1    1    2    0    0 -0.89663438477E+00 -0.59750778616E+01 -0.33493580694E+02  0.34080539687E+02  0.17770000000E+01 0. -1.
         15    1    1    2    0    0  0.86347185763E+01 -0.13737661088E+01 -0.55107132016E+02  0.55824719670E+02  0.17770000000E+01 0.  1.
</event>
<event>
 6    1  0.8353910E-003  0.1833892E+03  0.7546771E-02  0.1067749E+00
        -11   -1    0    0    0    0  0.00000000000E+00  0.00000000000E+00  0.18250000000E+03  0.18250000000E+03  0.00000000000E+00 0.  1.
         11   -1    0    0    0    0 -0.00000000000E+00 -0.00000000000E+00 -0.18250000000E+03  0.18250000000E+03  0.00000000000E+00 0. -1.
        -11    1    1    2    0    0  0.23773869873E+01 -0.22058497878E+01  0.18158185370E+03  0.18161081282E+03  0.00000000000E+00 0.  1.
         11    1    1    2    0    0  0.50803838204E+01 -0.62971946022E+01 -0.75119022796E+02  0.75553507830E+02  0.00000000000E+00 0. -1.
        -15    1    1    2    0    0  0.32630880437E+00 -0.15404122034E+01 -0.46845558826E+01  0.52518701440E+01  0.17770000000E+01 0.  1.
         15    1    1    2    0    0 -0.77840796121E+01  0.10043456593E+02 -0.10177827502E+03  0.10258380920E+03  0.17770000000E+01 0. -1.
</event>
<event>
 6    1  0.8353910E-003  0.1903351E+03  0.7546771E-02  0.1062384E+00
        -11   -1    0    0    0    0  0.00000000000E+00  0.00000000000E+00  0.18250000000E+03  0.18250000000E+03  0.00000000000E+00 0.  1.
         11   -1    0    0    0    0 -0.00000000000E+00 -0.00000000000E+00 -0.18250000000E+03  0.18250000000E+03  0.00000000000E+00 0.  1.
        -11    1    1    2    0    0 -0.13441318026E+00 -0.10309627601E+02  0.78302336620E+02  0.78978240094E+02  0.00000000000E+00 0.  1.
         11    1    1    2    0    0 -0.43268760021E+01  0.92177530410E+01 -0.17436784598E+03  0.17466492075E+03  0.00000000000E+00 0.  1.
        -15    1    1    2    0    0 -0.65926177592E+01 -0.24674378606E+02  0.62784917199E+02  0.67804064223E+02  0.17770000000E+01 0.  1.
         15    1    1    2    0    0  0.11053906942E+02  0.25766253166E+02  0.33280592163E+02  0.43552774936E+02  0.17770000000E+01 0. -1.
</event>
<event>
 6    1  0.8353910E-003  0.1744096E+03  0.7546771E-02  0.1075084E+00
        -11   -1    0    0    0    0  0.00000000000E+00  0.00000000000E+00  0.18250000000E+03  0.18250000000E+03  0.00000000000E+00 0. -1.
         11   -1    0    0    0    0 -0.00000000000E+00 -0.00000000000E+00 -0.18250000000E+03  0.18250000000E+03  0.00000000000E+00 0. -1.
        -11    1    1    2    0    0 -0.37681554368E+01  0.86369292502E+01  0.17493229670E+03  0.17518591259E+03  0.00000000000E+00 0. -1.
         11    1    1    2    0    0 -0.30649260126E+00  0.24331272153E+01 -0.17381707841E+03  0.17383437748E+03  0.00000000000E+00 0. -1.
        -15    1    1    2    0    0 -0.47049141916E+00 -0.82723978282E+00 -0.38169056504E+01  0.43165015438E+01  0.17770000000E+01 0.  1.
         15    1    1    2    0    0  0.45451394573E+01 -0.10242816683E+02  0.27016873656E+01  0.11663208388E+02  0.17770000000E+01 0. -1.
</event>
<event>
 6    1  0.8353910E-003  0.1826266E+03  0.7546771E-02  0.1068354E+00
        -11   -1    0    0    0    0  0.00000000000E+00  0.00000000000E+00  0.18250000000E+03  0.18250000000E+03  0.00000000000E+00 0. -1.
         11   -1    0    0    0    0 -0.00000000000E+00 -0.00000000000E+00 -0.18250000000E+03  0.18250000000E+03  0.00000000000E+00 0. -1.
        -11    1    1    2    0    0 -0.12508952567E+01 -0.75556504804E+01  0.18221251052E+03  0.18237338508E+03  0.00000000000E+00 0. -1.
         11    1    1    2    0    0  0.60763585609E+00 -0.31935071626E+00 -0.15197573121E+02  0.15213067902E+02  0.00000000000E+00 0. -1.
        -15    1    1    2    0    0  0.38149970946E+00  0.43506447197E+01 -0.14278598465E+03  0.14286381205E+03  0.17770000000E+01 0. -1.
         15    1    1    2    0    0  0.26175969120E+00  0.35243564770E+01 -0.24228952749E+02  0.24549734969E+02  0.17770000000E+01 0.  1.
</event>
<event>
 6    1  0.8353910E-003  0.1779891E+03  0.7546771E-02  0.1072103E+00
        -11   -1    0    0    0    0  0.00000000000E+00  0.00000000000E+00  0.18250000000E+03  0.18250000000E+03  0.00000000000E+00 0. -1.
         11   -1    0    0    0    0 -0.00000000000E+00 -0.00000000000E+00 -0.18250000000E+03  0.18250000000E+03  0.00000000000E+00 0. -1.
        -11    1    1    2    0    0 -0.25894749148E+01 -0.54706910308E+00  0.17795186353E+03  0.17797154379E+03  0.00000000000E+00 0. -1.
         11    1    1    2    0    0 -0.22585260519E+01  0.11433716346E+01 -0.17802225773E+03  0.17804025524E+03  0.00000000000E+00 0. -1.
        -15    1    1    2    0    0 -0.40148276311E+00  0.79731482674E+00 -0.20843622406E+01  0.28808322221E+01  0.17770000000E+01 0.  1.
         15    1    1    2    0    0  0.52494837298E+01 -0.13936173583E+01  0.21547564392E+01  0.61073687528E+01  0.17770000000E+01 0. -1.
</event>
<event>
 6    1  0.8353910E-003  0.1869428E+03  0.7546771E-02  0.1064972E+00
        -11   -1    0    0    0    0  0.00000000000E+00  0.00000000000E+00  0.18250000000E+03  0.18250000000E+03  0.00000000000E+00 0.  1.
         11   -1    0    0    0    0 -0.00000000000E+00 -0.00000000000E+00 -0.18250000000E+03  0.18250000000E+03  0.00000000000E+00 0. -1.
        -11    1    1    2    0    0 -0.26818501724E+01 -0.44603612034E+01  0.16549662262E+03  0.16557843834E+03  0.00000000000E+00 0.  1.
         11    1    1    2    0    0 -0.17834755563E+01  0.52555819356E+01 -0.17797072458E+03  0.17805724005E+03  0.00000000000E+00 0. -1.
        -15    1    1    2    0    0 -0.60702684150E+01 -0.18711057352E+01  0.51016666664E+01  0.83387005629E+01  0.17770000000E+01 0.  1.
         15    1    1    2    0    0  0.10535594144E+02  0.10758850031E+01  0.73724352926E+01  0.13025621046E+02  0.17770000000E+01 0. -1.
</event>
<event>
 6    1  0.8353910E-003  0.1841562E+03  0.7546771E-02  0.1067144E+00
        -11   -1    0    0    0    0  0.00000000000E+00  0.00000000000E+00  0.18250000000E+03  0.18250000000E+03  0.00000000000E+00 0. -1.
         11   -1    0    0    0    0 -0.00000000000E+00 -0.00000000000E+00 -0.18250000000E+03  0.18250000000E+03  0.00000000000E+00 0.  1.
        -11    1    1    2    0    0 -0.14524105401E+01 -0.34082701050E+01  0.18080580301E+03  0.18084375633E+03  0.00000000000E+00 0. -1.
         11    1    1    2    0    0  0.14309105294E+01 -0.28412835079E+01 -0.17246221826E+03  0.17249155668E+03  0.00000000000E+00 0.  1.
        -15    1    1    2    0    0  0.11015836507E+01  0.55778563947E+01 -0.63498940109E+01  0.87065981560E+01  0.17770000000E+01 0. -1.
         15    1    1    2    0    0 -0.10800836401E+01  0.67169721820E+00 -0.19936907372E+01  0.29580888388E+01  0.17770000000E+01 0. -1.
</event>
<event>
 6    1  0.8353910E-003  0.1869190E+03  0.7546771E-02  0.1064991E+00
        -11   -1    0    0    0    0  0.00000000000E+00  0.00000000000E+00  0.18250000000E+03  0.18250000000E+03  0.00000000000E+00 0. -1.
         11   -1    0    0    0    0 -0.00000000000E+00 -0.00000000000E+00 -0.18250000000E+03  0.18250000000E+03  0.00000000000E+00 0.  1.
        -11    1    1    2    0    0 -0.72582786650E+01  0.50188777726E+01  0.57089841006E+02  0.57767825728E+02  0.00000000000E+00 0. -1.
         11    1    1    2    0    0  0.18328669574E+02 -0.32740443800E+01 -0.17710503323E+03  0.17808102731E+03  0.00000000000E+00 0.  1.
        -15    1    1    2    0    0  0.95153385212E+01  0.13880740820E+02  0.77816522700E+02  0.79635328637E+02  0.17770000000E+01 0. -1.
         15    1    1    2    0    0 -0.20585729431E+02 -0.15625574213E+02  0.42198669521E+02  0.49515818321E+02  0.17770000000E+01 0.  1.
</event>
<event>
 6    1  0.8353910E-003  0.1829402E+03  0.7546771E-02  0.1068105E+00
        -11   -1    0    0    0    0  0.00000000000E+00  0.00000000000E+00  0.18250000000E+03  0.18250000000E+03  0.00000000000E+00 0. -1.
         11   -1    0    0    0    0 -0.00000000000E+00 -0.00000000000E+00 -0.18250000000E+03  0.18250000000E+03  0.00000000000E+00 0.  1.
        -11    1    1    2    0    0  0.35101169714E+00 -0.53362895875E+00  0.29832475021E+02  0.29839311904E+02  0.00000000000E+00 0. -1.
         11    1    1    2    0    0  0.22278183671E+01  0.14585968224E+01 -0.18204034885E+03  0.18205982338E+03  0.00000000000E+00 0.  1.
        -15    1    1    2    0    0  0.11399420959E+01  0.34251704393E+01  0.13102244255E+03  0.13108420744E+03  0.17770000000E+01 0.  1.
         15    1    1    2    0    0 -0.37187721601E+01 -0.43501383030E+01  0.21185431286E+02  0.22016657271E+02  0.17770000000E+01 0.  1.
</event>
<event>
 6    1  0.8353910E-003  0.1841761E+03  0.7546771E-02  0.1067128E+00
        -11   -1    0    0    0    0  0.00000000000E+00  0.00000000000E+00  0.18250000000E+03  0.18250000000E+03  0.00000000000E+00 0.  1.
         11   -1    0    0    0    0 -0.00000000000E+00 -0.00000000000E+00 -0.18250000000E+03  0.18250000000E+03  0.00000000000E+00 0.  1.
        -11    1    1    2    0    0  0.17200115607E+01  0.28394797211E+01  0.15884438822E+03  0.15887907588E+03  0.00000000000E+00 0.  1.
         11    1    1    2    0    0  0.23868668622E+01  0.63475001935E+01 -0.18069666382E+03  0.18082387068E+03  0.00000000000E+00 0.  1.
        -15    1    1    2    0    0 -0.36083280378E+01 -0.88007966507E+01  0.21196456969E+02  0.23300677457E+02  0.17770000000E+01 0.  1.
         15    1    1    2    0    0 -0.49855038505E+00 -0.38618326396E+00  0.65581862864E+00  0.19963759850E+01  0.17770000000E+01 0. -1.
</event>
<event>
 6    1  0.8353910E-003  0.1826342E+03  0.7546771E-02  0.1068348E+00
        -11   -1    0    0    0    0  0.00000000000E+00  0.00000000000E+00  0.18250000000E+03  0.18250000000E+03  0.00000000000E+00 0.  1.
         11   -1    0    0    0    0 -0.00000000000E+00 -0.00000000000E+00 -0.18250000000E+03  0.18250000000E+03  0.00000000000E+00 0. -1.
        -11    1    1    2    0    0  0.25900869570E+01 -0.73641505033E+00  0.18234587246E+03  0.18236575353E+03  0.00000000000E+00 0.  1.
         11    1    1    2    0    0  0.81672343175E+00 -0.36088188212E+00 -0.60409814063E+02  0.60416412572E+02  0.00000000000E+00 0. -1.
        -15    1    1    2    0    0 -0.32173073398E+01  0.32407509212E+01 -0.53213582454E+02  0.53438718357E+02  0.17770000000E+01 0.  1.
         15    1    1    2    0    0 -0.18950304890E+00 -0.21434539888E+01 -0.68722475941E+02  0.68779115543E+02  0.17770000000E+01 0. -1.
</event>
<event>
 6    1  0.8353910E-003  0.1826403E+03  0.7546771E-02  0.1068343E+00
        -11   -1    0    0    0    0  0.00000000000E+00  0.00000000000E+00  0.18250000000E+03  0.18250000000E+03  0.00000000000E+00 0. -1.
         11   -1    0    0    0    0 -0.00000000000E+00 -0.00000000000E+00 -0.18250000000E+03  0.18250000000E+03  0.00000000000E+00 0. -1.
        -11    1    1    2    0    0 -0.14529342613E+00 -0.67084332901E+00  0.31946539817E+02  0.31953912862E+02  0.00000000000E+00 0. -1.
         11    1    1    2    0    0  0.11304218012E+01 -0.48885543676E+01 -0.18229065026E+03  0.18235969125E+03  0.00000000000E+00 0. -1.
        -15    1    1    2    0    0  0.16153245652E+00  0.42414575524E+01  0.33371932028E+02  0.33687677735E+02  0.17770000000E+01 0.  1.
         15    1    1    2    0    0 -0.11466608316E+01  0.13179401442E+01  0.11697217842E+03  0.11699871816E+03  0.17770000000E+01 0. -1.
</event>
<event>
 6    1  0.8353910E-003  0.1837413E+03  0.7546771E-02  0.1067471E+00
        -11   -1    0    0    0    0  0.00000000000E+00  0.00000000000E+00  0.18250000000E+03  0.18250000000E+03  0.00000000000E+00 0.  1.
         11   -1    0    0    0    0 -0.00000000000E+00 -0.00000000000E+00 -0.18250000000E+03  0.18250000000E+03  0.00000000000E+00 0. -1.
        -11    1    1    2    0    0  0.20717216884E+01  0.17803743578E+01  0.16908732341E+03  0.16910938679E+03  0.00000000000E+00 0.  1.
         11    1    1    2    0    0 -0.29224805432E+01  0.49991688727E+01 -0.18116615372E+03  0.18125867658E+03  0.00000000000E+00 0. -1.
        -15    1    1    2    0    0  0.78416963831E+00 -0.96794698440E+00  0.35076458513E+01  0.41247002078E+01  0.17770000000E+01 0.  1.
         15    1    1    2    0    0  0.66589216529E-01 -0.58115962461E+01  0.85711844628E+01  0.10507236418E+02  0.17770000000E+01 0. -1.
</event>
<event>
 6    1  0.8353910E-003  0.1843585E+03  0.7546771E-02  0.1066985E+00
        -11   -1    0    0    0    0  0.00000000000E+00  0.00000000000E+00  0.18250000000E+03  0.18250000000E+03  0.00000000000E+00 0. -1.
         11   -1    0    0    0    0 -0.00000000000E+00 -0.00000000000E+00 -0.18250000000E+03  0.18250000000E+03  0.00000000000E+00 0.  1.
        -11    1    1    2    0    0  0.16824215075E+02 -0.46361699073E+01  0.17979651819E+03  0.18064145769E+03  0.00000000000E+00 0. -1.
         11    1    1    2    0    0 -0.12905490637E+01  0.80677997854E+00 -0.95771784054E+02  0.95783876679E+02  0.00000000000E+00 0.  1.
        -15    1    1    2    0    0 -0.15426389883E+02 -0.69736861093E+01 -0.53740169903E+02  0.56371707381E+02  0.17770000000E+01 0.  1.
         15    1    1    2    0    0 -0.10727612888E+00  0.10803076038E+02 -0.30284564233E+02  0.32202958247E+02  0.17770000000E+01 0. -1.
</event>
<event>
 6    1  0.8353910E-003  0.1828126E+03  0.7546771E-02  0.1068206E+00
        -11   -1    0    0    0    0  0.00000000000E+00  0.00000000000E+00  0.18250000000E+03  0.18250000000E+03  0.00000000000E+00 0.  1.
         11   -1    0    0    0    0 -0.00000000000E+00 -0.00000000000E+00 -0.18250000000E+03  0.18250000000E+03  0.00000000000E+00 0.  1.
        -11    1    1    2    0    0  0.46228313831E+00  0.45437200166E+01  0.18213017531E+03  0.18218743057E+03  0.00000000000E+00 0.  1.
         11    1    1    2    0    0  0.32462612163E+01 -0.50726553055E+00 -0.76303938894E+02  0.76374646453E+02  0.00000000000E+00 0.  1.
        -15    1    1    2    0    0  0.34436493933E+00 -0.92850318367E+00 -0.41881105899E+01  0.46560395925E+01  0.17770000000E+01 0. -1.
         15    1    1    2    0    0 -0.40529092940E+01 -0.31079513024E+01 -0.10163812583E+03  0.10178188339E+03  0.17770000000E+01 0.  1.
</event>
<event>
 6    1  0.8353910E-003  0.1859884E+03  0.7546771E-02  0.1065711E+00
        -11   -1    0    0    0    0  0.00000000000E+00  0.00000000000E+00  0.18250000000E+03  0.18250000000E+03  0.00000000000E+00 0.  1.
         11   -1    0    0    0    0 -0.00000000000E+00 -0.00000000000E+00 -0.18250000000E+03  0.18250000000E+03  0.00000000000E+00 0. -1.
        -11    1    1    2    0    0 -0.28309212082E+01 -0.16995511838E+01  0.17898112290E+03  0.17901157768E+03  0.00000000000E+00 0.  1.
         11    1    1    2    0    0 -0.31824650469E+01  0.28177879363E+00 -0.17272365055E+03  0.17275319662E+03  0.00000000000E+00 0. -1.
        -15    1    1    2    0    0  0.41071007114E+01 -0.54952988157E-01 -0.84246960462E+01  0.95396293720E+01  0.17770000000E+01 0. -1.
         15    1    1    2    0    0  0.19062855438E+01  0.14727253784E+01  0.21672236977E+01  0.36955963214E+01  0.17770000000E+01 0. -1.
</event>
<event>
 6    1  0.8353910E-003  0.1838434E+03  0.7546771E-02  0.1067390E+00
        -11   -1    0    0    0    0  0.00000000000E+00  0.00000000000E+00  0.18250000000E+03  0.18250000000E+03  0.00000000000E+00 0.  1.
         11   -1    0    0    0    0 -0.00000000000E+00 -0.00000000000E+00 -0.18250000000E+03  0.18250000000E+03  0.00000000000E+00 0.  1.
        -11    1    1    2    0    0 -0.40723656221E+01 -0.14505938767E+01  0.56723592851E+02  0.56888086365E+02  0.00000000000E+00 0.  1.
         11    1    1    2    0    0  0.14448984062E+02 -0.14992549871E+02 -0.17995597217E+03  0.18115656657E+03  0.00000000000E+00 0.  1.
        -15    1    1    2    0    0 -0.17367787571E+02  0.86216190718E+01  0.89111962256E+02  0.91214428172E+02  0.17770000000E+01 0.  1.
         15    1    1    2    0    0  0.69911691307E+01  0.78215246754E+01  0.34120417060E+02  0.35740918894E+02  0.17770000000E+01 0. -1.
</event>
<event>
 6    1  0.8353910E-003  0.1825684E+03  0.7546771E-02  0.1068400E+00
        -11   -1    0    0    0    0  0.00000000000E+00  0.00000000000E+00  0.18250000000E+03  0.18250000000E+03  0.00000000000E+00 0.  1.
         11   -1    0    0    0    0 -0.00000000000E+00 -0.00000000000E+00 -0.18250000000E+03  0.18250000000E+03  0.00000000000E+00 0.  1.
        -11    1    1    2    0    0  0.54049146897E-01 -0.13108406595E+01  0.24555796346E+02  0.24590818586E+02  0.00000000000E+00 0.  1.
         11    1    1    2    0    0  0.21092965191E+01  0.14850639122E+01 -0.18241334250E+03  0.18243158188E+03  0.00000000000E+00 0.  1.
        -15    1    1    2    0    0 -0.33196426017E+01 -0.47162614528E+00  0.11961377917E+03  0.11967395855E+03  0.17770000000E+01 0.  1.
         15    1    1    2    0    0  0.11562969357E+01  0.29740289255E+00  0.38243766977E+02  0.38303640985E+02  0.17770000000E+01 0.  1.
</event>
<event>
 6    1  0.8606825E-003  0.1828150E+03  0.7546771E-02  0.1068204E+00
        -11   -1    0    0    0    0  0.00000000000E+00  0.00000000000E+00  0.18250000000E+03  0.18250000000E+03  0.00000000000E+00 0.  1.
         11   -1    0    0    0    0 -0.00000000000E+00 -0.00000000000E+00 -0.18250000000E+03  0.18250000000E+03  0.00000000000E+00 0. -1.
        -11    1    1    2    0    0 -0.67359081490E+00 -0.15670811599E+01  0.11741252223E+03  0.11742491152E+03  0.00000000000E+00 0.  1.
         11    1    1    2    0    0  0.20840545046E+01  0.13168647155E+01 -0.18216830929E+03  0.18218498930E+03  0.00000000000E+00 0. -1.
        -15    1    1    2    0    0  0.34141160515E+00  0.24838358270E+01  0.54800467864E+02  0.54886564926E+02  0.17770000000E+01 0.  1.
         15    1    1    2    0    0 -0.17518752949E+01 -0.22336193827E+01  0.99553191965E+01  0.10503534258E+02  0.17770000000E+01 0.  1.
</event>
<event>
 6    1  0.8353910E-003  0.2172018E+03  0.7546771E-02  0.1043763E+00
        -11   -1    0    0    0    0  0.00000000000E+00  0.00000000000E+00  0.18250000000E+03  0.18250000000E+03  0.00000000000E+00 0.  1.
         11   -1    0    0    0    0 -0.00000000000E+00 -0.00000000000E+00 -0.18250000000E+03  0.18250000000E+03  0.00000000000E+00 0. -1.
        -11    1    1    2    0    0  0.30568057406E+01  0.64716026421E+01  0.10440602371E+03  0.10465105584E+03  0.00000000000E+00 0.  1.
         11    1    1    2    0    0  0.63152295291E+01 -0.17398224980E+02 -0.14663467060E+03  0.14779819680E+03  0.00000000000E+00 0. -1.
        -15    1    1    2    0    0 -0.56454158690E+02  0.87693629488E+01  0.22613516443E+02  0.61469525904E+02  0.17770000000E+01 0. -1.
         15    1    1    2    0    0  0.47082123421E+02  0.21572593888E+01  0.19615130449E+02  0.51081221456E+02  0.17770000000E+01 0.  1.
</event>
<event>
 6    1  0.8353910E-003  0.1833891E+03  0.7546771E-02  0.1067749E+00
        -11   -1    0    0    0    0  0.00000000000E+00  0.00000000000E+00  0.18250000000E+03  0.18250000000E+03  0.00000000000E+00 0.  1.
         11   -1    0    0    0    0 -0.00000000000E+00 -0.00000000000E+00 -0.18250000000E+03  0.18250000000E+03  0.00000000000E+00 0. -1.
        -11    1    1    2    0    0  0.35588921075E+01  0.22735171438E+00  0.18157583859E+03  0.18161085475E+03  0.00000000000E+00 0.  1.
         11    1    1    2    0    0  0.20526886030E+01 -0.28703271947E+01 -0.14509102919E+03  0.14513393490E+03  0.00000000000E+00 0. -1.
        -15    1    1    2    0    0 -0.45706569626E+00  0.22940646142E+01 -0.28064193753E+02  0.28217518344E+02  0.17770000000E+01 0.  1.
         15    1    1    2    0    0 -0.51545150142E+01  0.34891086614E+00 -0.84206156567E+01  0.10037692009E+02  0.17770000000E+01 0. -1.
</event>
<event>
 6    1  0.8353910E-003  0.1858721E+03  0.7546771E-02  0.1065802E+00
        -11   -1    0    0    0    0  0.00000000000E+00  0.00000000000E+00  0.18250000000E+03  0.18250000000E+03  0.00000000000E+00 0.  1.
         11   -1    0    0    0    0 -0.00000000000E+00 -0.00000000000E+00 -0.18250000000E+03  0.18250000000E+03  0.00000000000E+00 0. -1.
        -11    1    1    2    0    0 -0.19144077820E+01 -0.37123261631E+01  0.16489180499E+03  0.16494469884E+03  0.00000000000E+00 0.  1.
         11    1    1    2    0    0 -0.27231502724E+01 -0.13871731065E+01 -0.17910182760E+03  0.17912789969E+03  0.00000000000E+00 0. -1.
        -15    1    1    2    0    0  0.34897316969E+01  0.28321214131E+01 -0.13846995540E+01  0.50273512777E+01  0.17770000000E+01 0.  1.
         15    1    1    2    0    0  0.11478263574E+01  0.22673778565E+01  0.15594722167E+02  0.15900050194E+02  0.17770000000E+01 0.  1.
</event>
<event>
 6    1  0.8770313E-003  0.1834055E+03  0.7546771E-02  0.1067736E+00
        -11   -1    0    0    0    0  0.00000000000E+00  0.00000000000E+00  0.18250000000E+03  0.18250000000E+03  0.00000000000E+00 0. -1.
         11   -1    0    0    0    0 -0.00000000000E+00 -0.00000000000E+00 -0.18250000000E+03  0.18250000000E+03  0.00000000000E+00 0.  1.
        -11    1    1    2    0    0 -0.55227823020E+01 -0.11468129299E-02  0.18151051843E+03  0.18159451926E+03  0.00000000000E+00 0. -1.
         11    1    1    2    0    0  0.44007966943E+01 -0.17080664812E+01 -0.90854818540E+02  0.90977373861E+02  0.00000000000E+00 0.  1.
        -15    1    1    2    0    0  0.63094392526E+00  0.21843216475E+01 -0.15002976448E+01  0.32523796395E+01  0.17770000000E+01 0.  1.
         15    1    1    2    0    0  0.49104168253E+00 -0.47510835344E+00 -0.89155402245E+02  0.89175727237E+02  0.17770000000E+01 0. -1.
</event>
<event>
 6    1  0.8353910E-003  0.1712675E+03  0.7546771E-02  0.1077765E+00
        -11   -1    0    0    0    0  0.00000000000E+00  0.00000000000E+00  0.18250000000E+03  0.18250000000E+03  0.00000000000E+00 0.  1.
         11   -1    0    0    0    0 -0.00000000000E+00 -0.00000000000E+00 -0.18250000000E+03  0.18250000000E+03  0.00000000000E+00 0. -1.
        -11    1    1    2    0    0 -0.13971121140E+01  0.55094262591E+01  0.17280464810E+03  0.17289809746E+03  0.00000000000E+00 0.  1.
         11    1    1    2    0    0 -0.57298244437E+00  0.60266393136E+01 -0.16974247457E+03  0.16985039406E+03  0.00000000000E+00 0. -1.
        -15    1    1    2    0    0  0.10540555771E+01 -0.87653596567E+01 -0.10639720772E+02  0.13939295183E+02  0.17770000000E+01 0. -1.
         15    1    1    2    0    0  0.91603898128E+00 -0.27707059160E+01  0.75775472410E+01  0.83122132960E+01  0.17770000000E+01 0.  1.
</event>
<event>
 6    1  0.8353910E-003  0.1834284E+03  0.7546771E-02  0.1067718E+00
        -11   -1    0    0    0    0  0.00000000000E+00  0.00000000000E+00  0.18250000000E+03  0.18250000000E+03  0.00000000000E+00 0. -1.
         11   -1    0    0    0    0 -0.00000000000E+00 -0.00000000000E+00 -0.18250000000E+03  0.18250000000E+03  0.00000000000E+00 0. -1.
        -11    1    1    2    0    0  0.38011293959E+01  0.46739532354E+01  0.11902905352E+03  0.11918141636E+03  0.00000000000E+00 0. -1.
         11    1    1    2    0    0 -0.41003700143E+01  0.41890744012E+01 -0.18147697860E+03  0.18157162537E+03  0.00000000000E+00 0. -1.
        -15    1    1    2    0    0 -0.13155465995E+01 -0.24152958561E+01  0.49290873819E+02  0.49399517081E+02  0.17770000000E+01 0. -1.
         15    1    1    2    0    0  0.16147872179E+01 -0.64477317805E+01  0.13157051259E+02  0.14847441184E+02  0.17770000000E+01 0.  1.
</event>
<event>
 6    1  0.8353910E-003  0.1834644E+03  0.7546771E-02  0.1067690E+00
        -11   -1    0    0    0    0  0.00000000000E+00  0.00000000000E+00  0.18250000000E+03  0.18250000000E+03  0.00000000000E+00 0.  1.
         11   -1    0    0    0    0 -0.00000000000E+00 -0.00000000000E+00 -0.18250000000E+03  0.18250000000E+03  0.00000000000E+00 0. -1.
        -11    1    1    2    0    0  0.12662496496E+02 -0.12904730369E+01  0.18108888067E+03  0.18153563518E+03  0.00000000000E+00 0.  1.
         11    1    1    2    0    0  0.47940887674E+00 -0.55039455871E+00 -0.28371658578E+02  0.28381046096E+02  0.00000000000E+00 0. -1.
        -15    1    1    2    0    0 -0.54308197813E+01 -0.84615703505E+01 -0.30199830644E+02  0.31879138574E+02  0.17770000000E+01 0.  1.
         15    1    1    2    0    0 -0.77110855917E+01  0.10302437946E+02 -0.12251739145E+03  0.12320418015E+03  0.17770000000E+01 0. -1.
</event>
<event>
 6    1  0.8353910E-003  0.1842817E+03  0.7546771E-02  0.1067045E+00
        -11   -1    0    0    0    0  0.00000000000E+00  0.00000000000E+00  0.18250000000E+03  0.18250000000E+03  0.00000000000E+00 0.  1.
         11   -1    0    0    0    0 -0.00000000000E+00 -0.00000000000E+00 -0.18250000000E+03  0.18250000000E+03  0.00000000000E+00 0.  1.
        -11    1    1    2    0    0 -0.38469778879E+01  0.24523117931E+01  0.12919457588E+03  0.12927510011E+03  0.00000000000E+00 0.  1.
         11    1    1    2    0    0 -0.92724533623E+01 -0.70813684010E+01 -0.18034128774E+03  0.18071830078E+03  0.00000000000E+00 0.  1.
        -15    1    1    2    0    0  0.15136951452E+02  0.47869575019E+00  0.36920412116E+02  0.39945350276E+02  0.17770000000E+01 0.  1.
         15    1    1    2    0    0 -0.20175202014E+01  0.41503608577E+01  0.14226299752E+02  0.15061248841E+02  0.17770000000E+01 0. -1.
</event>
<event>
 6    1  0.8353910E-003  0.1688661E+03  0.7546771E-02  0.1079857E+00
        -11   -1    0    0    0    0  0.00000000000E+00  0.00000000000E+00  0.18250000000E+03  0.18250000000E+03  0.00000000000E+00 0.  1.
         11   -1    0    0    0    0 -0.00000000000E+00 -0.00000000000E+00 -0.18250000000E+03  0.18250000000E+03  0.00000000000E+00 0. -1.
        -11    1    1    2    0    0 -0.64094154253E+01  0.14815014237E+02  0.17245558784E+03  0.17320939649E+03  0.00000000000E+00 0.  1.
         11    1    1    2    0    0  0.50700100028E+01  0.49528588440E+01 -0.16503271582E+03  0.16518484526E+03  0.00000000000E+00 0. -1.
        -15    1    1    2    0    0  0.35264645277E+01 -0.58610762866E+01  0.42371769809E+01  0.82401192388E+01  0.17770000000E+01 0. -1.
         15    1    1    2    0    0 -0.21870591053E+01 -0.13906796794E+02 -0.11660049002E+02  0.18365639013E+02  0.17770000000E+01 0.  1.
</event>
<event>
 6    1  0.8353910E-003  0.1841874E+03  0.7546771E-02  0.1067119E+00
        -11   -1    0    0    0    0  0.00000000000E+00  0.00000000000E+00  0.18250000000E+03  0.18250000000E+03  0.00000000000E+00 0. -1.
         11   -1    0    0    0    0 -0.00000000000E+00 -0.00000000000E+00 -0.18250000000E+03  0.18250000000E+03  0.00000000000E+00 0. -1.
        -11    1    1    2    0    0  0.90382445498E+00 -0.92948527634E+01  0.18057124091E+03  0.18081256657E+03  0.00000000000E+00 0. -1.
         11    1    1    2    0    0 -0.80355821655E+01  0.80398608678E+01 -0.10976615255E+03  0.11035315215E+03  0.00000000000E+00 0. -1.
        -15    1    1    2    0    0  0.12943770556E+02 -0.30954126906E+01 -0.47374294958E+02  0.49240271402E+02  0.17770000000E+01 0. -1.
         15    1    1    2    0    0 -0.58120128452E+01  0.43504045862E+01 -0.23430793405E+02  0.24594009880E+02  0.17770000000E+01 0.  1.
</event>
<event>
 6    1  0.8353910E-003  0.1874441E+03  0.7546771E-02  0.1064586E+00
        -11   -1    0    0    0    0  0.00000000000E+00  0.00000000000E+00  0.18250000000E+03  0.18250000000E+03  0.00000000000E+00 0.  1.
         11   -1    0    0    0    0 -0.00000000000E+00 -0.00000000000E+00 -0.18250000000E+03  0.18250000000E+03  0.00000000000E+00 0. -1.
        -11    1    1    2    0    0  0.69839415052E+01  0.17900700811E+01  0.17740943974E+03  0.17755587599E+03  0.00000000000E+00 0.  1.
         11    1    1    2    0    0  0.29827635154E+01 -0.18742352468E+01 -0.13541382589E+03  0.13545963929E+03  0.00000000000E+00 0. -1.
        -15    1    1    2    0    0 -0.57388007431E+01 -0.19274767767E+01  0.28051046727E+01  0.69047332981E+01  0.17770000000E+01 0. -1.
         15    1    1    2    0    0 -0.42279042776E+01  0.20116419424E+01 -0.44800718527E+02  0.45079751413E+02  0.17770000000E+01 0.  1.
</event>
<event>
 6    1  0.8353910E-003  0.1859719E+03  0.7546771E-02  0.1065724E+00
        -11   -1    0    0    0    0  0.00000000000E+00  0.00000000000E+00  0.18250000000E+03  0.18250000000E+03  0.00000000000E+00 0. -1.
         11   -1    0    0    0    0 -0.00000000000E+00 -0.00000000000E+00 -0.18250000000E+03  0.18250000000E+03  0.00000000000E+00 0.  1.
        -11    1    1    2    0    0  0.61939030471E+00  0.14349887003E+01  0.11298116101E+03  0.11299197131E+03  0.00000000000E+00 0. -1.
         11    1    1    2    0    0  0.29470486961E+01  0.11013699599E+01 -0.17900047314E+03  0.17902811929E+03  0.00000000000E+00 0.  1.
        -15    1    1    2    0    0 -0.53792080936E+01  0.60596109757E+01  0.62967617135E+02  0.63511678465E+02  0.17770000000E+01 0. -1.
         15    1    1    2    0    0  0.18127690928E+01 -0.85959696360E+01  0.30516949932E+01  0.94682309381E+01  0.17770000000E+01 0.  1.
</event>
<event>
 6    1  0.8353910E-003  0.1836121E+03  0.7546771E-02  0.1067573E+00
        -11   -1    0    0    0    0  0.00000000000E+00  0.00000000000E+00  0.18250000000E+03  0.18250000000E+03  0.00000000000E+00 0.  1.
         11   -1    0    0    0    0 -0.00000000000E+00 -0.00000000000E+00 -0.18250000000E+03  0.18250000000E+03  0.00000000000E+00 0.  1.
        -11    1    1    2    0    0 -0.55522009459E+01  0.29459771066E+00  0.18130263094E+03  0.18138786539E+03  0.00000000000E+00 0.  1.
         11    1    1    2    0    0  0.75153216503E+00 -0.13393900292E+01 -0.94361996476E+02  0.94374494145E+02  0.00000000000E+00 0.  1.
        -15    1    1    2    0    0  0.39479630180E+01 -0.73861358489E+01 -0.66358533074E+02  0.66908549944E+02  0.17770000000E+01 0. -1.
         15    1    1    2    0    0  0.85270576284E+00  0.84309281675E+01 -0.20582101392E+02  0.22329090523E+02  0.17770000000E+01 0.  1.
</event>
<event>
 6    1  0.8353910E-003  0.1900941E+03  0.7546771E-02  0.1062566E+00
        -11   -1    0    0    0    0  0.00000000000E+00  0.00000000000E+00  0.18250000000E+03  0.18250000000E+03  0.00000000000E+00 0.  1.
         11   -1    0    0    0    0 -0.00000000000E+00 -0.00000000000E+00 -0.18250000000E+03  0.18250000000E+03  0.00000000000E+00 0. -1.
        -11    1    1    2    0    0 -0.62434388701E+01 -0.10010779890E+01  0.17479154484E+03  0.17490587993E+03  0.00000000000E+00 0.  1.
         11    1    1    2    0    0 -0.55972268176E+01  0.32529688927E+01 -0.74072748878E+02  0.74355113348E+02  0.00000000000E+00 0. -1.
        -15    1    1    2    0    0 -0.82883553407E+01 -0.14341934938E+02 -0.86801635840E+02  0.88385913163E+02  0.17770000000E+01 0. -1.
         15    1    1    2    0    0  0.20129021028E+02  0.12090044034E+02 -0.13917160124E+02  0.27353093558E+02  0.17770000000E+01 0.  1.
</event>
<event>
 6    1  0.8353910E-003  0.1845144E+03  0.7546771E-02  0.1066863E+00
        -11   -1    0    0    0    0  0.00000000000E+00  0.00000000000E+00  0.18250000000E+03  0.18250000000E+03  0.00000000000E+00 0.  1.
         11   -1    0    0    0    0 -0.00000000000E+00 -0.00000000000E+00 -0.18250000000E+03  0.18250000000E+03  0.00000000000E+00 0. -1.
        -11    1    1    2    0    0 -0.49175430989E+01 -0.45152998646E+01  0.18036203524E+03  0.18048555044E+03  0.00000000000E+00 0.  1.
         11    1    1    2    0    0 -0.96523415566E+00 -0.22364187016E+01 -0.15247479219E+03  0.15249424743E+03  0.00000000000E+00 0. -1.
        -15    1    1    2    0    0  0.20777551677E+01  0.16688363703E+01 -0.24307805535E+02  0.24517936706E+02  0.17770000000E+01 0.  1.
         15    1    1    2    0    0  0.38050220869E+01  0.50828821958E+01 -0.35794375133E+01  0.75022654185E+01  0.17770000000E+01 0. -1.
</event>
<event>
 6    1  0.8353910E-003  0.1887070E+03  0.7546771E-02  0.1063619E+00
        -11   -1    0    0    0    0  0.00000000000E+00  0.00000000000E+00  0.18250000000E+03  0.18250000000E+03  0.00000000000E+00 0.  1.
         11   -1    0    0    0    0 -0.00000000000E+00 -0.00000000000E+00 -0.18250000000E+03  0.18250000000E+03  0.00000000000E+00 0.  1.
        -11    1    1    2    0    0 -0.17306247505E+02 -0.67193456552E+01  0.17531278543E+03  0.17629301898E+03  0.00000000000E+00 0.  1.
         11    1    1    2    0    0  0.44176079597E+01  0.27161070663E+01 -0.12554187490E+03  0.12564893493E+03  0.00000000000E+00 0.  1.
        -15    1    1    2    0    0  0.17841898654E+02  0.83586601449E+01 -0.90261657517E+01  0.21744653232E+02  0.17770000000E+01 0.  1.
         15    1    1    2    0    0 -0.49532591090E+01 -0.43554215560E+01 -0.40744744778E+02  0.41313392850E+02  0.17770000000E+01 0.  1.
</event>
<event>
 6    1  0.8353910E-003  0.1696225E+03  0.7546771E-02  0.1079194E+00
        -11   -1    0    0    0    0  0.00000000000E+00  0.00000000000E+00  0.18250000000E+03  0.18250000000E+03  0.00000000000E+00 0. -1.
         11   -1    0    0    0    0 -0.00000000000E+00 -0.00000000000E+00 -0.18250000000E+03  0.18250000000E+03  0.00000000000E+00 0.  1.
        -11    1    1    2    0    0 -0.25166868098E+01  0.32526387224E+01  0.16915086924E+03  0.16920085678E+03  0.00000000000E+00 0. -1.
         11    1    1    2    0    0 -0.88054144848E+01  0.65688248159E+01 -0.17002162864E+03  0.17037616907E+03  0.00000000000E+00 0.  1.
        -15    1    1    2    0    0  0.50272538923E+00 -0.55683222399E+01  0.92705811154E+01  0.10970886409E+02  0.17770000000E+01 0.  1.
         15    1    1    2    0    0  0.10819375905E+02 -0.42531412984E+01 -0.83998217197E+01  0.14452087732E+02  0.17770000000E+01 0.  1.
</event>
<event>
 6    1  0.8353910E-003  0.1963309E+03  0.7546771E-02  0.1057949E+00
        -11   -1    0    0    0    0  0.00000000000E+00  0.00000000000E+00  0.18250000000E+03  0.18250000000E+03  0.00000000000E+00 0.  1.
         11   -1    0    0    0    0 -0.00000000000E+00 -0.00000000000E+00 -0.18250000000E+03  0.18250000000E+03  0.00000000000E+00 0. -1.
        -11    1    1    2    0    0 -0.49760198121E+01  0.35757266785E+00  0.16859526833E+03  0.16866906395E+03  0.00000000000E+00 0.  1.
         11    1    1    2    0    0 -0.15220366133E+01 -0.28762086039E+01 -0.16157704105E+03  0.16160980591E+03  0.00000000000E+00 0. -1.
        -15    1    1    2    0    0  0.31246442427E+01 -0.98067677314E+01  0.92541823090E+01  0.13954702225E+02  0.17770000000E+01 0.  1.
         15    1    1    2    0    0  0.33734121827E+01  0.12325403668E+02 -0.16272409587E+02  0.20766427909E+02  0.17770000000E+01 0. -1.
</event>
<event>
 6    1  0.8353910E-003  0.1835770E+03  0.7546771E-02  0.1067601E+00
        -11   -1    0    0    0    0  0.00000000000E+00  0.00000000000E+00  0.18250000000E+03  0.18250000000E+03  0.00000000000E+00 0.  1.
         11   -1    0    0    0    0 -0.00000000000E+00 -0.00000000000E+00 -0.18250000000E+03  0.18250000000E+03  0.00000000000E+00 0.  1.
        -11    1    1    2    0    0  0.14781062880E+01  0.20440889551E+01  0.18140549351E+03  0.18142303099E+03  0.00000000000E+00 0.  1.
         11    1    1    2    0    0  0.33191108922E+01  0.19024820158E+01 -0.10932869471E+03  0.10939560971E+03  0.00000000000E+00 0.  1.
        -15    1    1    2    0    0 -0.50805439676E+01 -0.13221053062E+01 -0.65622284770E+01  0.85895553454E+01  0.17770000000E+01 0. -1.
         15    1    1    2    0    0  0.28332678742E+00 -0.26244656647E+01 -0.65514570317E+02  0.65591803961E+02  0.17770000000E+01 0.  1.
</event>
<event>
 6    1  0.8353910E-003  0.1833493E+03  0.7546771E-02  0.1067781E+00
        -11   -1    0    0    0    0  0.00000000000E+00  0.00000000000E+00  0.18250000000E+03  0.18250000000E+03  0.00000000000E+00 0.  1.
         11   -1    0    0    0    0 -0.00000000000E+00 -0.00000000000E+00 -0.18250000000E+03  0.18250000000E+03  0.00000000000E+00 0.  1.
        -11    1    1    2    0    0  0.58209218711E+01 -0.19452391915E+00  0.10986166823E+03  0.11001594029E+03  0.00000000000E+00 0.  1.
         11    1    1    2    0    0  0.11817701531E+00  0.27776631488E+01 -0.18162944413E+03  0.18165072077E+03  0.00000000000E+00 0.  1.
        -15    1    1    2    0    0 -0.42670229491E+01 -0.10506930504E+01  0.69513585584E+02  0.69675015253E+02  0.17770000000E+01 0.  1.
         15    1    1    2    0    0 -0.16720759373E+01 -0.15324461793E+01  0.22541903155E+01  0.36583236887E+01  0.17770000000E+01 0. -1.
</event>
<event>
 6    1  0.8353910E-003  0.1827987E+03  0.7546771E-02  0.1068217E+00
        -11   -1    0    0    0    0  0.00000000000E+00  0.00000000000E+00  0.18250000000E+03  0.18250000000E+03  0.00000000000E+00 0.  1.
         11   -1    0    0    0    0 -0.00000000000E+00 -0.00000000000E+00 -0.18250000000E+03  0.18250000000E+03  0.00000000000E+00 0. -1.
        -11    1    1    2    0    0 -0.19120754094E+01  0.36918275130E+01  0.18215389879E+03  0.18220134046E+03  0.00000000000E+00 0.  1.
         11    1    1    2    0    0  0.40460635423E+01 -0.20822263835E+01 -0.80769628430E+02  0.80897708086E+02  0.00000000000E+00 0. -1.
        -15    1    1    2    0    0 -0.56138646886E+01  0.29294152176E+00 -0.56490885213E+02  0.56797703586E+02  0.17770000000E+01 0.  1.
         15    1    1    2    0    0  0.34798765557E+01 -0.19025426512E+01 -0.44893385145E+02  0.45103247867E+02  0.17770000000E+01 0. -1.
</event>
<event>
 6    1  0.8353910E-003  0.1829038E+03  0.7546771E-02  0.1068134E+00
        -11   -1    0    0    0    0  0.00000000000E+00  0.00000000000E+00  0.18250000000E+03  0.18250000000E+03  0.00000000000E+00 0. -1.
         11   -1    0    0    0    0 -0.00000000000E+00 -0.00000000000E+00 -0.18250000000E+03  0.18250000000E+03  0.00000000000E+00 0. -1.
        -11    1    1    2    0    0  0.28562174692E+01  0.24318304376E+01  0.47780699129E+02  0.47927726701E+02  0.00000000000E+00 0. -1.
         11    1    1    2    0    0  0.69121539260E+01 -0.99948638503E+01 -0.18169026537E+03  0.18209620453E+03  0.00000000000E+00 0. -1.
        -15    1    1    2    0    0 -0.42869598960E+01  0.73025059398E+01  0.41801047129E+02  0.42687116186E+02  0.17770000000E+01 0. -1.
         15    1    1    2    0    0 -0.54814114992E+01  0.26052747289E+00  0.92108519111E+02  0.92288952581E+02  0.17770000000E+01 0.  1.
</event>
<event>
 6    1  0.8353910E-003  0.1904016E+03  0.7546771E-02  0.1062334E+00
        -11   -1    0    0    0    0  0.00000000000E+00  0.00000000000E+00  0.18250000000E+03  0.18250000000E+03  0.00000000000E+00 0. -1.
         11   -1    0    0    0    0 -0.00000000000E+00 -0.00000000000E+00 -0.18250000000E+03  0.18250000000E+03  0.00000000000E+00 0.  1.
        -11    1    1    2    0    0  0.29551407744E+01  0.31526514215E+01  0.17454495022E+03  0.17459842987E+03  0.00000000000E+00 0. -1.
         11    1    1    2    0    0  0.42696170586E+01 -0.16732935921E+01 -0.16188118124E+03  0.16194612185E+03  0.00000000000E+00 0.  1.
        -15    1    1    2    0    0 -0.34945524688E+01 -0.16283967811E+01 -0.19777230858E+02  0.20227707790E+02  0.17770000000E+01 0.  1.
         15    1    1    2    0    0 -0.37302053642E+01  0.14903895159E+00  0.71134618788E+01  0.82277404899E+01  0.17770000000E+01 0. -1.
</event>
<event>
 6    1  0.8353910E-003  0.1898409E+03  0.7546771E-02  0.1062757E+00
        -11   -1    0    0    0    0  0.00000000000E+00  0.00000000000E+00  0.18250000000E+03  0.18250000000E+03  0.00000000000E+00 0. -1.
         11   -1    0    0    0    0 -0.00000000000E+00 -0.00000000000E+00 -0.18250000000E+03  0.18250000000E+03  0.00000000000E+00 0.  1.
        -11    1    1    2    0    0 -0.26098089256E+01 -0.31475779506E+01  0.17511133388E+03  0.17515906372E+03  0.00000000000E+00 0. -1.
         11    1    1    2    0    0  0.13888905759E+01 -0.61188442501E+01 -0.16872875639E+03  0.16884538046E+03  0.00000000000E+00 0.  1.
        -15    1    1    2    0    0 -0.20339584817E+01  0.11397656535E+02 -0.99941625331E+01  0.15397550953E+02  0.17770000000E+01 0. -1.
         15    1    1    2    0    0  0.32548768314E+01 -0.21312343346E+01  0.36115850392E+01  0.55980048653E+01  0.17770000000E+01 0.  1.
</event>
<event>
 6    1  0.8353910E-003  0.2089825E+03  0.7546771E-02  0.1049134E+00
        -11   -1    0    0    0    0  0.00000000000E+00  0.00000000000E+00  0.18250000000E+03  0.18250000000E+03  0.00000000000E+00 0.  1.
         11   -1    0    0    0    0 -0.00000000000E+00 -0.00000000000E+00 -0.18250000000E+03  0.18250000000E+03  0.00000000000E+00 0. -1.
        -11    1    1    2    0    0  0.13532303973E+02 -0.14870251615E+02  0.15471658976E+03  0.15601753357E+03  0.00000000000E+00 0.  1.
         11    1    1    2    0    0 -0.33081494985E+00 -0.62540034007E+01 -0.67611247923E+02  0.67900683670E+02  0.00000000000E+00 0. -1.
        -15    1    1    2    0    0  0.98324250381E+00  0.81473201269E+01 -0.11046068211E+03  0.11077935553E+03  0.17770000000E+01 0. -1.
         15    1    1    2    0    0 -0.14184731527E+02  0.12976934889E+02  0.23355340275E+02  0.30302427229E+02  0.17770000000E+01 0.  1.
</event>
<event>
 6    1  0.8353910E-003  0.1834706E+03  0.7546771E-02  0.1067685E+00
        -11   -1    0    0    0    0  0.00000000000E+00  0.00000000000E+00  0.18250000000E+03  0.18250000000E+03  0.00000000000E+00 0.  1.
         11   -1    0    0    0    0 -0.00000000000E+00 -0.00000000000E+00 -0.18250000000E+03  0.18250000000E+03  0.00000000000E+00 0.  1.
        -11    1    1    2    0    0 -0.52023860907E+01 -0.28667285901E+01  0.18143216117E+03  0.18152936969E+03  0.00000000000E+00 0.  1.
         11    1    1    2    0    0  0.52024694001E-01 -0.12267074561E+01 -0.62856830118E+02  0.62868820652E+02  0.00000000000E+00 0.  1.
        -15    1    1    2    0    0 -0.44202099503E+01  0.59682340593E-01 -0.66444958193E+01  0.81761159287E+01  0.17770000000E+01 0. -1.
         15    1    1    2    0    0  0.95705713471E+01  0.40337537056E+01 -0.11193083523E+03  0.11242569373E+03  0.17770000000E+01 0.  1.
</event>
<event>
 6    1  0.8353910E-003  0.1891385E+03  0.7546771E-02  0.1063290E+00
        -11   -1    0    0    0    0  0.00000000000E+00  0.00000000000E+00  0.18250000000E+03  0.18250000000E+03  0.00000000000E+00 0. -1.
         11   -1    0    0    0    0 -0.00000000000E+00 -0.00000000000E+00 -0.18250000000E+03  0.18250000000E+03  0.00000000000E+00 0.  1.
        -11    1    1    2    0    0  0.31477674239E+01  0.18402750259E+01  0.15030539902E+03  0.15034961931E+03  0.00000000000E+00 0. -1.
         11    1    1    2    0    0 -0.19570946762E+01  0.71613883371E+01 -0.17570473047E+03  0.17586150236E+03  0.00000000000E+00 0.  1.
        -15    1    1    2    0    0  0.11621546102E+02  0.77529888953E+00  0.16554309487E+02  0.20319062817E+02  0.17770000000E+01 0.  1.
         15    1    1    2    0    0 -0.12812218850E+02 -0.97769622525E+01  0.88450219549E+01  0.18469815514E+02  0.17770000000E+01 0. -1.
</event>
<event>
 6    1  0.8353910E-003  0.1851697E+03  0.7546771E-02  0.1066349E+00
        -11   -1    0    0    0    0  0.00000000000E+00  0.00000000000E+00  0.18250000000E+03  0.18250000000E+03  0.00000000000E+00 0.  1.
         11   -1    0    0    0    0 -0.00000000000E+00 -0.00000000000E+00 -0.18250000000E+03  0.18250000000E+03  0.00000000000E+00 0. -1.
        -11    1    1    2    0    0 -0.59334309895E+01 -0.18001147061E+01  0.17972334119E+03  0.17983026827E+03  0.00000000000E+00 0.  1.
         11    1    1    2    0    0  0.77018329260E+00  0.44813743897E+01 -0.15068676846E+03  0.15075535840E+03  0.00000000000E+00 0. -1.
        -15    1    1    2    0    0  0.11703472195E+01 -0.72916428934E+01 -0.40003778161E+01  0.85847842356E+01  0.17770000000E+01 0.  1.
         15    1    1    2    0    0  0.39929004774E+01  0.46103832098E+01 -0.25036194920E+02  0.25829589091E+02  0.17770000000E+01 0. -1.
</event>
<event>
 6    1  0.8353910E-003  0.1847614E+03  0.7546771E-02  0.1066669E+00
        -11   -1    0    0    0    0  0.00000000000E+00  0.00000000000E+00  0.18250000000E+03  0.18250000000E+03  0.00000000000E+00 0.  1.
         11   -1    0    0    0    0 -0.00000000000E+00 -0.00000000000E+00 -0.18250000000E+03  0.18250000000E+03  0.00000000000E+00 0. -1.
        -11    1    1    2    0    0  0.26555782112E+01  0.17886180964E+01  0.18021019155E+03  0.18023863179E+03  0.00000000000E+00 0.  1.
         11    1    1    2    0    0  0.23864722070E+01 -0.50373590959E-01 -0.17581639986E+03  0.17583260291E+03  0.00000000000E+00 0. -1.
        -15    1    1    2    0    0 -0.12983049142E+01  0.18323186227E+00 -0.36994008717E+01  0.43084179666E+01  0.17770000000E+01 0.  1.
         15    1    1    2    0    0 -0.37437455041E+01 -0.19214763677E+01 -0.69439081984E+00  0.46203473291E+01  0.17770000000E+01 0. -1.
</event>
<event>
 6    1  0.8353910E-003  0.1845810E+03  0.7546771E-02  0.1066810E+00
        -11   -1    0    0    0    0  0.00000000000E+00  0.00000000000E+00  0.18250000000E+03  0.18250000000E+03  0.00000000000E+00 0. -1.
         11   -1    0    0    0    0 -0.00000000000E+00 -0.00000000000E+00 -0.18250000000E+03  0.18250000000E+03  0.00000000000E+00 0. -1.
        -11    1    1    2    0    0 -0.22347398986E+01 -0.13025127127E+01  0.18040044844E+03  0.18041899124E+03  0.00000000000E+00 0. -1.
         11    1    1    2    0    0  0.43858984728E+01  0.43115634056E+01 -0.17380200300E+03  0.17391078728E+03  0.00000000000E+00 0. -1.
        -15    1    1    2    0    0  0.17888478142E+01 -0.90993286518E+00 -0.22720681222E+00  0.26902242020E+01  0.17770000000E+01 0.  1.
         15    1    1    2    0    0 -0.39400063884E+01 -0.20991178277E+01 -0.63712386283E+01  0.79799972841E+01  0.17770000000E+01 0. -1.
</event>
<event>
 6    1  0.8353910E-003  0.1825868E+03  0.7546771E-02  0.1068386E+00
        -11   -1    0    0    0    0  0.00000000000E+00  0.00000000000E+00  0.18250000000E+03  0.18250000000E+03  0.00000000000E+00 0. -1.
         11   -1    0    0    0    0 -0.00000000000E+00 -0.00000000000E+00 -0.18250000000E+03  0.18250000000E+03  0.00000000000E+00 0. -1.
        -11    1    1    2    0    0 -0.91819704020E-01  0.17587553108E+01  0.85371651330E+02  0.85389814978E+02  0.00000000000E+00 0. -1.
         11    1    1    2    0    0  0.36719816156E+01 -0.21441301192E-01 -0.18237623836E+03  0.18241320190E+03  0.00000000000E+00 0. -1.
        -15    1    1    2    0    0 -0.26059118341E+00 -0.12283349749E+01  0.26037655612E+02  0.26128412759E+02  0.17770000000E+01 0.  1.
         15    1    1    2    0    0 -0.33195707282E+01 -0.50897903474E+00  0.70966931419E+02  0.71068570363E+02  0.17770000000E+01 0. -1.
</event>
<event>
 6    1  0.8353910E-003  0.1888647E+03  0.7546771E-02  0.1063498E+00
        -11   -1    0    0    0    0  0.00000000000E+00  0.00000000000E+00  0.18250000000E+03  0.18250000000E+03  0.00000000000E+00 0.  1.
         11   -1    0    0    0    0 -0.00000000000E+00 -0.00000000000E+00 -0.18250000000E+03  0.18250000000E+03  0.00000000000E+00 0. -1.
        -11    1    1    2    0    0  0.28574548699E+01  0.20939458021E+01  0.17609971967E+03  0.17613534831E+03  0.00000000000E+00 0.  1.
         11    1    1    2    0    0  0.15719500457E+01  0.15386217633E+01 -0.10277610854E+03  0.10279964431E+03  0.00000000000E+00 0. -1.
        -15    1    1    2    0    0 -0.13960880414E+01 -0.58134724595E+01 -0.78886346104E+02  0.79132539796E+02  0.17770000000E+01 0. -1.
         15    1    1    2    0    0 -0.30333168742E+01  0.21809048941E+01  0.55627349722E+01  0.69324675829E+01  0.17770000000E+01 0.  1.
</event>
<event>
 6    1  0.8353910E-003  0.1832764E+03  0.7546771E-02  0.1067838E+00
        -11   -1    0    0    0    0  0.00000000000E+00  0.00000000000E+00  0.18250000000E+03  0.18250000000E+03  0.00000000000E+00 0. -1.
         11   -1    0    0    0    0 -0.00000000000E+00 -0.00000000000E+00 -0.18250000000E+03  0.18250000000E+03  0.00000000000E+00 0. -1.
        -11    1    1    2    0    0  0.16059948781E+01  0.39985449176E+00  0.11837105127E+03  0.11838262069E+03  0.00000000000E+00 0. -1.
         11    1    1    2    0    0  0.47130289117E+01 -0.11884083995E+01 -0.18165855680E+03  0.18172357088E+03  0.00000000000E+00 0. -1.
        -15    1    1    2    0    0  0.20142065274E+01  0.25489149120E+01  0.37409829989E+02  0.37592646940E+02  0.17770000000E+01 0.  1.
         15    1    1    2    0    0 -0.83332303173E+01 -0.17603610043E+01  0.25877675542E+02  0.27301161493E+02  0.17770000000E+01 0. -1.
</event>
<event>
 6    1  0.8353910E-003  0.1852551E+03  0.7546771E-02  0.1066283E+00
        -11   -1    0    0    0    0  0.00000000000E+00  0.00000000000E+00  0.18250000000E+03  0.18250000000E+03  0.00000000000E+00 0.  1.
         11   -1    0    0    0    0 -0.00000000000E+00 -0.00000000000E+00 -0.18250000000E+03  0.18250000000E+03  0.00000000000E+00 0.  1.
        -11    1    1    2    0    0 -0.31932684448E+00 -0.18133757464E+01  0.52366923787E+02  0.52399284424E+02  0.00000000000E+00 0.  1.
         11    1    1    2    0    0  0.75527422578E+01 -0.17199468526E+01 -0.17957790615E+03  0.17974489286E+03  0.00000000000E+00 0.  1.
        -15    1    1    2    0    0  0.21969415231E+01  0.26385488932E+01  0.12168435940E+03  0.12174575781E+03  0.17770000000E+01 0.  1.
         15    1    1    2    0    0 -0.94303569364E+01  0.89477370587E+00  0.55266229561E+01  0.11110064907E+02  0.17770000000E+01 0.  1.
</event>
<event>
 6    1  0.8353910E-003  0.1825652E+03  0.7546771E-02  0.1068403E+00
        -11   -1    0    0    0    0  0.00000000000E+00  0.00000000000E+00  0.18250000000E+03  0.18250000000E+03  0.00000000000E+00 0.  1.
         11   -1    0    0    0    0 -0.00000000000E+00 -0.00000000000E+00 -0.18250000000E+03  0.18250000000E+03  0.00000000000E+00 0.  1.
        -11    1    1    2    0    0  0.19897844900E+01  0.11597310946E+01  0.64803936849E+02  0.64844849061E+02  0.00000000000E+00 0.  1.
         11    1    1    2    0    0 -0.44497312947E+00 -0.27558914352E+01 -0.18241348033E+03  0.18243483972E+03  0.00000000000E+00 0.  1.
        -15    1    1    2    0    0 -0.22816780287E+01  0.76107440512E+00  0.73911043210E+02  0.73971516994E+02  0.17770000000E+01 0.  1.
         15    1    1    2    0    0  0.73686666822E+00  0.83508593546E+00  0.43698500270E+02  0.43748794222E+02  0.17770000000E+01 0. -1.
</event>
<event>
 6    1  0.8353910E-003  0.1828295E+03  0.7546771E-02  0.1068193E+00
        -11   -1    0    0    0    0  0.00000000000E+00  0.00000000000E+00  0.18250000000E+03  0.18250000000E+03  0.00000000000E+00 0. -1.
         11   -1    0    0    0    0 -0.00000000000E+00 -0.00000000000E+00 -0.18250000000E+03  0.18250000000E+03  0.00000000000E+00 0.  1.
        -11    1    1    2    0    0 -0.40556767251E+00  0.24314366941E+01  0.18215385276E+03  0.18217053122E+03  0.00000000000E+00 0. -1.
         11    1    1    2    0    0 -0.11252387525E+01  0.30198557207E+01 -0.10068245337E+03  0.10073401664E+03  0.00000000000E+00 0.  1.
        -15    1    1    2    0    0  0.92538228228E+00  0.13062853643E+01 -0.36719427839E+02  0.36797239348E+02  0.17770000000E+01 0. -1.
         15    1    1    2    0    0  0.60542414273E+00 -0.67575777791E+01 -0.44751971551E+02  0.45298212796E+02  0.17770000000E+01 0.  1.
</event>
<event>
 6    1  0.8353910E-003  0.1825466E+03  0.7546771E-02  0.1068418E+00
        -11   -1    0    0    0    0  0.00000000000E+00  0.00000000000E+00  0.18250000000E+03  0.18250000000E+03  0.00000000000E+00 0.  1.
         11   -1    0    0    0    0 -0.00000000000E+00 -0.00000000000E+00 -0.18250000000E+03  0.18250000000E+03  0.00000000000E+00 0.  1.
        -11    1    1    2    0    0 -0.92312883200E+00 -0.24002376090E+01  0.18243524889E+03  0.18245337307E+03  0.00000000000E+00 0.  1.
         11    1    1    2    0    0  0.21832148793E-01  0.63267706501E+00 -0.13102000742E+02  0.13117285556E+02  0.00000000000E+00 0.  1.
        -15    1    1    2    0    0  0.15649261379E+01  0.12565041014E+01 -0.14211964093E+03  0.14214491853E+03  0.17770000000E+01 0.  1.
         15    1    1    2    0    0 -0.66362945469E+00  0.51105644254E+00 -0.27213607220E+02  0.27284422839E+02  0.17770000000E+01 0. -1.
</event>
<event>
 6    1  0.8353910E-003  0.1834807E+03  0.7546771E-02  0.1067677E+00
        -11   -1    0    0    0    0  0.00000000000E+00  0.00000000000E+00  0.18250000000E+03  0.18250000000E+03  0.00000000000E+00 0. -1.
         11   -1    0    0    0    0 -0.00000000000E+00 -0.00000000000E+00 -0.18250000000E+03  0.18250000000E+03  0.00000000000E+00 0.  1.
        -11    1    1    2    0    0 -0.25367137248E+01  0.29592128011E+01  0.16544092325E+03  0.16548683012E+03  0.00000000000E+00 0. -1.
         11    1    1    2    0    0  0.50374950477E+00  0.27953585410E+01 -0.18149709047E+03  0.18151931479E+03  0.00000000000E+00 0.  1.
        -15    1    1    2    0    0  0.20448605674E+01 -0.49973727444E+01  0.87319911673E+01  0.10419241231E+02  0.17770000000E+01 0. -1.
         15    1    1    2    0    0 -0.11896347364E-01 -0.75719859763E+00  0.73241760569E+01  0.75746138615E+01  0.17770000000E+01 0. -1.
</event>
<event>
 6    1  0.8353910E-003  0.1848666E+03  0.7546771E-02  0.1066586E+00
        -11   -1    0    0    0    0  0.00000000000E+00  0.00000000000E+00  0.18250000000E+03  0.18250000000E+03  0.00000000000E+00 0.  1.
         11   -1    0    0    0    0 -0.00000000000E+00 -0.00000000000E+00 -0.18250000000E+03  0.18250000000E+03  0.00000000000E+00 0. -1.
        -11    1    1    2    0    0  0.19711907738E+00  0.36291382552E+01  0.16200595610E+03  0.16204671954E+03  0.00000000000E+00 0.  1.
         11    1    1    2    0    0 -0.36329369596E+01 -0.44039458363E+01 -0.18004294414E+03  0.18013343583E+03  0.00000000000E+00 0. -1.
        -15    1    1    2    0    0  0.45573983446E+01  0.17574845098E+01  0.60344276937E+00  0.52326383068E+01  0.17770000000E+01 0. -1.
         15    1    1    2    0    0 -0.11215804624E+01 -0.98267692865E+00  0.17433545268E+02  0.17587206324E+02  0.17770000000E+01 0.  1.
</event>
<event>
 6    1  0.8353910E-003  0.1850487E+03  0.7546771E-02  0.1066444E+00
        -11   -1    0    0    0    0  0.00000000000E+00  0.00000000000E+00  0.18250000000E+03  0.18250000000E+03  0.00000000000E+00 0. -1.
         11   -1    0    0    0    0 -0.00000000000E+00 -0.00000000000E+00 -0.18250000000E+03  0.18250000000E+03  0.00000000000E+00 0. -1.
        -11    1    1    2    0    0 -0.19878875339E+01 -0.30666638038E+01  0.17357591223E+03  0.17361438140E+03  0.00000000000E+00 0. -1.
         11    1    1    2    0    0  0.71726968905E+01  0.49407864899E+01 -0.17974035810E+03  0.17995125808E+03  0.00000000000E+00 0. -1.
        -15    1    1    2    0    0 -0.51876645616E+00  0.29511318390E+00 -0.12374399336E+01  0.22461516014E+01  0.17770000000E+01 0.  1.
         15    1    1    2    0    0 -0.46660429005E+01 -0.21692358699E+01  0.74018858081E+01  0.91882089182E+01  0.17770000000E+01 0. -1.
</event>
<event>
 6    1  0.8353910E-003  0.1848432E+03  0.7546771E-02  0.1066605E+00
        -11   -1    0    0    0    0  0.00000000000E+00  0.00000000000E+00  0.18250000000E+03  0.18250000000E+03  0.00000000000E+00 0.  1.
         11   -1    0    0    0    0 -0.00000000000E+00 -0.00000000000E+00 -0.18250000000E+03  0.18250000000E+03  0.00000000000E+00 0. -1.
        -11    1    1    2    0    0 -0.50978891856E+00 -0.28493999247E+01  0.17510000753E+03  0.17512393212E+03  0.00000000000E+00 0.  1.
         11    1    1    2    0    0  0.22515187161E+01  0.15934105376E+01 -0.18013564947E+03  0.18015676647E+03  0.00000000000E+00 0. -1.
        -15    1    1    2    0    0 -0.47983710579E+00  0.86768524831E+00 -0.16859132918E+01  0.26425657921E+01  0.17770000000E+01 0. -1.
         15    1    1    2    0    0 -0.12618926918E+01  0.38830413885E+00  0.67215552379E+01  0.70767356236E+01  0.17770000000E+01 0.  1.
</event>
<event>
 6    1  0.8353910E-003  0.1876446E+03  0.7546771E-02  0.1064432E+00
        -11   -1    0    0    0    0  0.00000000000E+00  0.00000000000E+00  0.18250000000E+03  0.18250000000E+03  0.00000000000E+00 0.  1.
         11   -1    0    0    0    0 -0.00000000000E+00 -0.00000000000E+00 -0.18250000000E+03  0.18250000000E+03  0.00000000000E+00 0. -1.
        -11    1    1    2    0    0  0.59113414512E+01  0.18090503176E+01  0.17724761164E+03  0.17735538461E+03  0.00000000000E+00 0.  1.
         11    1    1    2    0    0  0.35428612770E+00  0.84896500019E+01 -0.15403422176E+03  0.15426840619E+03  0.00000000000E+00 0. -1.
        -15    1    1    2    0    0 -0.34837670194E+01 -0.39317593314E+01  0.29264800698E+01  0.62703571417E+01  0.17770000000E+01 0.  1.
         15    1    1    2    0    0 -0.27818605595E+01 -0.63669409882E+01 -0.26139869950E+02  0.27105852057E+02  0.17770000000E+01 0. -1.
</event>
<event>
 6    1  0.8353910E-003  0.1771018E+03  0.7546771E-02  0.1072835E+00
        -11   -1    0    0    0    0  0.00000000000E+00  0.00000000000E+00  0.18250000000E+03  0.18250000000E+03  0.00000000000E+00 0.  1.
         11   -1    0    0    0    0 -0.00000000000E+00 -0.00000000000E+00 -0.18250000000E+03  0.18250000000E+03  0.00000000000E+00 0. -1.
        -11    1    1    2    0    0  0.81905060143E+00 -0.46315204556E+01  0.17924648568E+03  0.17930818290E+03  0.00000000000E+00 0.  1.
         11    1    1    2    0    0 -0.20419022502E+01 -0.28957091008E+01 -0.17496755223E+03  0.17500342519E+03  0.00000000000E+00 0. -1.
        -15    1    1    2    0    0 -0.79775214170E+00  0.58365676996E+01 -0.12106144387E+01  0.62709845568E+01  0.17770000000E+01 0. -1.
         15    1    1    2    0    0  0.20206037905E+01  0.16906618568E+01 -0.30683190131E+01  0.44174073571E+01  0.17770000000E+01 0.  1.
</event>
<event>
 6    1  0.8353910E-003  0.1866050E+03  0.7546771E-02  0.1065233E+00
        -11   -1    0    0    0    0  0.00000000000E+00  0.00000000000E+00  0.18250000000E+03  0.18250000000E+03  0.00000000000E+00 0.  1.
         11   -1    0    0    0    0 -0.00000000000E+00 -0.00000000000E+00 -0.18250000000E+03  0.18250000000E+03  0.00000000000E+00 0.  1.
        -11    1    1    2    0    0  0.81361387078E+01  0.11845603305E+02  0.13521536360E+03  0.13597687165E+03  0.00000000000E+00 0.  1.
         11    1    1    2    0    0 -0.53920328994E+01 -0.43253404348E+01 -0.17826105024E+03  0.17839502409E+03  0.00000000000E+00 0.  1.
        -15    1    1    2    0    0 -0.10342018721E+02 -0.12984095986E+02  0.31584902530E+02  0.35725451664E+02  0.17770000000E+01 0.  1.
         15    1    1    2    0    0  0.75979129127E+01  0.54638331149E+01  0.11460784111E+02  0.14902652596E+02  0.17770000000E+01 0. -1.
</event>
<event>
 6    1  0.8353910E-003  0.1864692E+03  0.7546771E-02  0.1065338E+00
        -11   -1    0    0    0    0  0.00000000000E+00  0.00000000000E+00  0.18250000000E+03  0.18250000000E+03  0.00000000000E+00 0. -1.
         11   -1    0    0    0    0 -0.00000000000E+00 -0.00000000000E+00 -0.18250000000E+03  0.18250000000E+03  0.00000000000E+00 0. -1.
        -11    1    1    2    0    0  0.14865369861E+01  0.29216852791E+01  0.16510445055E+03  0.16513699049E+03  0.00000000000E+00 0. -1.
         11    1    1    2    0    0  0.71809203754E+01 -0.27339612031E+00 -0.17838609058E+03  0.17853077515E+03  0.00000000000E+00 0. -1.
        -15    1    1    2    0    0 -0.55408259441E+01 -0.23600224424E+01  0.15753513182E+02  0.16958813775E+02  0.17770000000E+01 0. -1.
         15    1    1    2    0    0 -0.31266314175E+01 -0.28826671637E+00 -0.24718731469E+01  0.43734205806E+01  0.17770000000E+01 0.  1.
</event>
<event>
 6    1  0.8353910E-003  0.1828313E+03  0.7546771E-02  0.1068191E+00
        -11   -1    0    0    0    0  0.00000000000E+00  0.00000000000E+00  0.18250000000E+03  0.18250000000E+03  0.00000000000E+00 0. -1.
         11   -1    0    0    0    0 -0.00000000000E+00 -0.00000000000E+00 -0.18250000000E+03  0.18250000000E+03  0.00000000000E+00 0.  1.
        -11    1    1    2    0    0 -0.23866133748E+01  0.19564447398E+01  0.18214252047E+03  0.18216866186E+03  0.00000000000E+00 0. -1.
         11    1    1    2    0    0  0.32837888202E+01  0.43160724194E+01 -0.83197676380E+02  0.83374247254E+02  0.00000000000E+00 0.  1.
        -15    1    1    2    0    0 -0.14963397518E+01 -0.35062752321E+01 -0.85490204169E+02  0.85593608035E+02  0.17770000000E+01 0.  1.
         15    1    1    2    0    0  0.59916430642E+00 -0.27662419271E+01 -0.13454639924E+02  0.13863482851E+02  0.17770000000E+01 0. -1.
</event>
<event>
 6    1  0.8353910E-003  0.1825509E+03  0.7546771E-02  0.1068414E+00
        -11   -1    0    0    0    0  0.00000000000E+00  0.00000000000E+00  0.18250000000E+03  0.18250000000E+03  0.00000000000E+00 0. -1.
         11   -1    0    0    0    0 -0.00000000000E+00 -0.00000000000E+00 -0.18250000000E+03  0.18250000000E+03  0.00000000000E+00 0.  1.
        -11    1    1    2    0    0  0.12437001047E+00  0.63416185652E+00  0.44939772831E+01  0.45402049492E+01  0.00000000000E+00 0. -1.
         11    1    1    2    0    0  0.11475627321E+01 -0.34848005372E+01 -0.18241223450E+03  0.18244912723E+03  0.00000000000E+00 0.  1.
        -15    1    1    2    0    0 -0.21153616210E+01  0.25218795404E+01  0.11674786533E+03  0.11680777551E+03  0.17770000000E+01 0. -1.
         15    1    1    2    0    0  0.84342887845E+00  0.32875914033E+00  0.61170391879E+02  0.61202892305E+02  0.17770000000E+01 0. -1.
</event>
<event>
 6    1  0.8353910E-003  0.1857227E+03  0.7546771E-02  0.1065918E+00
        -11   -1    0    0    0    0  0.00000000000E+00  0.00000000000E+00  0.18250000000E+03  0.18250000000E+03  0.00000000000E+00 0.  1.
         11   -1    0    0    0    0 -0.00000000000E+00 -0.00000000000E+00 -0.18250000000E+03  0.18250000000E+03  0.00000000000E+00 0. -1.
        -11    1    1    2    0    0  0.31817359721E+01  0.10146109755E+01  0.17924615041E+03  0.17927725823E+03  0.00000000000E+00 0.  1.
         11    1    1    2    0    0  0.26624167997E+01 -0.21060249504E+01 -0.16538944861E+03  0.16542428333E+03  0.00000000000E+00 0. -1.
        -15    1    1    2    0    0 -0.63131179131E+01 -0.30917452476E+01 -0.18955656319E+01  0.74943475050E+01  0.17770000000E+01 0. -1.
         15    1    1    2    0    0  0.46896514135E+00  0.41831592225E+01 -0.11961136170E+02  0.12804110936E+02  0.17770000000E+01 0.  1.
</event>
<event>
 6    1  0.8353910E-003  0.1874332E+03  0.7546771E-02  0.1064594E+00
        -11   -1    0    0    0    0  0.00000000000E+00  0.00000000000E+00  0.18250000000E+03  0.18250000000E+03  0.00000000000E+00 0. -1.
         11   -1    0    0    0    0 -0.00000000000E+00 -0.00000000000E+00 -0.18250000000E+03  0.18250000000E+03  0.00000000000E+00 0. -1.
        -11    1    1    2    0    0 -0.25049775597E+01 -0.10464220203E+01  0.17754604632E+03  0.17756680004E+03  0.00000000000E+00 0. -1.
         11    1    1    2    0    0  0.83700138913E+01  0.24691335138E+01 -0.15113859842E+03  0.15139032230E+03  0.00000000000E+00 0. -1.
        -15    1    1    2    0    0  0.28300251462E+01 -0.19233577007E+01  0.32745113829E+01  0.50585077809E+01  0.17770000000E+01 0. -1.
         15    1    1    2    0    0 -0.86950614778E+01  0.50064620731E+00 -0.29681959287E+02  0.30984369879E+02  0.17770000000E+01 0.  1.
</event>
<event>
 6    1  0.8668168E-003  0.1839958E+03  0.7546771E-02  0.1067270E+00
        -11   -1    0    0    0    0  0.00000000000E+00  0.00000000000E+00  0.18250000000E+03  0.18250000000E+03  0.00000000000E+00 0.  1.
         11   -1    0    0    0    0 -0.00000000000E+00 -0.00000000000E+00 -0.18250000000E+03  0.18250000000E+03  0.00000000000E+00 0. -1.
        -11    1    1    2    0    0  0.90577488792E+00 -0.38071828981E+01  0.18096184625E+03  0.18100415705E+03  0.00000000000E+00 0.  1.
         11    1    1    2    0    0 -0.44851725163E+01 -0.37326824466E+01 -0.15718499926E+03  0.15729327285E+03  0.00000000000E+00 0. -1.
        -15    1    1    2    0    0  0.24131715650E+00  0.17154630952E+01 -0.66393574230E+00  0.25689661872E+01  0.17770000000E+01 0.  1.
         15    1    1    2    0    0  0.33380804719E+01  0.58244022495E+01 -0.23112911250E+02  0.24133603922E+02  0.17770000000E+01 0. -1.
</event>
<event>
 6    1  0.8353910E-003  0.1882814E+03  0.7546771E-02  0.1063944E+00
        -11   -1    0    0    0    0  0.00000000000E+00  0.00000000000E+00  0.18250000000E+03  0.18250000000E+03  0.00000000000E+00 0. -1.
         11   -1    0    0    0    0 -0.00000000000E+00 -0.00000000000E+00 -0.18250000000E+03  0.18250000000E+03  0.00000000000E+00 0. -1.
        -11    1    1    2    0    0  0.24722239711E+01 -0.11021648291E+00  0.17670125919E+03  0.17671858713E+03  0.00000000000E+00 0. -1.
         11    1    1    2    0    0 -0.29564595225E+01  0.25934143679E+01 -0.17157424690E+03  0.17161931316E+03  0.00000000000E+00 0. -1.
        -15    1    1    2    0    0  0.18286779765E+01 -0.37695497882E+01 -0.10091652840E+02  0.11070354772E+02  0.17770000000E+01 0. -1.
         15    1    1    2    0    0 -0.13444424251E+01  0.12863519033E+01  0.49646405508E+01  0.55917449381E+01  0.17770000000E+01 0. -1.
</event>
<event>
 6    1  0.8353910E-003  0.1827352E+03  0.7546771E-02  0.1068268E+00
        -11   -1    0    0    0    0  0.00000000000E+00  0.00000000000E+00  0.18250000000E+03  0.18250000000E+03  0.00000000000E+00 0.  1.
         11   -1    0    0    0    0 -0.00000000000E+00 -0.00000000000E+00 -0.18250000000E+03  0.18250000000E+03  0.00000000000E+00 0.  1.
        -11    1    1    2    0    0  0.28072437406E+00 -0.29493545868E+01  0.18224072128E+03  0.18226480184E+03  0.00000000000E+00 0.  1.
         11    1    1    2    0    0 -0.28871603561E+01  0.37285897918E+00 -0.13586751099E+03  0.13589869484E+03  0.00000000000E+00 0.  1.
        -15    1    1    2    0    0  0.14319144102E+01 -0.93098203800E+00 -0.16712526698E+02  0.16893294056E+02  0.17770000000E+01 0. -1.
         15    1    1    2    0    0  0.11745215718E+01  0.35074776456E+01 -0.29660683595E+02  0.29943209258E+02  0.17770000000E+01 0.  1.
</event>
<event>
 6    1  0.8353910E-003  0.1828113E+03  0.7546771E-02  0.1068207E+00
        -11   -1    0    0    0    0  0.00000000000E+00  0.00000000000E+00  0.18250000000E+03  0.18250000000E+03  0.00000000000E+00 0.  1.
         11   -1    0    0    0    0 -0.00000000000E+00 -0.00000000000E+00 -0.18250000000E+03  0.18250000000E+03  0.00000000000E+00 0. -1.
        -11    1    1    2    0    0  0.25949999912E-01  0.21154779905E+01  0.11478229196E+03  0.11480178774E+03  0.00000000000E+00 0.  1.
         11    1    1    2    0    0  0.80798352826E+01 -0.88633191101E+00 -0.18200728211E+03  0.18218869357E+03  0.00000000000E+00 0. -1.
        -15    1    1    2    0    0 -0.43051832102E+01 -0.15164924780E+01  0.19737983438E+02  0.20336668142E+02  0.17770000000E+01 0.  1.
         15    1    1    2    0    0 -0.38006020723E+01  0.28734639858E+00  0.47487006717E+02  0.47672850554E+02  0.17770000000E+01 0. -1.
</event>
<event>
 6    1  0.8353910E-003  0.1833389E+03  0.7546771E-02  0.1067789E+00
        -11   -1    0    0    0    0  0.00000000000E+00  0.00000000000E+00  0.18250000000E+03  0.18250000000E+03  0.00000000000E+00 0.  1.
         11   -1    0    0    0    0 -0.00000000000E+00 -0.00000000000E+00 -0.18250000000E+03  0.18250000000E+03  0.00000000000E+00 0. -1.
        -11    1    1    2    0    0  0.60672055229E+01  0.12292529124E+01  0.86158354712E+02  0.86380461519E+02  0.00000000000E+00 0.  1.
         11    1    1    2    0    0  0.47791533316E+01  0.51783528741E+01 -0.18152433033E+03  0.18166105291E+03  0.00000000000E+00 0. -1.
        -15    1    1    2    0    0 -0.10639411210E+01  0.79942083801E+00  0.47186763194E+02  0.47238960553E+02  0.17770000000E+01 0.  1.
         15    1    1    2    0    0 -0.97824177336E+01 -0.72070266245E+01  0.48179212419E+02  0.49719525016E+02  0.17770000000E+01 0.  1.
</event>
<event>
 6    1  0.8353910E-003  0.1873860E+03  0.7546771E-02  0.1064631E+00
        -11   -1    0    0    0    0  0.00000000000E+00  0.00000000000E+00  0.18250000000E+03  0.18250000000E+03  0.00000000000E+00 0. -1.
         11   -1    0    0    0    0 -0.00000000000E+00 -0.00000000000E+00 -0.18250000000E+03  0.18250000000E+03  0.00000000000E+00 0.  1.
        -11    1    1    2    0    0  0.49394491849E+01  0.10380183446E+01  0.17754230330E+03  0.17761403408E+03  0.00000000000E+00 0. -1.
         11    1    1    2    0    0 -0.52822368324E+01 -0.21202445428E+01 -0.16546924483E+03  0.16556711162E+03  0.00000000000E+00 0.  1.
        -15    1    1    2    0    0  0.30174401847E+01  0.59678102893E+01 -0.14038354058E+02  0.15650968615E+02  0.17770000000E+01 0.  1.
         15    1    1    2    0    0 -0.26746525372E+01 -0.48855840911E+01  0.19652955893E+01  0.61678856879E+01  0.17770000000E+01 0. -1.
</event>
<event>
 6    1  0.8353910E-003  0.1832525E+03  0.7546771E-02  0.1067857E+00
        -11   -1    0    0    0    0  0.00000000000E+00  0.00000000000E+00  0.18250000000E+03  0.18250000000E+03  0.00000000000E+00 0.  1.
         11   -1    0    0    0    0 -0.00000000000E+00 -0.00000000000E+00 -0.18250000000E+03  0.18250000000E+03  0.00000000000E+00 0.  1.
        -11    1    1    2    0    0  0.59543016766E+01 -0.66448203440E+01  0.18152832487E+03  0.18174746237E+03  0.00000000000E+00 0.  1.
         11    1    1    2    0    0  0.73798761812E+00 -0.14079050202E+01 -0.10080718896E+03  0.10081972113E+03  0.00000000000E+00 0.  1.
        -15    1    1    2    0    0 -0.68370223620E+01  0.53586876387E+01 -0.23444859789E+02  0.25065505930E+02  0.17770000000E+01 0. -1.
         15    1    1    2    0    0  0.14473306732E+00  0.26940377255E+01 -0.57276276125E+02  0.57367310576E+02  0.17770000000E+01 0.  1.
</event>
<event>
 6    1  0.8353910E-003  0.1839981E+03  0.7546771E-02  0.1067269E+00
        -11   -1    0    0    0    0  0.00000000000E+00  0.00000000000E+00  0.18250000000E+03  0.18250000000E+03  0.00000000000E+00 0. -1.
         11   -1    0    0    0    0 -0.00000000000E+00 -0.00000000000E+00 -0.18250000000E+03  0.18250000000E+03  0.00000000000E+00 0.  1.
        -11    1    1    2    0    0  0.33230884947E+01 -0.77673945556E+00  0.18096976020E+03  0.18100193465E+03  0.00000000000E+00 0. -1.
         11    1    1    2    0    0 -0.11342957455E+01 -0.22705762068E+01 -0.17018905853E+03  0.17020798391E+03  0.00000000000E+00 0.  1.
        -15    1    1    2    0    0  0.12437191857E+01  0.38722364467E+01 -0.41812491734E+01  0.60976738321E+01  0.17770000000E+01 0. -1.
         15    1    1    2    0    0 -0.34325119350E+01 -0.82492078437E+00 -0.65994524971E+01  0.76924076040E+01  0.17770000000E+01 0.  1.
</event>
<event>
 6    1  0.8353910E-003  0.1837415E+03  0.7546771E-02  0.1067471E+00
        -11   -1    0    0    0    0  0.00000000000E+00  0.00000000000E+00  0.18250000000E+03  0.18250000000E+03  0.00000000000E+00 0. -1.
         11   -1    0    0    0    0 -0.00000000000E+00 -0.00000000000E+00 -0.18250000000E+03  0.18250000000E+03  0.00000000000E+00 0. -1.
        -11    1    1    2    0    0 -0.14867873337E+01  0.92117951337E+01  0.18101820372E+03  0.18125853851E+03  0.00000000000E+00 0. -1.
         11    1    1    2    0    0  0.32753736815E+01 -0.63934762463E+00 -0.15528108520E+03  0.15531694131E+03  0.00000000000E+00 0. -1.
        -15    1    1    2    0    0 -0.24176422078E+01 -0.75259395783E+00 -0.30110437591E+01  0.43168860339E+01  0.17770000000E+01 0.  1.
         15    1    1    2    0    0  0.62905585992E+00 -0.78198535513E+01 -0.22726074763E+02  0.24107634143E+02  0.17770000000E+01 0. -1.
</event>
<event>
 6    1  0.8353910E-003  0.1932564E+03  0.7546771E-02  0.1060201E+00
        -11   -1    0    0    0    0  0.00000000000E+00  0.00000000000E+00  0.18250000000E+03  0.18250000000E+03  0.00000000000E+00 0. -1.
         11   -1    0    0    0    0 -0.00000000000E+00 -0.00000000000E+00 -0.18250000000E+03  0.18250000000E+03  0.00000000000E+00 0. -1.
        -11    1    1    2    0    0  0.21757080934E+01 -0.17028743399E+01  0.15983097420E+03  0.15985485228E+03  0.00000000000E+00 0. -1.
         11    1    1    2    0    0  0.20699474383E+01  0.42075195084E+01 -0.17167959188E+03  0.17174361755E+03  0.00000000000E+00 0. -1.
        -15    1    1    2    0    0 -0.14654612608E+02  0.52706201039E+01  0.12823774805E+02  0.20252013140E+02  0.17770000000E+01 0.  1.
         15    1    1    2    0    0  0.10408957076E+02 -0.77752652724E+01 -0.97515712112E+00  0.13149517021E+02  0.17770000000E+01 0. -1.
</event>
<event>
 6    1  0.8353910E-003  0.1848754E+03  0.7546771E-02  0.1066580E+00
        -11   -1    0    0    0    0  0.00000000000E+00  0.00000000000E+00  0.18250000000E+03  0.18250000000E+03  0.00000000000E+00 0. -1.
         11   -1    0    0    0    0 -0.00000000000E+00 -0.00000000000E+00 -0.18250000000E+03  0.18250000000E+03  0.00000000000E+00 0. -1.
        -11    1    1    2    0    0 -0.22764506199E+00  0.34428749938E+01  0.18009150817E+03  0.18012455836E+03  0.00000000000E+00 0. -1.
         11    1    1    2    0    0 -0.49554524700E+00  0.31290782303E+01 -0.16160823838E+03  0.16163928795E+03  0.00000000000E+00 0. -1.
        -15    1    1    2    0    0  0.30297075191E+01  0.89471264204E-01 -0.15301103774E+00  0.35168557173E+01  0.17770000000E+01 0.  1.
         15    1    1    2    0    0 -0.23065172101E+01 -0.66614244884E+01 -0.18330258748E+02  0.19719297975E+02  0.17770000000E+01 0. -1.
</event>
<event>
 6    1  0.8353910E-003  0.1829945E+03  0.7546771E-02  0.1068062E+00
        -11   -1    0    0    0    0  0.00000000000E+00  0.00000000000E+00  0.18250000000E+03  0.18250000000E+03  0.00000000000E+00 0. -1.
         11   -1    0    0    0    0 -0.00000000000E+00 -0.00000000000E+00 -0.18250000000E+03  0.18250000000E+03  0.00000000000E+00 0.  1.
        -11    1    1    2    0    0 -0.18112873574E+01 -0.42279754276E+01  0.16058136593E+03  0.16064722724E+03  0.00000000000E+00 0. -1.
         11    1    1    2    0    0 -0.13779605261E+01  0.34259947324E+01 -0.18196800071E+03  0.18200546557E+03  0.00000000000E+00 0.  1.
        -15    1    1    2    0    0 -0.29004013449E+00  0.16697012390E+01  0.72138535938E+01  0.76203305820E+01  0.17770000000E+01 0. -1.
         15    1    1    2    0    0  0.34792880180E+01 -0.86772054378E+00  0.14172781192E+02  0.14726976600E+02  0.17770000000E+01 0.  1.
</event>
<event>
 6    1  0.8353910E-003  0.1856589E+03  0.7546771E-02  0.1065968E+00
        -11   -1    0    0    0    0  0.00000000000E+00  0.00000000000E+00  0.18250000000E+03  0.18250000000E+03  0.00000000000E+00 0. -1.
         11   -1    0    0    0    0 -0.00000000000E+00 -0.00000000000E+00 -0.18250000000E+03  0.18250000000E+03  0.00000000000E+00 0.  1.
        -11    1    1    2    0    0 -0.23629896394E+01  0.84212194501E+00  0.17932350515E+03  0.17934105049E+03  0.00000000000E+00 0. -1.
         11    1    1    2    0    0  0.11000737043E+01 -0.80864678837E+01 -0.17099894353E+03  0.17119357410E+03  0.00000000000E+00 0.  1.
        -15    1    1    2    0    0  0.45969347578E+01  0.19911525806E+01 -0.43766240896E+01  0.68854241110E+01  0.17770000000E+01 0. -1.
         15    1    1    2    0    0 -0.33340188227E+01  0.52531933580E+01 -0.39479375348E+01  0.75799513023E+01  0.17770000000E+01 0.  1.
</event>
<event>
 6    1  0.8353910E-003  0.1830550E+03  0.7546771E-02  0.1068014E+00
        -11   -1    0    0    0    0  0.00000000000E+00  0.00000000000E+00  0.18250000000E+03  0.18250000000E+03  0.00000000000E+00 0. -1.
         11   -1    0    0    0    0 -0.00000000000E+00 -0.00000000000E+00 -0.18250000000E+03  0.18250000000E+03  0.00000000000E+00 0.  1.
        -11    1    1    2    0    0  0.33802546275E+01 -0.27398488480E+01  0.13877667838E+03  0.13884487515E+03  0.00000000000E+00 0. -1.
         11    1    1    2    0    0  0.24032180345E+01 -0.77349168718E+00 -0.18192749895E+03  0.18194501538E+03  0.00000000000E+00 0.  1.
        -15    1    1    2    0    0 -0.61650213957E+01  0.41152905717E+01  0.31936964643E+02  0.32833984603E+02  0.17770000000E+01 0.  1.
         15    1    1    2    0    0  0.38154873375E+00 -0.60195003658E+00  0.11213855926E+02  0.11376124868E+02  0.17770000000E+01 0. -1.
</event>
<event>
 6    1  0.8353910E-003  0.1828850E+03  0.7546771E-02  0.1068149E+00
        -11   -1    0    0    0    0  0.00000000000E+00  0.00000000000E+00  0.18250000000E+03  0.18250000000E+03  0.00000000000E+00 0. -1.
         11   -1    0    0    0    0 -0.00000000000E+00 -0.00000000000E+00 -0.18250000000E+03  0.18250000000E+03  0.00000000000E+00 0.  1.
        -11    1    1    2    0    0 -0.31049684134E+00 -0.11089099623E+01  0.38819468178E+02  0.38836544635E+02  0.00000000000E+00 0. -1.
         11    1    1    2    0    0  0.10159841294E+01  0.54702335206E+01 -0.18202995517E+03  0.18211496440E+03  0.00000000000E+00 0.  1.
        -15    1    1    2    0    0 -0.26267475423E+01 -0.24436334651E+01  0.96362239055E+01  0.10434830488E+02  0.17770000000E+01 0.  1.
         15    1    1    2    0    0  0.19212602542E+01 -0.19176900932E+01  0.13357426309E+03  0.13361366047E+03  0.17770000000E+01 0. -1.
</event>
<event>
 6    1  0.8353910E-003  0.1833205E+03  0.7546771E-02  0.1067804E+00
        -11   -1    0    0    0    0  0.00000000000E+00  0.00000000000E+00  0.18250000000E+03  0.18250000000E+03  0.00000000000E+00 0.  1.
         11   -1    0    0    0    0 -0.00000000000E+00 -0.00000000000E+00 -0.18250000000E+03  0.18250000000E+03  0.00000000000E+00 0.  1.
        -11    1    1    2    0    0 -0.11099936572E+01  0.25990868678E+01  0.15969856698E+03  0.15972357256E+03  0.00000000000E+00 0.  1.
         11    1    1    2    0    0  0.24024157014E+01  0.18091237040E+01 -0.18165459679E+03  0.18167948994E+03  0.00000000000E+00 0.  1.
        -15    1    1    2    0    0  0.18051458745E+01 -0.36733832902E+01  0.16027637391E+02  0.16637162792E+02  0.17770000000E+01 0.  1.
         15    1    1    2    0    0 -0.30975679188E+01 -0.73482728162E+00  0.59283924267E+01  0.69597747026E+01  0.17770000000E+01 0. -1.
</event>
<event>
 6    1  0.8353910E-003  0.1864098E+03  0.7546771E-02  0.1065385E+00
        -11   -1    0    0    0    0  0.00000000000E+00  0.00000000000E+00  0.18250000000E+03  0.18250000000E+03  0.00000000000E+00 0.  1.
         11   -1    0    0    0    0 -0.00000000000E+00 -0.00000000000E+00 -0.18250000000E+03  0.18250000000E+03  0.00000000000E+00 0. -1.
        -11    1    1    2    0    0  0.53215928854E+01  0.55948858417E+01  0.15799848229E+03  0.15818704910E+03  0.00000000000E+00 0.  1.
         11    1    1    2    0    0  0.29508202344E+01  0.53428497155E+00 -0.17856500566E+03  0.17859018463E+03  0.00000000000E+00 0. -1.
        -15    1    1    2    0    0 -0.45369036984E+01 -0.51545992685E+01 -0.13018161904E+00  0.70942275859E+01  0.17770000000E+01 0. -1.
         15    1    1    2    0    0 -0.37355094214E+01 -0.97457154473E+00  0.20696704992E+02  0.21128538683E+02  0.17770000000E+01 0. -1.
</event>
<event>
 6    1  0.8353910E-003  0.1894996E+03  0.7546771E-02  0.1063016E+00
        -11   -1    0    0    0    0  0.00000000000E+00  0.00000000000E+00  0.18250000000E+03  0.18250000000E+03  0.00000000000E+00 0. -1.
         11   -1    0    0    0    0 -0.00000000000E+00 -0.00000000000E+00 -0.18250000000E+03  0.18250000000E+03  0.00000000000E+00 0.  1.
        -11    1    1    2    0    0 -0.23037214539E+01 -0.97229281679E+01  0.17521572578E+03  0.17550040748E+03  0.00000000000E+00 0. -1.
         11    1    1    2    0    0  0.17896952398E+01  0.11244806060E+01 -0.15163031921E+03  0.15164504993E+03  0.00000000000E+00 0.  1.
        -15    1    1    2    0    0 -0.33209546498E+01  0.17813435677E+02 -0.96059471046E+01  0.20585897580E+02  0.17770000000E+01 0. -1.
         15    1    1    2    0    0  0.38349808639E+01 -0.92149881152E+01 -0.13979459472E+02  0.17268645005E+02  0.17770000000E+01 0.  1.
</event>
<event>
 6    1  0.8353910E-003  0.1828973E+03  0.7546771E-02  0.1068139E+00
        -11   -1    0    0    0    0  0.00000000000E+00  0.00000000000E+00  0.18250000000E+03  0.18250000000E+03  0.00000000000E+00 0.  1.
         11   -1    0    0    0    0 -0.00000000000E+00 -0.00000000000E+00 -0.18250000000E+03  0.18250000000E+03  0.00000000000E+00 0. -1.
        -11    1    1    2    0    0 -0.12041972925E+01 -0.99102517415E+00  0.10126406529E+03  0.10127607388E+03  0.00000000000E+00 0.  1.
         11    1    1    2    0    0 -0.17772156814E+01  0.47455869689E+01 -0.18203219454E+03  0.18210271536E+03  0.00000000000E+00 0. -1.
        -15    1    1    2    0    0  0.37449519510E+01 -0.59911480074E+01  0.34609713881E+02  0.35368185471E+02  0.17770000000E+01 0. -1.
         15    1    1    2    0    0 -0.76353897709E+00  0.22365862127E+01  0.46158415370E+02  0.46253025286E+02  0.17770000000E+01 0. -1.
</event>
<event>
 6    1  0.8353910E-003  0.1849424E+03  0.7546771E-02  0.1066527E+00
        -11   -1    0    0    0    0  0.00000000000E+00  0.00000000000E+00  0.18250000000E+03  0.18250000000E+03  0.00000000000E+00 0.  1.
         11   -1    0    0    0    0 -0.00000000000E+00 -0.00000000000E+00 -0.18250000000E+03  0.18250000000E+03  0.00000000000E+00 0.  1.
        -11    1    1    2    0    0 -0.96322584937E+00  0.50968384798E+01  0.17998288977E+03  0.18005761905E+03  0.00000000000E+00 0.  1.
         11    1    1    2    0    0  0.11498495316E+01 -0.38388033360E+01 -0.15321783732E+03  0.15327023272E+03  0.00000000000E+00 0.  1.
        -15    1    1    2    0    0  0.17146273548E+01 -0.65895068920E+01 -0.24211171481E+02  0.25213093851E+02  0.17770000000E+01 0. -1.
         15    1    1    2    0    0 -0.19012510371E+01  0.53314717481E+01 -0.25538809647E+01  0.64590543803E+01  0.17770000000E+01 0.  1.
</event>
<event>
 6    1  0.8353910E-003  0.1795073E+03  0.7546771E-02  0.1070862E+00
        -11   -1    0    0    0    0  0.00000000000E+00  0.00000000000E+00  0.18250000000E+03  0.18250000000E+03  0.00000000000E+00 0. -1.
         11   -1    0    0    0    0 -0.00000000000E+00 -0.00000000000E+00 -0.18250000000E+03  0.18250000000E+03  0.00000000000E+00 0. -1.
        -11    1    1    2    0    0  0.31958438812E+01  0.15061596481E+01  0.51584354039E+01  0.62523108380E+01  0.00000000000E+00 0. -1.
         11    1    1    2    0    0  0.13441813577E+01 -0.35067464293E+01 -0.18173579893E+03  0.18177459863E+03  0.00000000000E+00 0. -1.
        -15    1    1    2    0    0 -0.49129314892E+01 -0.32999147103E+01  0.10037368171E+03  0.10056371135E+03  0.17770000000E+01 0. -1.
         15    1    1    2    0    0  0.37290625026E+00  0.53005014916E+01  0.76203681819E+02  0.76409379181E+02  0.17770000000E+01 0.  1.
</event>
<event>
 6    1  0.8353910E-003  0.1831786E+03  0.7546771E-02  0.1067916E+00
        -11   -1    0    0    0    0  0.00000000000E+00  0.00000000000E+00  0.18250000000E+03  0.18250000000E+03  0.00000000000E+00 0. -1.
         11   -1    0    0    0    0 -0.00000000000E+00 -0.00000000000E+00 -0.18250000000E+03  0.18250000000E+03  0.00000000000E+00 0. -1.
        -11    1    1    2    0    0 -0.42364299959E+01  0.74372834991E+00  0.16942659527E+03  0.16948118378E+03  0.00000000000E+00 0. -1.
         11    1    1    2    0    0  0.17129447701E+01 -0.23789765462E+01 -0.18179777894E+03  0.18182141275E+03  0.00000000000E+00 0. -1.
        -15    1    1    2    0    0 -0.24100834019E+00  0.11328900110E+01  0.24849044879E+01  0.32671094428E+01  0.17770000000E+01 0. -1.
         15    1    1    2    0    0  0.27644935660E+01  0.50235818524E+00  0.98862791785E+01  0.10430294024E+02  0.17770000000E+01 0.  1.
</event>
<event>
 6    1  0.8353910E-003  0.1825646E+03  0.7546771E-02  0.1068403E+00
        -11   -1    0    0    0    0  0.00000000000E+00  0.00000000000E+00  0.18250000000E+03  0.18250000000E+03  0.00000000000E+00 0.  1.
         11   -1    0    0    0    0 -0.00000000000E+00 -0.00000000000E+00 -0.18250000000E+03  0.18250000000E+03  0.00000000000E+00 0.  1.
        -11    1    1    2    0    0  0.12285403128E+01  0.22992261797E+01  0.18241679094E+03  0.18243541698E+03  0.00000000000E+00 0.  1.
         11    1    1    2    0    0 -0.12797677712E+01 -0.61111585236E-01 -0.43871363105E+02  0.43890067679E+02  0.00000000000E+00 0.  1.
        -15    1    1    2    0    0  0.32683330158E+00 -0.12057209502E+01 -0.21243919887E+02  0.21354682021E+02  0.17770000000E+01 0.  1.
         15    1    1    2    0    0 -0.27560584323E+00 -0.10323936443E+01 -0.11730150795E+03  0.11731983332E+03  0.17770000000E+01 0.  1.
</event>
<event>
 6    1  0.8353910E-003  0.1366598E+03  0.7546771E-02  0.1112233E+00
        -11   -1    0    0    0    0  0.00000000000E+00  0.00000000000E+00  0.18250000000E+03  0.18250000000E+03  0.00000000000E+00 0. -1.
         11   -1    0    0    0    0 -0.00000000000E+00 -0.00000000000E+00 -0.18250000000E+03  0.18250000000E+03  0.00000000000E+00 0.  1.
        -11    1    1    2    0    0 -0.19115150006E+02  0.15794047695E+02  0.14764995754E+03  0.14971757033E+03  0.00000000000E+00 0. -1.
         11    1    1    2    0    0 -0.28062075172E+02  0.11146303905E+02 -0.12621085830E+03  0.12977249673E+03  0.00000000000E+00 0.  1.
        -15    1    1    2    0    0  0.80024607261E+01 -0.47363112949E+01  0.21357526371E+02  0.23361799675E+02  0.17770000000E+01 0. -1.
         15    1    1    2    0    0  0.39174764452E+02 -0.22204040305E+02 -0.42796625611E+02  0.62148133266E+02  0.17770000000E+01 0.  1.
</event>
<event>
 6    1  0.8353910E-003  0.1837785E+03  0.7546771E-02  0.1067442E+00
        -11   -1    0    0    0    0  0.00000000000E+00  0.00000000000E+00  0.18250000000E+03  0.18250000000E+03  0.00000000000E+00 0. -1.
         11   -1    0    0    0    0 -0.00000000000E+00 -0.00000000000E+00 -0.18250000000E+03  0.18250000000E+03  0.00000000000E+00 0. -1.
        -11    1    1    2    0    0  0.21577068390E+00  0.29697909143E+01  0.18119698907E+03  0.18122145310E+03  0.00000000000E+00 0. -1.
         11    1    1    2    0    0 -0.24900276414E+01 -0.24050346208E+01 -0.12290193668E+03  0.12295068308E+03  0.00000000000E+00 0. -1.
        -15    1    1    2    0    0  0.30231662156E+01 -0.56031147373E+01 -0.52484283368E+02  0.52898886173E+02  0.17770000000E+01 0.  1.
         15    1    1    2    0    0 -0.74890925801E+00  0.50383584437E+01 -0.58107690242E+01  0.79289776477E+01  0.17770000000E+01 0. -1.
</event>
<event>
 6    1  0.8353910E-003  0.1465932E+03  0.7546771E-02  0.1101280E+00
        -11   -1    0    0    0    0  0.00000000000E+00  0.00000000000E+00  0.18250000000E+03  0.18250000000E+03  0.00000000000E+00 0.  1.
         11   -1    0    0    0    0 -0.00000000000E+00 -0.00000000000E+00 -0.18250000000E+03  0.18250000000E+03  0.00000000000E+00 0.  1.
        -11    1    1    2    0    0  0.68529519360E+01 -0.21664001068E+02  0.14202006046E+03  0.14382624748E+03  0.00000000000E+00 0.  1.
         11    1    1    2    0    0  0.25373442179E+02 -0.12115277439E+02 -0.15057447181E+03  0.15317722767E+03  0.00000000000E+00 0.  1.
        -15    1    1    2    0    0 -0.71001059546E+01  0.32826186113E+02  0.21239666865E+02  0.39777520999E+02  0.17770000000E+01 0.  1.
         15    1    1    2    0    0 -0.25126288161E+02  0.95309239398E+00 -0.12685255506E+02  0.28219003847E+02  0.17770000000E+01 0. -1.
</event>
<event>
 6    1  0.8353910E-003  0.1838564E+03  0.7546771E-02  0.1067380E+00
        -11   -1    0    0    0    0  0.00000000000E+00  0.00000000000E+00  0.18250000000E+03  0.18250000000E+03  0.00000000000E+00 0. -1.
         11   -1    0    0    0    0 -0.00000000000E+00 -0.00000000000E+00 -0.18250000000E+03  0.18250000000E+03  0.00000000000E+00 0.  1.
        -11    1    1    2    0    0  0.23945975100E+01 -0.14468871316E+01  0.18112196288E+03  0.18114357018E+03  0.00000000000E+00 0. -1.
         11    1    1    2    0    0 -0.47302895995E+00 -0.26644006663E+01 -0.16669688660E+03  0.16671884953E+03  0.00000000000E+00 0.  1.
        -15    1    1    2    0    0  0.17496076064E+01  0.68214982138E+00 -0.96235774671E+01  0.99648094523E+01  0.17770000000E+01 0. -1.
         15    1    1    2    0    0 -0.36711761565E+01  0.34291379765E+01 -0.48014988105E+01  0.71727708357E+01  0.17770000000E+01 0.  1.
</event>
<event>
 6    1  0.8353910E-003  0.1835504E+03  0.7546771E-02  0.1067622E+00
        -11   -1    0    0    0    0  0.00000000000E+00  0.00000000000E+00  0.18250000000E+03  0.18250000000E+03  0.00000000000E+00 0. -1.
         11   -1    0    0    0    0 -0.00000000000E+00 -0.00000000000E+00 -0.18250000000E+03  0.18250000000E+03  0.00000000000E+00 0. -1.
        -11    1    1    2    0    0  0.10227394734E+02  0.37723079278E+01  0.18112182347E+03  0.18144956557E+03  0.00000000000E+00 0. -1.
         11    1    1    2    0    0 -0.72480540563E+00 -0.18523912471E+01 -0.31433337587E+02  0.31496212599E+02  0.00000000000E+00 0. -1.
        -15    1    1    2    0    0  0.51419358191E+01 -0.63178670232E+00 -0.10136299640E+03  0.10151085374E+03  0.17770000000E+01 0. -1.
         15    1    1    2    0    0 -0.14644525148E+02 -0.12881299784E+01 -0.48325489478E+02  0.50543368090E+02  0.17770000000E+01 0.  1.
</event>
<event>
 6    1  0.8353910E-003  0.1909365E+03  0.7546771E-02  0.1061931E+00
        -11   -1    0    0    0    0  0.00000000000E+00  0.00000000000E+00  0.18250000000E+03  0.18250000000E+03  0.00000000000E+00 0.  1.
         11   -1    0    0    0    0 -0.00000000000E+00 -0.00000000000E+00 -0.18250000000E+03  0.18250000000E+03  0.00000000000E+00 0.  1.
        -11    1    1    2    0    0 -0.31490837715E+01  0.11719568417E+01  0.13723671469E+03  0.13727784260E+03  0.00000000000E+00 0.  1.
         11    1    1    2    0    0  0.42729969351E+01  0.54779835837E+01 -0.17392478157E+03  0.17406348397E+03  0.00000000000E+00 0.  1.
        -15    1    1    2    0    0 -0.92524088234E+01 -0.12569009456E+02  0.13763923854E+00  0.15708715457E+02  0.17770000000E+01 0.  1.
         15    1    1    2    0    0  0.81284956598E+01  0.59190690308E+01  0.36550427648E+02  0.37949957973E+02  0.17770000000E+01 0. -1.
</event>
<event>
 6    1  0.8353910E-003  0.1826836E+03  0.7546771E-02  0.1068309E+00
        -11   -1    0    0    0    0  0.00000000000E+00  0.00000000000E+00  0.18250000000E+03  0.18250000000E+03  0.00000000000E+00 0.  1.
         11   -1    0    0    0    0 -0.00000000000E+00 -0.00000000000E+00 -0.18250000000E+03  0.18250000000E+03  0.00000000000E+00 0.  1.
        -11    1    1    2    0    0  0.46892882322E+00  0.35049272245E+01  0.45000473293E+02  0.45139195891E+02  0.00000000000E+00 0.  1.
         11    1    1    2    0    0 -0.91139224609E+00 -0.84407477553E+01 -0.18211867083E+03  0.18231644776E+03  0.00000000000E+00 0.  1.
        -15    1    1    2    0    0 -0.99653600518E+00  0.83245565117E+00  0.11002079756E+03  0.11004280845E+03  0.17770000000E+01 0.  1.
         15    1    1    2    0    0  0.14389994281E+01  0.41033648796E+01  0.27097399971E+02  0.27501547899E+02  0.17770000000E+01 0. -1.
</event>
<event>
 6    1  0.8353910E-003  0.1835305E+03  0.7546771E-02  0.1067638E+00
        -11   -1    0    0    0    0  0.00000000000E+00  0.00000000000E+00  0.18250000000E+03  0.18250000000E+03  0.00000000000E+00 0.  1.
         11   -1    0    0    0    0 -0.00000000000E+00 -0.00000000000E+00 -0.18250000000E+03  0.18250000000E+03  0.00000000000E+00 0. -1.
        -11    1    1    2    0    0 -0.33484202348E+01 -0.90924204205E+00  0.18143637672E+03  0.18146954961E+03  0.00000000000E+00 0.  1.
         11    1    1    2    0    0  0.33509869873E+01  0.36589267805E+01 -0.15880003288E+03  0.15887752296E+03  0.00000000000E+00 0. -1.
        -15    1    1    2    0    0  0.36485143146E+01 -0.37445857108E+01 -0.14245449792E+02  0.15278224623E+02  0.17770000000E+01 0.  1.
         15    1    1    2    0    0 -0.36510810671E+01  0.99490097232E+00 -0.83908940429E+01  0.93747028083E+01  0.17770000000E+01 0.  1.
</event>
<event>
 6    1  0.8353910E-003  0.2055318E+03  0.7546771E-02  0.1051469E+00
        -11   -1    0    0    0    0  0.00000000000E+00  0.00000000000E+00  0.18250000000E+03  0.18250000000E+03  0.00000000000E+00 0.  1.
         11   -1    0    0    0    0 -0.00000000000E+00 -0.00000000000E+00 -0.18250000000E+03  0.18250000000E+03  0.00000000000E+00 0.  1.
        -11    1    1    2    0    0 -0.65051080278E+01 -0.38603957151E+01  0.98441879492E+02  0.98732075454E+02  0.00000000000E+00 0.  1.
         11    1    1    2    0    0 -0.45534461939E+01 -0.11034277921E+02 -0.15902078399E+03  0.15946817521E+03  0.00000000000E+00 0.  1.
        -15    1    1    2    0    0  0.83261912548E+01  0.44300949145E+01 -0.21734856625E+02  0.23759480703E+02  0.17770000000E+01 0.  1.
         15    1    1    2    0    0  0.27323629668E+01  0.10464578721E+02  0.82313761128E+02  0.83040268636E+02  0.17770000000E+01 0. -1.
</event>
<event>
 6    1  0.8353910E-003  0.1836140E+03  0.7546771E-02  0.1067571E+00
        -11   -1    0    0    0    0  0.00000000000E+00  0.00000000000E+00  0.18250000000E+03  0.18250000000E+03  0.00000000000E+00 0. -1.
         11   -1    0    0    0    0 -0.00000000000E+00 -0.00000000000E+00 -0.18250000000E+03  0.18250000000E+03  0.00000000000E+00 0.  1.
        -11    1    1    2    0    0 -0.19342488169E+01 -0.25346606629E+01  0.18135795660E+03  0.18138598139E+03  0.00000000000E+00 0. -1.
         11    1    1    2    0    0  0.11620744582E+01  0.55721983519E+01 -0.11047658773E+03  0.11062312709E+03  0.00000000000E+00 0.  1.
        -15    1    1    2    0    0 -0.16299129595E+01 -0.51482321693E+01 -0.68245677899E+02  0.68482050142E+02  0.17770000000E+01 0.  1.
         15    1    1    2    0    0  0.24020873182E+01  0.21106944803E+01 -0.26356909730E+01  0.45088413787E+01  0.17770000000E+01 0.  1.
</event>
<event>
 6    1  0.8353910E-003  0.1848936E+03  0.7546771E-02  0.1066565E+00
        -11   -1    0    0    0    0  0.00000000000E+00  0.00000000000E+00  0.18250000000E+03  0.18250000000E+03  0.00000000000E+00 0.  1.
         11   -1    0    0    0    0 -0.00000000000E+00 -0.00000000000E+00 -0.18250000000E+03  0.18250000000E+03  0.00000000000E+00 0. -1.
        -11    1    1    2    0    0  0.13830364335E+01  0.42570528307E+01  0.14699144674E+03  0.14705958215E+03  0.00000000000E+00 0.  1.
         11    1    1    2    0    0 -0.44079142556E+00  0.88254339857E+01 -0.17988946805E+03  0.18010636663E+03  0.00000000000E+00 0. -1.
        -15    1    1    2    0    0 -0.20288063650E+00 -0.48725342925E+01  0.16171504701E+01  0.54365113471E+01  0.17770000000E+01 0.  1.
         15    1    1    2    0    0 -0.73936437141E+00 -0.82099525239E+01  0.31280870847E+02  0.32397539877E+02  0.17770000000E+01 0. -1.
</event>
<event>
 6    1  0.8353910E-003  0.1697226E+03  0.7546771E-02  0.1079106E+00
        -11   -1    0    0    0    0  0.00000000000E+00  0.00000000000E+00  0.18250000000E+03  0.18250000000E+03  0.00000000000E+00 0. -1.
         11   -1    0    0    0    0 -0.00000000000E+00 -0.00000000000E+00 -0.18250000000E+03  0.18250000000E+03  0.00000000000E+00 0.  1.
        -11    1    1    2    0    0 -0.23062516886E+01  0.19071007269E+01  0.17004952299E+03  0.17007585396E+03  0.00000000000E+00 0. -1.
         11    1    1    2    0    0  0.42828700836E+01 -0.84912635051E+01 -0.16917304140E+03  0.16944014420E+03  0.00000000000E+00 0.  1.
        -15    1    1    2    0    0  0.10733769197E+02  0.10261402952E+01 -0.30130624283E+01  0.11335918105E+02  0.17770000000E+01 0. -1.
         15    1    1    2    0    0 -0.12710387592E+02  0.55580224830E+01  0.21365808378E+01  0.14148083734E+02  0.17770000000E+01 0.  1.
</event>
<event>
 6    1  0.8353910E-003  0.1662388E+03  0.7546771E-02  0.1082190E+00
        -11   -1    0    0    0    0  0.00000000000E+00  0.00000000000E+00  0.18250000000E+03  0.18250000000E+03  0.00000000000E+00 0. -1.
         11   -1    0    0    0    0 -0.00000000000E+00 -0.00000000000E+00 -0.18250000000E+03  0.18250000000E+03  0.00000000000E+00 0. -1.
        -11    1    1    2    0    0  0.29698549704E+01 -0.40255779367E+01  0.16991274177E+03  0.16998636749E+03  0.00000000000E+00 0. -1.
         11    1    1    2    0    0 -0.15485421159E+02  0.45375020892E+01 -0.16201905542E+03  0.16282064215E+03  0.00000000000E+00 0. -1.
        -15    1    1    2    0    0  0.20680897780E+02  0.37531885209E+01 -0.86110344221E+01  0.22783625697E+02  0.17770000000E+01 0.  1.
         15    1    1    2    0    0 -0.81653315913E+01 -0.42651126734E+01  0.71734807061E+00  0.94093646633E+01  0.17770000000E+01 0. -1.
</event>
<event>
 6    1  0.1254471E-002  0.1835992E+03  0.7546771E-02  0.1067583E+00
        -11   -1    0    0    0    0  0.00000000000E+00  0.00000000000E+00  0.18250000000E+03  0.18250000000E+03  0.00000000000E+00 0.  1.
         11   -1    0    0    0    0 -0.00000000000E+00 -0.00000000000E+00 -0.18250000000E+03  0.18250000000E+03  0.00000000000E+00 0.  1.
        -11    1    1    2    0    0  0.16797047721E+01  0.14448274613E+01  0.16207677779E+03  0.16209192094E+03  0.00000000000E+00 0.  1.
         11    1    1    2    0    0  0.13968206007E+01 -0.50297736260E+01 -0.18132567514E+03  0.18140079987E+03  0.00000000000E+00 0.  1.
        -15    1    1    2    0    0 -0.24311942670E+01 -0.73972302954E+00  0.14439801189E+02  0.14769004133E+02  0.17770000000E+01 0.  1.
         15    1    1    2    0    0 -0.64533110581E+00  0.43246691942E+01  0.48090961566E+01  0.67382750552E+01  0.17770000000E+01 0.  1.
</event>
<event>
 6    1  0.8353910E-003  0.1828425E+03  0.7546771E-02  0.1068182E+00
        -11   -1    0    0    0    0  0.00000000000E+00  0.00000000000E+00  0.18250000000E+03  0.18250000000E+03  0.00000000000E+00 0.  1.
         11   -1    0    0    0    0 -0.00000000000E+00 -0.00000000000E+00 -0.18250000000E+03  0.18250000000E+03  0.00000000000E+00 0. -1.
        -11    1    1    2    0    0  0.82935278470E+00 -0.19576931510E+01  0.12636289506E+03  0.12638078032E+03  0.00000000000E+00 0.  1.
         11    1    1    2    0    0  0.39212174969E+01  0.31703736862E+01 -0.18208765638E+03  0.18215746436E+03  0.00000000000E+00 0. -1.
        -15    1    1    2    0    0 -0.46958804123E+01 -0.35480110898E+01  0.38928293994E+02  0.39410778701E+02  0.17770000000E+01 0.  1.
         15    1    1    2    0    0 -0.54689869289E-01  0.23353305546E+01  0.16796467330E+02  0.17050976615E+02  0.17770000000E+01 0.  1.
</event>
<event>
 6    1  0.8353910E-003  0.1941482E+03  0.7546771E-02  0.1059543E+00
        -11   -1    0    0    0    0  0.00000000000E+00  0.00000000000E+00  0.18250000000E+03  0.18250000000E+03  0.00000000000E+00 0.  1.
         11   -1    0    0    0    0 -0.00000000000E+00 -0.00000000000E+00 -0.18250000000E+03  0.18250000000E+03  0.00000000000E+00 0. -1.
        -11    1    1    2    0    0  0.90532766291E+01 -0.11486341761E+02  0.15495684111E+03  0.15564549615E+03  0.00000000000E+00 0.  1.
         11    1    1    2    0    0  0.15601876734E+00  0.64615203855E+01 -0.17072948059E+03  0.17085178117E+03  0.00000000000E+00 0. -1.
        -15    1    1    2    0    0 -0.35179540022E+01 -0.12520357127E+02 -0.14481990141E+01  0.13205693936E+02  0.17770000000E+01 0. -1.
         15    1    1    2    0    0 -0.56913413942E+01  0.17545178502E+02  0.17220838492E+02  0.25297028736E+02  0.17770000000E+01 0.  1.
</event>
<event>
 6    1  0.8353910E-003  0.1831789E+03  0.7546771E-02  0.1067916E+00
        -11   -1    0    0    0    0  0.00000000000E+00  0.00000000000E+00  0.18250000000E+03  0.18250000000E+03  0.00000000000E+00 0. -1.
         11   -1    0    0    0    0 -0.00000000000E+00 -0.00000000000E+00 -0.18250000000E+03  0.18250000000E+03  0.00000000000E+00 0.  1.
        -11    1    1    2    0    0  0.10821376549E+01 -0.64704636735E+00  0.37898742438E+02  0.37919709509E+02  0.00000000000E+00 0. -1.
         11    1    1    2    0    0 -0.96505153521E+00 -0.28732887382E+01 -0.18179586693E+03  0.18182113283E+03  0.00000000000E+00 0.  1.
        -15    1    1    2    0    0 -0.27835159070E+01  0.78542088212E+00  0.37867910574E+01  0.50855051154E+01  0.17770000000E+01 0.  1.
         15    1    1    2    0    0  0.26664297873E+01  0.27349142234E+01  0.14011033343E+03  0.14017365254E+03  0.17770000000E+01 0. -1.
</event>
<event>
 6    1  0.8353910E-003  0.1826297E+03  0.7546771E-02  0.1068352E+00
        -11   -1    0    0    0    0  0.00000000000E+00  0.00000000000E+00  0.18250000000E+03  0.18250000000E+03  0.00000000000E+00 0.  1.
         11   -1    0    0    0    0 -0.00000000000E+00 -0.00000000000E+00 -0.18250000000E+03  0.18250000000E+03  0.00000000000E+00 0.  1.
        -11    1    1    2    0    0  0.36875661253E+01 -0.14830276850E+01  0.18232694464E+03  0.18237026144E+03  0.00000000000E+00 0.  1.
         11    1    1    2    0    0  0.23643189588E+01  0.75018572758E+00 -0.67709744983E+02  0.67755164736E+02  0.00000000000E+00 0.  1.
        -15    1    1    2    0    0 -0.17959566545E+01  0.75666000203E-01 -0.22886432901E+02  0.23025588496E+02  0.17770000000E+01 0.  1.
         15    1    1    2    0    0 -0.42559284296E+01  0.65717595725E+00 -0.91730766758E+02  0.91848985329E+02  0.17770000000E+01 0. -1.
</event>
<event>
 6    1  0.8353910E-003  0.1856665E+03  0.7546771E-02  0.1065962E+00
        -11   -1    0    0    0    0  0.00000000000E+00  0.00000000000E+00  0.18250000000E+03  0.18250000000E+03  0.00000000000E+00 0. -1.
         11   -1    0    0    0    0 -0.00000000000E+00 -0.00000000000E+00 -0.18250000000E+03  0.18250000000E+03  0.00000000000E+00 0. -1.
        -11    1    1    2    0    0  0.21445765653E+00 -0.36903376183E+01  0.17805968469E+03  0.17809805136E+03  0.00000000000E+00 0. -1.
         11    1    1    2    0    0  0.15685891756E+01  0.33127606693E+01 -0.17929604410E+03  0.17933350575E+03  0.00000000000E+00 0. -1.
        -15    1    1    2    0    0 -0.17747071754E+01  0.31296839794E+01  0.14952087055E+01  0.42822757317E+01  0.17770000000E+01 0.  1.
         15    1    1    2    0    0 -0.83396568145E-02 -0.27521070304E+01 -0.25884929864E+00  0.32861671619E+01  0.17770000000E+01 0.  1.
</event>
<event>
 6    1  0.8353910E-003  0.1838267E+03  0.7546771E-02  0.1067404E+00
        -11   -1    0    0    0    0  0.00000000000E+00  0.00000000000E+00  0.18250000000E+03  0.18250000000E+03  0.00000000000E+00 0. -1.
         11   -1    0    0    0    0 -0.00000000000E+00 -0.00000000000E+00 -0.18250000000E+03  0.18250000000E+03  0.00000000000E+00 0. -1.
        -11    1    1    2    0    0  0.62485268703E+00 -0.29593250813E+01  0.18114801361E+03  0.18117326205E+03  0.00000000000E+00 0. -1.
         11    1    1    2    0    0 -0.23587761559E+01 -0.57120341237E+00 -0.16567358910E+03  0.16569136436E+03  0.00000000000E+00 0. -1.
        -15    1    1    2    0    0  0.47654627726E+01  0.12890725473E+01 -0.94655519533E+01  0.10822464888E+02  0.17770000000E+01 0. -1.
         15    1    1    2    0    0 -0.30315393038E+01  0.22414559464E+01 -0.60088725574E+01  0.73129087045E+01  0.17770000000E+01 0.  1.
</event>
<event>
 6    1  0.8353910E-003  0.1850988E+03  0.7546771E-02  0.1066405E+00
        -11   -1    0    0    0    0  0.00000000000E+00  0.00000000000E+00  0.18250000000E+03  0.18250000000E+03  0.00000000000E+00 0. -1.
         11   -1    0    0    0    0 -0.00000000000E+00 -0.00000000000E+00 -0.18250000000E+03  0.18250000000E+03  0.00000000000E+00 0. -1.
        -11    1    1    2    0    0 -0.38016976784E+01  0.21821615645E+01  0.17984775969E+03  0.17990117120E+03  0.00000000000E+00 0. -1.
         11    1    1    2    0    0 -0.22579560205E+01 -0.12720286255E+01 -0.17114904708E+03  0.17116866751E+03  0.00000000000E+00 0. -1.
        -15    1    1    2    0    0  0.33375139232E+01  0.22964739135E+01 -0.37938344460E+00  0.44400959923E+01  0.17770000000E+01 0.  1.
         15    1    1    2    0    0  0.27221397758E+01 -0.32066068524E+01 -0.83193291663E+01  0.94900652917E+01  0.17770000000E+01 0. -1.
</event>
<event>
 6    1  0.8353910E-003  0.1855619E+03  0.7546771E-02  0.1066043E+00
        -11   -1    0    0    0    0  0.00000000000E+00  0.00000000000E+00  0.18250000000E+03  0.18250000000E+03  0.00000000000E+00 0. -1.
         11   -1    0    0    0    0 -0.00000000000E+00 -0.00000000000E+00 -0.18250000000E+03  0.18250000000E+03  0.00000000000E+00 0. -1.
        -11    1    1    2    0    0 -0.86737160918E+00 -0.54858899470E+01  0.13422024980E+03  0.13433511372E+03  0.00000000000E+00 0. -1.
         11    1    1    2    0    0 -0.80708669232E+01 -0.61965111350E+01 -0.17914936591E+03  0.17943809782E+03  0.00000000000E+00 0. -1.
        -15    1    1    2    0    0 -0.61759833922E+01  0.36106692798E+01  0.14149414004E+02  0.15954414723E+02  0.17770000000E+01 0.  1.
         15    1    1    2    0    0  0.15114221925E+02  0.80717318022E+01  0.30779702105E+02  0.35272373741E+02  0.17770000000E+01 0. -1.
</event>
<event>
 6    1  0.8353910E-003  0.1831939E+03  0.7546771E-02  0.1067904E+00
        -11   -1    0    0    0    0  0.00000000000E+00  0.00000000000E+00  0.18250000000E+03  0.18250000000E+03  0.00000000000E+00 0.  1.
         11   -1    0    0    0    0 -0.00000000000E+00 -0.00000000000E+00 -0.18250000000E+03  0.18250000000E+03  0.00000000000E+00 0. -1.
        -11    1    1    2    0    0  0.23168033670E+01 -0.22926481249E+01  0.18177691730E+03  0.18180613707E+03  0.00000000000E+00 0.  1.
         11    1    1    2    0    0  0.27405128044E+01  0.11503127496E+01 -0.15282812627E+03  0.15285702407E+03  0.00000000000E+00 0. -1.
        -15    1    1    2    0    0 -0.49832423794E+01  0.33303733904E+01 -0.20044735278E+02  0.20996981518E+02  0.17770000000E+01 0.  1.
         15    1    1    2    0    0 -0.74073791978E-01 -0.21880380151E+01 -0.89040557518E+01  0.93398573391E+01  0.17770000000E+01 0. -1.
</event>
<event>
 6    1  0.8353910E-003  0.1628955E+03  0.7546771E-02  0.1085228E+00
        -11   -1    0    0    0    0  0.00000000000E+00  0.00000000000E+00  0.18250000000E+03  0.18250000000E+03  0.00000000000E+00 0. -1.
         11   -1    0    0    0    0 -0.00000000000E+00 -0.00000000000E+00 -0.18250000000E+03  0.18250000000E+03  0.00000000000E+00 0. -1.
        -11    1    1    2    0    0 -0.10632852782E+02  0.20252858928E+01  0.16284643896E+03  0.16320576591E+03  0.00000000000E+00 0. -1.
         11    1    1    2    0    0  0.40743840736E+01 -0.72566746384E+01 -0.16248042840E+03  0.16269342195E+03  0.00000000000E+00 0. -1.
        -15    1    1    2    0    0  0.14220073443E+01 -0.28583073709E+01  0.17968889155E+02  0.18336595441E+02  0.17770000000E+01 0.  1.
         15    1    1    2    0    0  0.51364613644E+01  0.80896961165E+01 -0.18334899716E+02  0.20764216701E+02  0.17770000000E+01 0. -1.
</event>
<event>
 6    1  0.8353910E-003  0.1826092E+03  0.7546771E-02  0.1068368E+00
        -11   -1    0    0    0    0  0.00000000000E+00  0.00000000000E+00  0.18250000000E+03  0.18250000000E+03  0.00000000000E+00 0. -1.
         11   -1    0    0    0    0 -0.00000000000E+00 -0.00000000000E+00 -0.18250000000E+03  0.18250000000E+03  0.00000000000E+00 0.  1.
        -11    1    1    2    0    0 -0.11127552671E+01 -0.11726371973E+00  0.70856900061E+02  0.70865734042E+02  0.00000000000E+00 0. -1.
         11    1    1    2    0    0 -0.14218623962E+01 -0.21724458344E+01 -0.18237228120E+03  0.18239076227E+03  0.00000000000E+00 0.  1.
        -15    1    1    2    0    0  0.29158644169E+01  0.34496786350E+01  0.86161468037E+02  0.86298081388E+02  0.17770000000E+01 0. -1.
         15    1    1    2    0    0 -0.38124675363E+00 -0.11599690808E+01  0.25353913100E+02  0.25445422296E+02  0.17770000000E+01 0. -1.
</event>
<event>
 6    1  0.8353910E-003  0.1874194E+03  0.7546771E-02  0.1064605E+00
        -11   -1    0    0    0    0  0.00000000000E+00  0.00000000000E+00  0.18250000000E+03  0.18250000000E+03  0.00000000000E+00 0. -1.
         11   -1    0    0    0    0 -0.00000000000E+00 -0.00000000000E+00 -0.18250000000E+03  0.18250000000E+03  0.00000000000E+00 0. -1.
        -11    1    1    2    0    0 -0.31295587327E+01 -0.23622156399E+01  0.17700882385E+03  0.17705224630E+03  0.00000000000E+00 0. -1.
         11    1    1    2    0    0  0.24366030845E+01  0.24692283329E+01 -0.17754668985E+03  0.17758057664E+03  0.00000000000E+00 0. -1.
        -15    1    1    2    0    0  0.28124304477E+01  0.15117851808E+01  0.41558724235E+01  0.55339194118E+01  0.17770000000E+01 0. -1.
         15    1    1    2    0    0 -0.21194747994E+01 -0.16187978738E+01 -0.36180064214E+01  0.48332576433E+01  0.17770000000E+01 0. -1.
</event>
<event>
 6    1  0.8353910E-003  0.1954662E+03  0.7546771E-02  0.1058578E+00
        -11   -1    0    0    0    0  0.00000000000E+00  0.00000000000E+00  0.18250000000E+03  0.18250000000E+03  0.00000000000E+00 0.  1.
         11   -1    0    0    0    0 -0.00000000000E+00 -0.00000000000E+00 -0.18250000000E+03  0.18250000000E+03  0.00000000000E+00 0. -1.
        -11    1    1    2    0    0 -0.82364323614E+00  0.24265766488E+01  0.10806884209E+03  0.10809921967E+03  0.00000000000E+00 0.  1.
         11    1    1    2    0    0 -0.56378917254E+01 -0.31164643938E+01 -0.16941138784E+03  0.16953382112E+03  0.00000000000E+00 0. -1.
        -15    1    1    2    0    0  0.52001529005E+01  0.66990663877E+01 -0.11413947237E+02  0.14330212880E+02  0.17770000000E+01 0. -1.
         15    1    1    2    0    0  0.12613820611E+01 -0.60091786426E+01  0.72756492993E+02  0.73036746329E+02  0.17770000000E+01 0.  1.
</event>
<event>
 6    1  0.8353910E-003  0.1701414E+03  0.7546771E-02  0.1078741E+00
        -11   -1    0    0    0    0  0.00000000000E+00  0.00000000000E+00  0.18250000000E+03  0.18250000000E+03  0.00000000000E+00 0.  1.
         11   -1    0    0    0    0 -0.00000000000E+00 -0.00000000000E+00 -0.18250000000E+03  0.18250000000E+03  0.00000000000E+00 0.  1.
        -11    1    1    2    0    0  0.37582316830E+01 -0.16621498767E+00  0.16795151957E+03  0.16799364529E+03  0.00000000000E+00 0.  1.
         11    1    1    2    0    0  0.53380370476E+01 -0.83569807154E+01 -0.17225941463E+03  0.17254460205E+03  0.00000000000E+00 0.  1.
        -15    1    1    2    0    0 -0.58008815100E+01  0.11113221646E+02 -0.53803639399E+01  0.13757178736E+02  0.17770000000E+01 0.  1.
         15    1    1    2    0    0 -0.32953872206E+01 -0.25900259427E+01  0.96882590042E+01  0.10704573922E+02  0.17770000000E+01 0. -1.
</event>
<event>
 6    1  0.8353910E-003  0.1832005E+03  0.7546771E-02  0.1067899E+00
        -11   -1    0    0    0    0  0.00000000000E+00  0.00000000000E+00  0.18250000000E+03  0.18250000000E+03  0.00000000000E+00 0.  1.
         11   -1    0    0    0    0 -0.00000000000E+00 -0.00000000000E+00 -0.18250000000E+03  0.18250000000E+03  0.00000000000E+00 0. -1.
        -11    1    1    2    0    0  0.26710489288E+01 -0.41868034721E+01  0.18173167241E+03  0.18179951756E+03  0.00000000000E+00 0.  1.
         11    1    1    2    0    0 -0.19495192641E+01 -0.94205230243E+00 -0.11489714162E+03  0.11491754105E+03  0.00000000000E+00 0. -1.
        -15    1    1    2    0    0  0.15395915836E+01  0.38073454909E+01 -0.63601217436E+02  0.63758441090E+02  0.17770000000E+01 0. -1.
         15    1    1    2    0    0 -0.22611212483E+01  0.13215102837E+01 -0.32333133562E+01  0.45245003026E+01  0.17770000000E+01 0.  1.
</event>
<event>
 6    1  0.8353910E-003  0.1853248E+03  0.7546771E-02  0.1066228E+00
        -11   -1    0    0    0    0  0.00000000000E+00  0.00000000000E+00  0.18250000000E+03  0.18250000000E+03  0.00000000000E+00 0. -1.
         11   -1    0    0    0    0 -0.00000000000E+00 -0.00000000000E+00 -0.18250000000E+03  0.18250000000E+03  0.00000000000E+00 0.  1.
        -11    1    1    2    0    0  0.20259556233E+01 -0.51688459849E+01  0.16282697614E+03  0.16292159349E+03  0.00000000000E+00 0. -1.
         11    1    1    2    0    0 -0.39778609395E+01 -0.38465429039E+01 -0.17959000060E+03  0.17967522808E+03  0.00000000000E+00 0.  1.
        -15    1    1    2    0    0  0.57711164149E+01  0.42384195098E+01  0.13156977748E+02  0.15084222787E+02  0.17770000000E+01 0.  1.
         15    1    1    2    0    0 -0.38192110987E+01  0.47769693790E+01  0.36060467135E+01  0.73189556471E+01  0.17770000000E+01 0. -1.
</event>
<event>
 6    1  0.8353910E-003  0.1961239E+03  0.7546771E-02  0.1058099E+00
        -11   -1    0    0    0    0  0.00000000000E+00  0.00000000000E+00  0.18250000000E+03  0.18250000000E+03  0.00000000000E+00 0. -1.
         11   -1    0    0    0    0 -0.00000000000E+00 -0.00000000000E+00 -0.18250000000E+03  0.18250000000E+03  0.00000000000E+00 0.  1.
        -11    1    1    2    0    0 -0.22533146029E+01  0.16684053533E+01  0.16885282325E+03  0.16887609932E+03  0.00000000000E+00 0. -1.
         11    1    1    2    0    0 -0.27175284576E+00  0.24243324032E+01 -0.14368165395E+03  0.14370236226E+03  0.00000000000E+00 0.  1.
        -15    1    1    2    0    0  0.56428560019E+01 -0.84977899931E+01 -0.37469665263E+02  0.38873999055E+02  0.17770000000E+01 0.  1.
         15    1    1    2    0    0 -0.31177885532E+01  0.44050522366E+01  0.12298495968E+02  0.13547539361E+02  0.17770000000E+01 0. -1.
</event>
<event>
 6    1  0.8353910E-003  0.1830596E+03  0.7546771E-02  0.1068010E+00
        -11   -1    0    0    0    0  0.00000000000E+00  0.00000000000E+00  0.18250000000E+03  0.18250000000E+03  0.00000000000E+00 0.  1.
         11   -1    0    0    0    0 -0.00000000000E+00 -0.00000000000E+00 -0.18250000000E+03  0.18250000000E+03  0.00000000000E+00 0. -1.
        -11    1    1    2    0    0 -0.27416049450E+01  0.38118218181E+01  0.18187982001E+03  0.18194041692E+03  0.00000000000E+00 0.  1.
         11    1    1    2    0    0 -0.30334204222E+01 -0.54822324627E+01 -0.12529663263E+03  0.12545318912E+03  0.00000000000E+00 0. -1.
        -15    1    1    2    0    0  0.51881820282E+01  0.28539392463E+01 -0.19486190116E+02  0.20443373895E+02  0.17770000000E+01 0.  1.
         15    1    1    2    0    0  0.58684333906E+00 -0.11835286018E+01 -0.37096997264E+02  0.37163020061E+02  0.17770000000E+01 0. -1.
</event>
<event>
 6    1  0.8353910E-003  0.1921053E+03  0.7546771E-02  0.1061056E+00
        -11   -1    0    0    0    0  0.00000000000E+00  0.00000000000E+00  0.18250000000E+03  0.18250000000E+03  0.00000000000E+00 0.  1.
         11   -1    0    0    0    0 -0.00000000000E+00 -0.00000000000E+00 -0.18250000000E+03  0.18250000000E+03  0.00000000000E+00 0. -1.
        -11    1    1    2    0    0  0.24677079833E+01  0.17069183622E+02  0.14939337968E+03  0.15038559939E+03  0.00000000000E+00 0.  1.
         11    1    1    2    0    0 -0.96255947693E+01 -0.90447262483E+01 -0.17238946581E+03  0.17289472829E+03  0.00000000000E+00 0. -1.
        -15    1    1    2    0    0 -0.12644715937E+02 -0.76406513140E+01  0.88165916051E+01  0.17296196407E+02  0.17770000000E+01 0. -1.
         15    1    1    2    0    0  0.19802602723E+02 -0.38380606003E+00  0.14179494522E+02  0.24423475912E+02  0.17770000000E+01 0. -1.
</event>
<event>
 6    1  0.8353910E-003  0.1843732E+03  0.7546771E-02  0.1066973E+00
        -11   -1    0    0    0    0  0.00000000000E+00  0.00000000000E+00  0.18250000000E+03  0.18250000000E+03  0.00000000000E+00 0. -1.
         11   -1    0    0    0    0 -0.00000000000E+00 -0.00000000000E+00 -0.18250000000E+03  0.18250000000E+03  0.00000000000E+00 0.  1.
        -11    1    1    2    0    0  0.73822113242E+00  0.27019235039E+01  0.15654277483E+03  0.15656783102E+03  0.00000000000E+00 0. -1.
         11    1    1    2    0    0 -0.44767354495E+01  0.27314801176E+01 -0.18055063443E+03  0.18062678023E+03  0.00000000000E+00 0.  1.
        -15    1    1    2    0    0  0.52332262946E+00 -0.17598803596E+01  0.22136437485E+02  0.22283416232E+02  0.17770000000E+01 0. -1.
         15    1    1    2    0    0  0.32151916876E+01 -0.36735232619E+01  0.18714221165E+01  0.55219725173E+01  0.17770000000E+01 0.  1.
</event>
<event>
 6    1  0.8353910E-003  0.1845465E+03  0.7546771E-02  0.1066837E+00
        -11   -1    0    0    0    0  0.00000000000E+00  0.00000000000E+00  0.18250000000E+03  0.18250000000E+03  0.00000000000E+00 0. -1.
         11   -1    0    0    0    0 -0.00000000000E+00 -0.00000000000E+00 -0.18250000000E+03  0.18250000000E+03  0.00000000000E+00 0. -1.
        -11    1    1    2    0    0  0.47269914272E+01  0.10462373721E+01  0.16633330794E+03  0.16640375114E+03  0.00000000000E+00 0. -1.
         11    1    1    2    0    0 -0.31148828259E+01 -0.11988803265E+01 -0.18042264016E+03  0.18045350895E+03  0.00000000000E+00 0. -1.
        -15    1    1    2    0    0 -0.44944608410E+00  0.41327082524E+01  0.14900070066E+01  0.47601606235E+01  0.17770000000E+01 0. -1.
         15    1    1    2    0    0 -0.11626625173E+01 -0.39800652980E+01  0.12599325208E+02  0.13382579296E+02  0.17770000000E+01 0.  1.
</event>
<event>
 6    1  0.8353910E-003  0.1867038E+03  0.7546771E-02  0.1065157E+00
        -11   -1    0    0    0    0  0.00000000000E+00  0.00000000000E+00  0.18250000000E+03  0.18250000000E+03  0.00000000000E+00 0.  1.
         11   -1    0    0    0    0 -0.00000000000E+00 -0.00000000000E+00 -0.18250000000E+03  0.18250000000E+03  0.00000000000E+00 0. -1.
        -11    1    1    2    0    0  0.74768689773E+01 -0.13127641790E+01  0.17813454333E+03  0.17829622106E+03  0.00000000000E+00 0.  1.
         11    1    1    2    0    0  0.93588685371E+00  0.24362854610E+01 -0.11681690903E+03  0.11684605944E+03  0.00000000000E+00 0. -1.
        -15    1    1    2    0    0 -0.62773517996E+01  0.20343766830E+01  0.14195286859E+01  0.69797295645E+01  0.17770000000E+01 0. -1.
         15    1    1    2    0    0 -0.21354040314E+01 -0.31578979649E+01 -0.62737162984E+02  0.62877989935E+02  0.17770000000E+01 0. -1.
</event>
<event>
 6    1  0.8353910E-003  0.1836791E+03  0.7546771E-02  0.1067520E+00
        -11   -1    0    0    0    0  0.00000000000E+00  0.00000000000E+00  0.18250000000E+03  0.18250000000E+03  0.00000000000E+00 0. -1.
         11   -1    0    0    0    0 -0.00000000000E+00 -0.00000000000E+00 -0.18250000000E+03  0.18250000000E+03  0.00000000000E+00 0. -1.
        -11    1    1    2    0    0  0.71518914321E+00  0.25550429766E+00  0.46661345921E+02  0.46667525981E+02  0.00000000000E+00 0. -1.
         11    1    1    2    0    0 -0.73341156419E+00 -0.58515809667E+01 -0.18122499978E+03  0.18132092940E+03  0.00000000000E+00 0. -1.
        -15    1    1    2    0    0 -0.41017841058E+01  0.10960713442E+02  0.30551313722E+02  0.32764346036E+02  0.17770000000E+01 0. -1.
         15    1    1    2    0    0  0.41200065267E+01 -0.53646367729E+01  0.10401234014E+03  0.10424719858E+03  0.17770000000E+01 0.  1.
</event>
<event>
 6    1  0.8353910E-003  0.1863151E+03  0.7546771E-02  0.1065458E+00
        -11   -1    0    0    0    0  0.00000000000E+00  0.00000000000E+00  0.18250000000E+03  0.18250000000E+03  0.00000000000E+00 0.  1.
         11   -1    0    0    0    0 -0.00000000000E+00 -0.00000000000E+00 -0.18250000000E+03  0.18250000000E+03  0.00000000000E+00 0. -1.
        -11    1    1    2    0    0 -0.72674745103E+00 -0.29272036028E+01  0.17865942052E+03  0.17868487688E+03  0.00000000000E+00 0.  1.
         11    1    1    2    0    0 -0.73504699786E+01 -0.68090032829E+01 -0.16797897916E+03  0.16827753675E+03  0.00000000000E+00 0. -1.
        -15    1    1    2    0    0  0.17653795636E+01  0.13304569437E+01  0.15032254355E+00  0.28402476212E+01  0.17770000000E+01 0.  1.
         15    1    1    2    0    0  0.63118378659E+01  0.84057499420E+01 -0.10830763905E+02  0.15197338750E+02  0.17770000000E+01 0. -1.
</event>
<event>
 6    1  0.8353910E-003  0.1865738E+03  0.7546771E-02  0.1065258E+00
        -11   -1    0    0    0    0  0.00000000000E+00  0.00000000000E+00  0.18250000000E+03  0.18250000000E+03  0.00000000000E+00 0.  1.
         11   -1    0    0    0    0 -0.00000000000E+00 -0.00000000000E+00 -0.18250000000E+03  0.18250000000E+03  0.00000000000E+00 0.  1.
        -11    1    1    2    0    0  0.34385708488E+01 -0.29952883049E+01  0.16059693101E+03  0.16066166242E+03  0.00000000000E+00 0.  1.
         11    1    1    2    0    0 -0.22789943895E+01 -0.82375484700E+00 -0.17840973966E+03  0.17842619649E+03  0.00000000000E+00 0.  1.
        -15    1    1    2    0    0  0.29431143633E+01  0.26118225460E+00 -0.28503538371E+01  0.44735203500E+01  0.17770000000E+01 0.  1.
         15    1    1    2    0    0 -0.41026908225E+01  0.35578608973E+01  0.20663162491E+02  0.21438620741E+02  0.17770000000E+01 0.  1.
</event>
<event>
 6    1  0.8353910E-003  0.1764266E+03  0.7546771E-02  0.1073395E+00
        -11   -1    0    0    0    0  0.00000000000E+00  0.00000000000E+00  0.18250000000E+03  0.18250000000E+03  0.00000000000E+00 0. -1.
         11   -1    0    0    0    0 -0.00000000000E+00 -0.00000000000E+00 -0.18250000000E+03  0.18250000000E+03  0.00000000000E+00 0.  1.
        -11    1    1    2    0    0 -0.17142520161E+01 -0.44945731895E+01  0.17844564027E+03  0.17851046574E+03  0.00000000000E+00 0. -1.
         11    1    1    2    0    0 -0.37044220795E+01 -0.23329641535E+01 -0.17441847459E+03  0.17447340697E+03  0.00000000000E+00 0.  1.
        -15    1    1    2    0    0 -0.10959626138E+01  0.23693366211E+01 -0.53420325383E+00  0.32028100461E+01  0.17770000000E+01 0. -1.
         15    1    1    2    0    0  0.65146367093E+01  0.44582007219E+01 -0.34929624328E+01  0.88133172352E+01  0.17770000000E+01 0.  1.
</event>
<event>
 6    1  0.8353910E-003  0.1915215E+03  0.7546771E-02  0.1061492E+00
        -11   -1    0    0    0    0  0.00000000000E+00  0.00000000000E+00  0.18250000000E+03  0.18250000000E+03  0.00000000000E+00 0.  1.
         11   -1    0    0    0    0 -0.00000000000E+00 -0.00000000000E+00 -0.18250000000E+03  0.18250000000E+03  0.00000000000E+00 0. -1.
        -11    1    1    2    0    0  0.19501873821E+00  0.27007991301E+01  0.16647248404E+03  0.16649450529E+03  0.00000000000E+00 0.  1.
         11    1    1    2    0    0 -0.73631967835E+00  0.45246412814E+01 -0.17341787926E+03  0.17347845800E+03  0.00000000000E+00 0. -1.
        -15    1    1    2    0    0 -0.14200958265E+01 -0.75864880097E+01 -0.71564377131E+01  0.10674446225E+02  0.17770000000E+01 0. -1.
         15    1    1    2    0    0  0.19613967667E+01  0.36104759820E+00  0.14101832929E+02  0.14352590484E+02  0.17770000000E+01 0. -1.
</event>
<event>
 6    1  0.8353910E-003  0.1304758E+03  0.7546771E-02  0.1119584E+00
        -11   -1    0    0    0    0  0.00000000000E+00  0.00000000000E+00  0.18250000000E+03  0.18250000000E+03  0.00000000000E+00 0.  1.
         11   -1    0    0    0    0 -0.00000000000E+00 -0.00000000000E+00 -0.18250000000E+03  0.18250000000E+03  0.00000000000E+00 0. -1.
        -11    1    1    2    0    0  0.58731333877E+01 -0.52922890605E+01  0.14104658977E+03  0.14126798117E+03  0.00000000000E+00 0.  1.
         11    1    1    2    0    0 -0.40966875475E+02 -0.32103929876E+01 -0.39742434506E+02  0.57166883856E+02  0.00000000000E+00 0. -1.
        -15    1    1    2    0    0  0.60900058296E+02  0.30803822297E+02 -0.11165914644E+03  0.13087633583E+03  0.17770000000E+01 0.  1.
         15    1    1    2    0    0 -0.25806316209E+02 -0.22301140249E+02  0.10354991173E+02  0.35688799138E+02  0.17770000000E+01 0. -1.
</event>
<event>
 6    1  0.8353910E-003  0.1860454E+03  0.7546771E-02  0.1065667E+00
        -11   -1    0    0    0    0  0.00000000000E+00  0.00000000000E+00  0.18250000000E+03  0.18250000000E+03  0.00000000000E+00 0. -1.
         11   -1    0    0    0    0 -0.00000000000E+00 -0.00000000000E+00 -0.18250000000E+03  0.18250000000E+03  0.00000000000E+00 0. -1.
        -11    1    1    2    0    0 -0.50184117920E+01  0.13448769387E+00  0.17888421732E+03  0.17895464719E+03  0.00000000000E+00 0. -1.
         11    1    1    2    0    0  0.44295127292E+00 -0.23352635679E+01 -0.15700138660E+03  0.15701937797E+03  0.00000000000E+00 0. -1.
        -15    1    1    2    0    0 -0.22940798798E+01 -0.29216585618E+01  0.12415965965E+01  0.43009513314E+01  0.17770000000E+01 0. -1.
         15    1    1    2    0    0  0.68695403988E+01  0.51224344358E+01 -0.23124427319E+02  0.24725023512E+02  0.17770000000E+01 0. -1.
</event>
<event>
 6    1  0.8353910E-003  0.1715075E+03  0.7546771E-02  0.1077558E+00
        -11   -1    0    0    0    0  0.00000000000E+00  0.00000000000E+00  0.18250000000E+03  0.18250000000E+03  0.00000000000E+00 0.  1.
         11   -1    0    0    0    0 -0.00000000000E+00 -0.00000000000E+00 -0.18250000000E+03  0.18250000000E+03  0.00000000000E+00 0.  1.
        -11    1    1    2    0    0  0.80767012214E+01  0.85929519787E+01  0.17190410125E+03  0.17230813084E+03  0.00000000000E+00 0.  1.
         11    1    1    2    0    0  0.16871765418E+01  0.19668158643E+01 -0.17098988181E+03  0.17100951615E+03  0.00000000000E+00 0.  1.
        -15    1    1    2    0    0 -0.27333639147E+01  0.11269017954E+01  0.55112463545E+01  0.65017498665E+01  0.17770000000E+01 0. -1.
         15    1    1    2    0    0 -0.70305138485E+01 -0.11686669638E+02 -0.64254657936E+01  0.15180603146E+02  0.17770000000E+01 0.  1.
</event>
<event>
 6    1  0.8353910E-003  0.1853850E+03  0.7546771E-02  0.1066181E+00
        -11   -1    0    0    0    0  0.00000000000E+00  0.00000000000E+00  0.18250000000E+03  0.18250000000E+03  0.00000000000E+00 0. -1.
         11   -1    0    0    0    0 -0.00000000000E+00 -0.00000000000E+00 -0.18250000000E+03  0.18250000000E+03  0.00000000000E+00 0. -1.
        -11    1    1    2    0    0 -0.27562982902E+01 -0.75453661453E+00  0.17959231120E+03  0.17961504600E+03  0.00000000000E+00 0. -1.
         11    1    1    2    0    0 -0.36154667836E+01 -0.64360431583E+01 -0.16441256804E+03  0.16457820871E+03  0.00000000000E+00 0. -1.
        -15    1    1    2    0    0 -0.13533811820E+01  0.53347269150E+01 -0.84733945505E+01  0.10259000735E+02  0.17770000000E+01 0.  1.
         15    1    1    2    0    0  0.77251462558E+01  0.18558528578E+01 -0.67063486088E+01  0.10547744554E+02  0.17770000000E+01 0. -1.
</event>
<event>
 6    1  0.8353910E-003  0.1826577E+03  0.7546771E-02  0.1068329E+00
        -11   -1    0    0    0    0  0.00000000000E+00  0.00000000000E+00  0.18250000000E+03  0.18250000000E+03  0.00000000000E+00 0. -1.
         11   -1    0    0    0    0 -0.00000000000E+00 -0.00000000000E+00 -0.18250000000E+03  0.18250000000E+03  0.00000000000E+00 0. -1.
        -11    1    1    2    0    0 -0.23861679533E+01  0.12755085544E+01  0.18232221536E+03  0.18234229058E+03  0.00000000000E+00 0. -1.
         11    1    1    2    0    0  0.27816758824E+01  0.25677582686E+01 -0.66346510538E+02  0.66454424712E+02  0.00000000000E+00 0. -1.
        -15    1    1    2    0    0  0.12960920271E+01  0.41613910353E+00 -0.27394896823E+02  0.27486198851E+02  0.17770000000E+01 0.  1.
         15    1    1    2    0    0 -0.16915999561E+01 -0.42594059265E+01 -0.88580807997E+02  0.88717085861E+02  0.17770000000E+01 0. -1.
</event>
<event>
 6    1  0.8353910E-003  0.1669202E+03  0.7546771E-02  0.1081580E+00
        -11   -1    0    0    0    0  0.00000000000E+00  0.00000000000E+00  0.18250000000E+03  0.18250000000E+03  0.00000000000E+00 0. -1.
         11   -1    0    0    0    0 -0.00000000000E+00 -0.00000000000E+00 -0.18250000000E+03  0.18250000000E+03  0.00000000000E+00 0. -1.
        -11    1    1    2    0    0  0.10900259381E+02 -0.86835340026E+00  0.16543716726E+03  0.16579814837E+03  0.00000000000E+00 0. -1.
         11    1    1    2    0    0  0.12867196372E+01  0.24630773274E+01 -0.16825740995E+03  0.16828035655E+03  0.00000000000E+00 0. -1.
        -15    1    1    2    0    0 -0.20459252612E+01  0.10228597999E+02  0.91745736167E+01  0.14005019002E+02  0.17770000000E+01 0. -1.
         15    1    1    2    0    0 -0.10141053756E+02 -0.11823321926E+02 -0.63543309244E+01  0.16916476085E+02  0.17770000000E+01 0. -1.
</event>
<event>
 6    1  0.8353910E-003  0.1826371E+03  0.7546771E-02  0.1068346E+00
        -11   -1    0    0    0    0  0.00000000000E+00  0.00000000000E+00  0.18250000000E+03  0.18250000000E+03  0.00000000000E+00 0. -1.
         11   -1    0    0    0    0 -0.00000000000E+00 -0.00000000000E+00 -0.18250000000E+03  0.18250000000E+03  0.00000000000E+00 0. -1.
        -11    1    1    2    0    0 -0.38286028222E+00  0.86300750507E+01  0.18215820251E+03  0.18236292255E+03  0.00000000000E+00 0. -1.
         11    1    1    2    0    0  0.95644855527E+00 -0.12770788391E+01 -0.95435179721E+02  0.95448516240E+02  0.00000000000E+00 0. -1.
        -15    1    1    2    0    0 -0.10347135697E+01 -0.27411910711E+01 -0.51968499718E+02  0.52081354174E+02  0.17770000000E+01 0.  1.
         15    1    1    2    0    0  0.46112529670E+00 -0.46118051405E+01 -0.34754523072E+02  0.35107207040E+02  0.17770000000E+01 0. -1.
</event>
<event>
 6    1  0.8353910E-003  0.1920170E+03  0.7546771E-02  0.1061122E+00
        -11   -1    0    0    0    0  0.00000000000E+00  0.00000000000E+00  0.18250000000E+03  0.18250000000E+03  0.00000000000E+00 0.  1.
         11   -1    0    0    0    0 -0.00000000000E+00 -0.00000000000E+00 -0.18250000000E+03  0.18250000000E+03  0.00000000000E+00 0.  1.
        -11    1    1    2    0    0 -0.18002735478E+01 -0.47842437910E+01  0.17290741292E+03  0.17298295701E+03  0.00000000000E+00 0.  1.
         11    1    1    2    0    0  0.31956850552E+01 -0.35444108917E+01 -0.16549758978E+03  0.16556638389E+03  0.00000000000E+00 0.  1.
        -15    1    1    2    0    0 -0.31936109769E-01  0.90290296458E+01  0.71808413099E+01  0.11672472197E+02  0.17770000000E+01 0. -1.
         15    1    1    2    0    0 -0.13634753976E+01 -0.70037496306E+00 -0.14590664444E+02  0.14778186904E+02  0.17770000000E+01 0. -1.
</event>
<event>
 6    1  0.8353910E-003  0.1718441E+03  0.7546771E-02  0.1077268E+00
        -11   -1    0    0    0    0  0.00000000000E+00  0.00000000000E+00  0.18250000000E+03  0.18250000000E+03  0.00000000000E+00 0. -1.
         11   -1    0    0    0    0 -0.00000000000E+00 -0.00000000000E+00 -0.18250000000E+03  0.18250000000E+03  0.00000000000E+00 0.  1.
        -11    1    1    2    0    0 -0.45012345252E+01 -0.18943740557E+01  0.17033456295E+03  0.17040455716E+03  0.00000000000E+00 0. -1.
         11    1    1    2    0    0  0.25891206434E+01 -0.16160442916E+02 -0.17300081155E+03  0.17377325530E+03  0.00000000000E+00 0.  1.
        -15    1    1    2    0    0  0.33469794237E+01  0.17064896578E+02  0.44545290805E+00  0.17486255282E+02  0.17770000000E+01 0.  1.
         15    1    1    2    0    0 -0.14348655420E+01  0.98992039324E+00  0.22207956937E+01  0.33359322567E+01  0.17770000000E+01 0. -1.
</event>
<event>
 6    1  0.8353910E-003  0.1758517E+03  0.7546771E-02  0.1073874E+00
        -11   -1    0    0    0    0  0.00000000000E+00  0.00000000000E+00  0.18250000000E+03  0.18250000000E+03  0.00000000000E+00 0. -1.
         11   -1    0    0    0    0 -0.00000000000E+00 -0.00000000000E+00 -0.18250000000E+03  0.18250000000E+03  0.00000000000E+00 0. -1.
        -11    1    1    2    0    0 -0.33224883168E+01 -0.54069193536E+00  0.17609825346E+03  0.17613042369E+03  0.00000000000E+00 0. -1.
         11    1    1    2    0    0 -0.10164375438E+01 -0.23341323203E+01 -0.17559340896E+03  0.17561186347E+03  0.00000000000E+00 0. -1.
        -15    1    1    2    0    0  0.20777050874E+01  0.70123372222E+01  0.17659279890E+01  0.77308448704E+01  0.17770000000E+01 0. -1.
         15    1    1    2    0    0  0.22612207732E+01 -0.41375129665E+01 -0.22707724871E+01  0.55268679758E+01  0.17770000000E+01 0.  1.
</event>
<event>
 6    1  0.8353910E-003  0.1836811E+03  0.7546771E-02  0.1067519E+00
        -11   -1    0    0    0    0  0.00000000000E+00  0.00000000000E+00  0.18250000000E+03  0.18250000000E+03  0.00000000000E+00 0. -1.
         11   -1    0    0    0    0 -0.00000000000E+00 -0.00000000000E+00 -0.18250000000E+03  0.18250000000E+03  0.00000000000E+00 0. -1.
        -11    1    1    2    0    0 -0.27168486246E+01 -0.11345805449E+01  0.16331525359E+03  0.16334179071E+03  0.00000000000E+00 0. -1.
         11    1    1    2    0    0  0.20526956286E+01  0.24013564558E+01 -0.18129138011E+03  0.18131890297E+03  0.00000000000E+00 0. -1.
        -15    1    1    2    0    0 -0.28413028562E+01 -0.32504024433E+01  0.12298914909E+02  0.13155194978E+02  0.17770000000E+01 0.  1.
         15    1    1    2    0    0  0.35054558523E+01  0.19836265324E+01  0.56772116173E+01  0.71841113368E+01  0.17770000000E+01 0.  1.
</event>
<event>
 6    1  0.8353910E-003  0.1835080E+03  0.7546771E-02  0.1067655E+00
        -11   -1    0    0    0    0  0.00000000000E+00  0.00000000000E+00  0.18250000000E+03  0.18250000000E+03  0.00000000000E+00 0. -1.
         11   -1    0    0    0    0 -0.00000000000E+00 -0.00000000000E+00 -0.18250000000E+03  0.18250000000E+03  0.00000000000E+00 0.  1.
        -11    1    1    2    0    0 -0.13872643473E+01 -0.28546321156E+01  0.16613486007E+03  0.16616517432E+03  0.00000000000E+00 0. -1.
         11    1    1    2    0    0 -0.14024378240E+01 -0.22823709447E+01 -0.18147220488E+03  0.18149197556E+03  0.00000000000E+00 0.  1.
        -15    1    1    2    0    0 -0.66835141945E+00  0.14551609446E+01  0.26393494374E+01  0.35620333304E+01  0.17770000000E+01 0. -1.
         15    1    1    2    0    0  0.34580535907E+01  0.36818421157E+01  0.12697995372E+02  0.13780816793E+02  0.17770000000E+01 0.  1.
</event>
<event>
 6    1  0.8353910E-003  0.1763319E+03  0.7546771E-02  0.1073473E+00
        -11   -1    0    0    0    0  0.00000000000E+00  0.00000000000E+00  0.18250000000E+03  0.18250000000E+03  0.00000000000E+00 0. -1.
         11   -1    0    0    0    0 -0.00000000000E+00 -0.00000000000E+00 -0.18250000000E+03  0.18250000000E+03  0.00000000000E+00 0.  1.
        -11    1    1    2    0    0 -0.42318908142E+00 -0.32557446631E+00  0.15680749182E+02  0.15689836922E+02  0.00000000000E+00 0. -1.
         11    1    1    2    0    0 -0.10601210750E+01 -0.86509267977E+01 -0.18032658070E+03  0.18053708234E+03  0.00000000000E+00 0.  1.
        -15    1    1    2    0    0  0.20493417220E+01 -0.12535769930E+02  0.94854864788E+02  0.95718067428E+02  0.17770000000E+01 0. -1.
         15    1    1    2    0    0 -0.56603156563E+00  0.21512271194E+02  0.69790966733E+02  0.73055013313E+02  0.17770000000E+01 0.  1.
</event>
<event>
 6    1  0.8353910E-003  0.1827894E+03  0.7546771E-02  0.1068225E+00
        -11   -1    0    0    0    0  0.00000000000E+00  0.00000000000E+00  0.18250000000E+03  0.18250000000E+03  0.00000000000E+00 0.  1.
         11   -1    0    0    0    0 -0.00000000000E+00 -0.00000000000E+00 -0.18250000000E+03  0.18250000000E+03  0.00000000000E+00 0.  1.
        -11    1    1    2    0    0  0.10511307232E+01  0.17035842847E+01  0.40720821960E+02  0.40769994069E+02  0.00000000000E+00 0.  1.
         11    1    1    2    0    0 -0.10167488272E+01  0.37242685095E+01 -0.18216970481E+03  0.18221060700E+03  0.00000000000E+00 0.  1.
        -15    1    1    2    0    0  0.39147612393E+00  0.21143774307E+01  0.84285287153E+02  0.84331436635E+02  0.17770000000E+01 0.  1.
         15    1    1    2    0    0 -0.42585801993E+00 -0.75422302249E+01  0.57163595695E+02  0.57687962294E+02  0.17770000000E+01 0.  1.
</event>
<event>
 6    1  0.8353910E-003  0.1853093E+03  0.7546771E-02  0.1066240E+00
        -11   -1    0    0    0    0  0.00000000000E+00  0.00000000000E+00  0.18250000000E+03  0.18250000000E+03  0.00000000000E+00 0. -1.
         11   -1    0    0    0    0 -0.00000000000E+00 -0.00000000000E+00 -0.18250000000E+03  0.18250000000E+03  0.00000000000E+00 0. -1.
        -11    1    1    2    0    0  0.27904245027E+01  0.44792982267E+01  0.16914671367E+03  0.16922902035E+03  0.00000000000E+00 0. -1.
         11    1    1    2    0    0 -0.28463322710E+01 -0.44809071908E+00 -0.17966757706E+03  0.17969068044E+03  0.00000000000E+00 0. -1.
        -15    1    1    2    0    0 -0.42196860064E+01 -0.55194584670E+01  0.73822747321E+01  0.10292029974E+02  0.17770000000E+01 0. -1.
         15    1    1    2    0    0  0.42755937747E+01  0.14882509594E+01  0.31385886521E+01  0.57882692380E+01  0.17770000000E+01 0.  1.
</event>
<event>
 6    1  0.8353910E-003  0.1842564E+03  0.7546771E-02  0.1067065E+00
        -11   -1    0    0    0    0  0.00000000000E+00  0.00000000000E+00  0.18250000000E+03  0.18250000000E+03  0.00000000000E+00 0.  1.
         11   -1    0    0    0    0 -0.00000000000E+00 -0.00000000000E+00 -0.18250000000E+03  0.18250000000E+03  0.00000000000E+00 0. -1.
        -11    1    1    2    0    0 -0.15224612493E+01  0.20672550372E+01  0.14162303350E+03  0.14164630264E+03  0.00000000000E+00 0.  1.
         11    1    1    2    0    0 -0.24907910132E+01  0.39137079930E+01 -0.18068400767E+03  0.18074355252E+03  0.00000000000E+00 0. -1.
        -15    1    1    2    0    0  0.30647417774E+01 -0.49542990695E+01  0.35955355703E+01  0.70727170500E+01  0.17770000000E+01 0. -1.
         15    1    1    2    0    0  0.94851048507E+00 -0.10266639607E+01  0.35465438591E+02  0.35537427798E+02  0.17770000000E+01 0.  1.
</event>
<event>
 6    1  0.8353910E-003  0.1490745E+03  0.7546771E-02  0.1098692E+00
        -11   -1    0    0    0    0  0.00000000000E+00  0.00000000000E+00  0.18250000000E+03  0.18250000000E+03  0.00000000000E+00 0. -1.
         11   -1    0    0    0    0 -0.00000000000E+00 -0.00000000000E+00 -0.18250000000E+03  0.18250000000E+03  0.00000000000E+00 0.  1.
        -11    1    1    2    0    0 -0.52312489149E+01  0.17778356222E+02  0.14317239335E+03  0.14436679027E+03  0.00000000000E+00 0. -1.
         11    1    1    2    0    0  0.14634131343E+02  0.11651778749E+02 -0.15446276880E+03  0.15559135160E+03  0.00000000000E+00 0.  1.
        -15    1    1    2    0    0 -0.21526413776E+02 -0.15938527900E+02 -0.16719403227E+02  0.31624663396E+02  0.17770000000E+01 0.  1.
         15    1    1    2    0    0  0.12123531347E+02 -0.13491607071E+02  0.28009778672E+02  0.33417194734E+02  0.17770000000E+01 0. -1.
</event>
<event>
 6    1  0.8353910E-003  0.1834955E+03  0.7546771E-02  0.1067665E+00
        -11   -1    0    0    0    0  0.00000000000E+00  0.00000000000E+00  0.18250000000E+03  0.18250000000E+03  0.00000000000E+00 0.  1.
         11   -1    0    0    0    0 -0.00000000000E+00 -0.00000000000E+00 -0.18250000000E+03  0.18250000000E+03  0.00000000000E+00 0. -1.
        -11    1    1    2    0    0  0.12154153356E+01  0.10817735499E+01  0.71983427125E+02  0.72001814207E+02  0.00000000000E+00 0.  1.
         11    1    1    2    0    0 -0.27210864586E+01  0.23472746848E+00 -0.18148397612E+03  0.18150452610E+03  0.00000000000E+00 0. -1.
        -15    1    1    2    0    0  0.65587898850E+00 -0.99432229757E+01  0.33953460430E+02  0.35430115221E+02  0.17770000000E+01 0.  1.
         15    1    1    2    0    0  0.84979213443E+00  0.86267219573E+01  0.75547088560E+02  0.76063544470E+02  0.17770000000E+01 0. -1.
</event>
<event>
 6    1  0.8353910E-003  0.1878187E+03  0.7546771E-02  0.1064298E+00
        -11   -1    0    0    0    0  0.00000000000E+00  0.00000000000E+00  0.18250000000E+03  0.18250000000E+03  0.00000000000E+00 0.  1.
         11   -1    0    0    0    0 -0.00000000000E+00 -0.00000000000E+00 -0.18250000000E+03  0.18250000000E+03  0.00000000000E+00 0. -1.
        -11    1    1    2    0    0  0.12343210665E+02 -0.51872154212E+01  0.17667472168E+03  0.17718131767E+03  0.00000000000E+00 0.  1.
         11    1    1    2    0    0 -0.24240019765E+01  0.36680876737E+01 -0.14380987083E+03  0.14387706419E+03  0.00000000000E+00 0. -1.
        -15    1    1    2    0    0 -0.87671041087E+01  0.55265895942E+01  0.25013178747E+00  0.10517870597E+02  0.17770000000E+01 0.  1.
         15    1    1    2    0    0 -0.11521045799E+01 -0.40074618467E+01 -0.33114982634E+02  0.33423747535E+02  0.17770000000E+01 0. -1.
</event>
<event>
 6    1  0.8353910E-003  0.1861151E+03  0.7546771E-02  0.1065613E+00
        -11   -1    0    0    0    0  0.00000000000E+00  0.00000000000E+00  0.18250000000E+03  0.18250000000E+03  0.00000000000E+00 0. -1.
         11   -1    0    0    0    0 -0.00000000000E+00 -0.00000000000E+00 -0.18250000000E+03  0.18250000000E+03  0.00000000000E+00 0.  1.
        -11    1    1    2    0    0 -0.82713163145E+01  0.61325503491E+01  0.17858834836E+03  0.17888493792E+03  0.00000000000E+00 0. -1.
         11    1    1    2    0    0  0.17147354372E+01  0.15033586377E+01 -0.16497163513E+03  0.16498739589E+03  0.00000000000E+00 0.  1.
        -15    1    1    2    0    0  0.20059109535E+01 -0.89125550893E+01 -0.13075439466E+02  0.16049366442E+02  0.17770000000E+01 0.  1.
         15    1    1    2    0    0  0.45506699238E+01  0.12766461025E+01 -0.54127376144E+00  0.50782997461E+01  0.17770000000E+01 0. -1.
</event>
<event>
 6    1  0.8353910E-003  0.1852549E+03  0.7546771E-02  0.1066283E+00
        -11   -1    0    0    0    0  0.00000000000E+00  0.00000000000E+00  0.18250000000E+03  0.18250000000E+03  0.00000000000E+00 0.  1.
         11   -1    0    0    0    0 -0.00000000000E+00 -0.00000000000E+00 -0.18250000000E+03  0.18250000000E+03  0.00000000000E+00 0. -1.
        -11    1    1    2    0    0 -0.31411266586E+01 -0.14461803964E+01  0.12079722973E+03  0.12084671624E+03  0.00000000000E+00 0.  1.
         11    1    1    2    0    0  0.82945835075E+01  0.40333378838E+01 -0.17950833559E+03  0.17974512643E+03  0.00000000000E+00 0. -1.
        -15    1    1    2    0    0 -0.53534351941E+01  0.80785308447E+01  0.83991228258E+01  0.12947004373E+02  0.17770000000E+01 0.  1.
         15    1    1    2    0    0  0.19997834506E+00 -0.10665688332E+02  0.50311983027E+02  0.51461152961E+02  0.17770000000E+01 0. -1.
</event>
<event>
 6    1  0.8353910E-003  0.1924760E+03  0.7546771E-02  0.1060780E+00
        -11   -1    0    0    0    0  0.00000000000E+00  0.00000000000E+00  0.18250000000E+03  0.18250000000E+03  0.00000000000E+00 0. -1.
         11   -1    0    0    0    0 -0.00000000000E+00 -0.00000000000E+00 -0.18250000000E+03  0.18250000000E+03  0.00000000000E+00 0. -1.
        -11    1    1    2    0    0  0.45820516514E+01 -0.10077203281E+01  0.17246023823E+03  0.17252404026E+03  0.00000000000E+00 0. -1.
         11    1    1    2    0    0 -0.27590957951E+01  0.32495012605E+01 -0.16798716431E+03  0.16804124268E+03  0.00000000000E+00 0. -1.
        -15    1    1    2    0    0 -0.16814716809E+01  0.11045064348E+01 -0.13961301326E+02  0.14216994942E+02  0.17770000000E+01 0. -1.
         15    1    1    2    0    0 -0.14148417550E+00 -0.33462873672E+01  0.94882274040E+01  0.10217722113E+02  0.17770000000E+01 0.  1.
</event>
<event>
 6    1  0.8353910E-003  0.1883574E+03  0.7546771E-02  0.1063886E+00
        -11   -1    0    0    0    0  0.00000000000E+00  0.00000000000E+00  0.18250000000E+03  0.18250000000E+03  0.00000000000E+00 0. -1.
         11   -1    0    0    0    0 -0.00000000000E+00 -0.00000000000E+00 -0.18250000000E+03  0.18250000000E+03  0.00000000000E+00 0.  1.
        -11    1    1    2    0    0 -0.20996012271E+01  0.19766705833E+01  0.15854309714E+03  0.15856931986E+03  0.00000000000E+00 0. -1.
         11    1    1    2    0    0  0.76455344422E+01  0.11809013672E+01 -0.17647307036E+03  0.17664255798E+03  0.00000000000E+00 0.  1.
        -15    1    1    2    0    0 -0.58105909051E+01 -0.16437911374E+01  0.23189023023E+02  0.24028182073E+02  0.17770000000E+01 0.  1.
         15    1    1    2    0    0  0.26465768989E+00 -0.15137808131E+01 -0.52590497959E+01  0.57599400863E+01  0.17770000000E+01 0. -1.
</event>
<event>
 6    1  0.8353910E-003  0.1836832E+03  0.7546771E-02  0.1067517E+00
        -11   -1    0    0    0    0  0.00000000000E+00  0.00000000000E+00  0.18250000000E+03  0.18250000000E+03  0.00000000000E+00 0. -1.
         11   -1    0    0    0    0 -0.00000000000E+00 -0.00000000000E+00 -0.18250000000E+03  0.18250000000E+03  0.00000000000E+00 0. -1.
        -11    1    1    2    0    0  0.23133073098E+01  0.18445730814E+01  0.16276857279E+03  0.16279546102E+03  0.00000000000E+00 0. -1.
         11    1    1    2    0    0  0.14793172749E+01  0.26033042708E+01 -0.18129204886E+03  0.18131677405E+03  0.00000000000E+00 0. -1.
        -15    1    1    2    0    0 -0.90807939659E+00  0.16169420924E+01  0.35548030754E+01  0.43855973169E+01  0.17770000000E+01 0.  1.
         15    1    1    2    0    0 -0.28845451882E+01 -0.60648194445E+01  0.14968672992E+02  0.16502167615E+02  0.17770000000E+01 0.  1.
</event>
<event>
 6    1  0.8353910E-003  0.1869636E+03  0.7546771E-02  0.1064956E+00
        -11   -1    0    0    0    0  0.00000000000E+00  0.00000000000E+00  0.18250000000E+03  0.18250000000E+03  0.00000000000E+00 0. -1.
         11   -1    0    0    0    0 -0.00000000000E+00 -0.00000000000E+00 -0.18250000000E+03  0.18250000000E+03  0.00000000000E+00 0. -1.
        -11    1    1    2    0    0  0.76930918018E+01 -0.25920221365E+01  0.17785125891E+03  0.17803643598E+03  0.00000000000E+00 0. -1.
         11    1    1    2    0    0 -0.30792833466E+00 -0.25853673897E+01 -0.11453366120E+03  0.11456325106E+03  0.00000000000E+00 0. -1.
        -15    1    1    2    0    0  0.10505175205E+02 -0.34491304720E+01 -0.40861889748E+02  0.42368702716E+02  0.17770000000E+01 0.  1.
         15    1    1    2    0    0 -0.17890338672E+02  0.86265199981E+01 -0.22455707959E+02  0.30031610247E+02  0.17770000000E+01 0. -1.
</event>
<event>
 6    1  0.8353910E-003  0.1825582E+03  0.7546771E-02  0.1068408E+00
        -11   -1    0    0    0    0  0.00000000000E+00  0.00000000000E+00  0.18250000000E+03  0.18250000000E+03  0.00000000000E+00 0.  1.
         11   -1    0    0    0    0 -0.00000000000E+00 -0.00000000000E+00 -0.18250000000E+03  0.18250000000E+03  0.00000000000E+00 0. -1.
        -11    1    1    2    0    0  0.15709469049E+01 -0.44221787418E-01  0.61034321389E+02  0.61054551159E+02  0.00000000000E+00 0.  1.
         11    1    1    2    0    0 -0.16067808875E+01 -0.40470487703E+01 -0.18238979394E+03  0.18244176408E+03  0.00000000000E+00 0. -1.
        -15    1    1    2    0    0 -0.45731844920E+00  0.16466106517E+01  0.78616830594E+02  0.78655478184E+02  0.17770000000E+01 0.  1.
         15    1    1    2    0    0  0.49315243178E+00  0.24446599060E+01  0.42738641956E+02  0.42848206574E+02  0.17770000000E+01 0. -1.
</event>
<event>
 6    1  0.8353910E-003  0.1837783E+03  0.7546771E-02  0.1067442E+00
        -11   -1    0    0    0    0  0.00000000000E+00  0.00000000000E+00  0.18250000000E+03  0.18250000000E+03  0.00000000000E+00 0.  1.
         11   -1    0    0    0    0 -0.00000000000E+00 -0.00000000000E+00 -0.18250000000E+03  0.18250000000E+03  0.00000000000E+00 0.  1.
        -11    1    1    2    0    0  0.27852349715E+01  0.25368438930E+01  0.16810673266E+03  0.16814894194E+03  0.00000000000E+00 0.  1.
         11    1    1    2    0    0  0.62623623032E+00  0.34243623734E+01 -0.18118823879E+03  0.18122167725E+03  0.00000000000E+00 0.  1.
        -15    1    1    2    0    0 -0.12325176507E+01 -0.12715132684E+01  0.70757563895E+01  0.75073233069E+01  0.17770000000E+01 0. -1.
         15    1    1    2    0    0 -0.21789535511E+01 -0.46896929980E+01  0.60057497446E+01  0.81220574972E+01  0.17770000000E+01 0. -1.
</event>
<event>
 6    1  0.8353910E-003  0.1862015E+03  0.7546771E-02  0.1065546E+00
        -11   -1    0    0    0    0  0.00000000000E+00  0.00000000000E+00  0.18250000000E+03  0.18250000000E+03  0.00000000000E+00 0. -1.
         11   -1    0    0    0    0 -0.00000000000E+00 -0.00000000000E+00 -0.18250000000E+03  0.18250000000E+03  0.00000000000E+00 0. -1.
        -11    1    1    2    0    0  0.15058998633E+02 -0.74333070358E+01  0.17800806055E+03  0.17879848185E+03  0.00000000000E+00 0. -1.
         11    1    1    2    0    0 -0.22021316551E+01 -0.12092100467E+01 -0.16304196566E+03  0.16306132018E+03  0.00000000000E+00 0. -1.
        -15    1    1    2    0    0 -0.10315440516E+02  0.27213126539E+01 -0.77588769680E+01  0.13310588131E+02  0.17770000000E+01 0. -1.
         15    1    1    2    0    0 -0.25414264627E+01  0.59212044286E+01 -0.72072179174E+01  0.98296098325E+01  0.17770000000E+01 0.  1.
</event>
<event>
 6    1  0.8353910E-003  0.1843654E+03  0.7546771E-02  0.1066980E+00
        -11   -1    0    0    0    0  0.00000000000E+00  0.00000000000E+00  0.18250000000E+03  0.18250000000E+03  0.00000000000E+00 0. -1.
         11   -1    0    0    0    0 -0.00000000000E+00 -0.00000000000E+00 -0.18250000000E+03  0.18250000000E+03  0.00000000000E+00 0.  1.
        -11    1    1    2    0    0  0.13552598395E+01 -0.21951466970E+01  0.15541173117E+03  0.15543314184E+03  0.00000000000E+00 0. -1.
         11    1    1    2    0    0  0.51425432170E+01  0.27485311513E+01 -0.18054049270E+03  0.18063463034E+03  0.00000000000E+00 0.  1.
        -15    1    1    2    0    0 -0.29960889361E+01  0.30085256444E+01  0.22589939830E+02  0.23054086102E+02  0.17770000000E+01 0. -1.
         15    1    1    2    0    0 -0.35017141204E+01 -0.35619100987E+01  0.25388217054E+01  0.58781417118E+01  0.17770000000E+01 0.  1.
</event>
<event>
 6    1  0.8353910E-003  0.1841768E+03  0.7546771E-02  0.1067128E+00
        -11   -1    0    0    0    0  0.00000000000E+00  0.00000000000E+00  0.18250000000E+03  0.18250000000E+03  0.00000000000E+00 0. -1.
         11   -1    0    0    0    0 -0.00000000000E+00 -0.00000000000E+00 -0.18250000000E+03  0.18250000000E+03  0.00000000000E+00 0.  1.
        -11    1    1    2    0    0 -0.46346512913E+01  0.73241824589E+01  0.18061532222E+03  0.18082316849E+03  0.00000000000E+00 0. -1.
         11    1    1    2    0    0 -0.62778771640E+01  0.31056956407E+01 -0.13051280686E+03  0.13070061148E+03  0.00000000000E+00 0.  1.
        -15    1    1    2    0    0  0.61340710197E+01 -0.11291578204E+02 -0.41052085081E+02  0.43052967193E+02  0.17770000000E+01 0.  1.
         15    1    1    2    0    0  0.47784574356E+01  0.86170010458E+00 -0.90504302795E+01  0.10423252841E+02  0.17770000000E+01 0. -1.
</event>
<event>
 6    1  0.8353910E-003  0.1853011E+03  0.7546771E-02  0.1066247E+00
        -11   -1    0    0    0    0  0.00000000000E+00  0.00000000000E+00  0.18250000000E+03  0.18250000000E+03  0.00000000000E+00 0. -1.
         11   -1    0    0    0    0 -0.00000000000E+00 -0.00000000000E+00 -0.18250000000E+03  0.18250000000E+03  0.00000000000E+00 0.  1.
        -11    1    1    2    0    0  0.47464832607E+01  0.10575024737E+01  0.17963308656E+03  0.17969889594E+03  0.00000000000E+00 0. -1.
         11    1    1    2    0    0 -0.10151846329E+02  0.25519471887E+01 -0.14945637487E+03  0.14982249634E+03  0.00000000000E+00 0.  1.
        -15    1    1    2    0    0 -0.42232689804E+01 -0.42203793647E+01 -0.21491661110E+02  0.22376255923E+02  0.17770000000E+01 0. -1.
         15    1    1    2    0    0  0.96286320485E+01  0.61092970233E+00 -0.86850505763E+01  0.13102351802E+02  0.17770000000E+01 0.  1.
</event>
<event>
 6    1  0.8353910E-003  0.1827265E+03  0.7546771E-02  0.1068275E+00
        -11   -1    0    0    0    0  0.00000000000E+00  0.00000000000E+00  0.18250000000E+03  0.18250000000E+03  0.00000000000E+00 0.  1.
         11   -1    0    0    0    0 -0.00000000000E+00 -0.00000000000E+00 -0.18250000000E+03  0.18250000000E+03  0.00000000000E+00 0. -1.
        -11    1    1    2    0    0  0.22565328612E+01  0.13165477421E+01  0.18225473551E+03  0.18227345899E+03  0.00000000000E+00 0.  1.
         11    1    1    2    0    0  0.24129877660E+01 -0.21258723263E+01 -0.12882569497E+03  0.12886582762E+03  0.00000000000E+00 0. -1.
        -15    1    1    2    0    0 -0.14928724191E+01  0.16645388489E+01 -0.16767685058E+02  0.17009184250E+02  0.17770000000E+01 0. -1.
         15    1    1    2    0    0 -0.31766482082E+01 -0.85521426475E+00 -0.36661355479E+02  0.36851529138E+02  0.17770000000E+01 0.  1.
</event>
<event>
 6    1  0.8353910E-003  0.1825575E+03  0.7546771E-02  0.1068409E+00
        -11   -1    0    0    0    0  0.00000000000E+00  0.00000000000E+00  0.18250000000E+03  0.18250000000E+03  0.00000000000E+00 0. -1.
         11   -1    0    0    0    0 -0.00000000000E+00 -0.00000000000E+00 -0.18250000000E+03  0.18250000000E+03  0.00000000000E+00 0. -1.
        -11    1    1    2    0    0 -0.12438689966E+01  0.43683066640E+01  0.18238598892E+03  0.18244253416E+03  0.00000000000E+00 0. -1.
         11    1    1    2    0    0 -0.37360908269E+00 -0.16444508786E+01 -0.44955323425E+02  0.44986941513E+02  0.00000000000E+00 0. -1.
        -15    1    1    2    0    0  0.54932176798E+00  0.39331747066E+00 -0.22930481386E+02  0.23009153801E+02  0.17770000000E+01 0.  1.
         15    1    1    2    0    0  0.10681563113E+01 -0.31171732561E+01 -0.11450018411E+03  0.11456137053E+03  0.17770000000E+01 0. -1.
</event>
<event>
 6    1  0.8353910E-003  0.1962365E+03  0.7546771E-02  0.1058018E+00
        -11   -1    0    0    0    0  0.00000000000E+00  0.00000000000E+00  0.18250000000E+03  0.18250000000E+03  0.00000000000E+00 0. -1.
         11   -1    0    0    0    0 -0.00000000000E+00 -0.00000000000E+00 -0.18250000000E+03  0.18250000000E+03  0.00000000000E+00 0.  1.
        -11    1    1    2    0    0 -0.52151528858E+01 -0.87895193089E+00  0.16868059771E+03  0.16876348663E+03  0.00000000000E+00 0. -1.
         11    1    1    2    0    0  0.23753019603E+01  0.26110726837E+01 -0.15711936590E+03  0.15715901152E+03  0.00000000000E+00 0.  1.
        -15    1    1    2    0    0  0.81681376807E+01  0.10608588911E+02 -0.19230802143E+02  0.23499832168E+02  0.17770000000E+01 0.  1.
         15    1    1    2    0    0 -0.53282867552E+01 -0.12340709664E+02  0.76695703348E+01  0.15577669687E+02  0.17770000000E+01 0. -1.
</event>
<event>
 6    1  0.8353910E-003  0.1841379E+03  0.7546771E-02  0.1067158E+00
        -11   -1    0    0    0    0  0.00000000000E+00  0.00000000000E+00  0.18250000000E+03  0.18250000000E+03  0.00000000000E+00 0. -1.
         11   -1    0    0    0    0 -0.00000000000E+00 -0.00000000000E+00 -0.18250000000E+03  0.18250000000E+03  0.00000000000E+00 0.  1.
        -11    1    1    2    0    0  0.13970331454E+01  0.78214994604E+01  0.12982800063E+03  0.13007089337E+03  0.00000000000E+00 0. -1.
         11    1    1    2    0    0 -0.17647897481E+01  0.53080879370E+01 -0.18077554431E+03  0.18086206816E+03  0.00000000000E+00 0.  1.
        -15    1    1    2    0    0  0.22844549954E+01 -0.14229465396E+02  0.35390233424E+02  0.38253402082E+02  0.17770000000E+01 0.  1.
         15    1    1    2    0    0 -0.19166983927E+01  0.10998779982E+01  0.15557310251E+02  0.15813636381E+02  0.17770000000E+01 0. -1.
</event>
<event>
 6    1  0.8353910E-003  0.1950677E+03  0.7546771E-02  0.1058869E+00
        -11   -1    0    0    0    0  0.00000000000E+00  0.00000000000E+00  0.18250000000E+03  0.18250000000E+03  0.00000000000E+00 0.  1.
         11   -1    0    0    0    0 -0.00000000000E+00 -0.00000000000E+00 -0.18250000000E+03  0.18250000000E+03  0.00000000000E+00 0.  1.
        -11    1    1    2    0    0 -0.40439376078E+01 -0.24754785138E+02  0.72288985549E+02  0.76516993213E+02  0.00000000000E+00 0.  1.
         11    1    1    2    0    0  0.84429403472E+01 -0.11210277001E+02 -0.16935183061E+03  0.16993232795E+03  0.00000000000E+00 0.  1.
        -15    1    1    2    0    0 -0.25914601479E+01  0.21311768713E+02  0.10091521714E+03  0.10318888473E+03  0.17770000000E+01 0.  1.
         15    1    1    2    0    0 -0.18075425915E+01  0.14653293426E+02 -0.38523720798E+01  0.15361794103E+02  0.17770000000E+01 0. -1.
</event>
<event>
 6    1  0.8353910E-003  0.1832322E+03  0.7546771E-02  0.1067873E+00
        -11   -1    0    0    0    0  0.00000000000E+00  0.00000000000E+00  0.18250000000E+03  0.18250000000E+03  0.00000000000E+00 0.  1.
         11   -1    0    0    0    0 -0.00000000000E+00 -0.00000000000E+00 -0.18250000000E+03  0.18250000000E+03  0.00000000000E+00 0.  1.
        -11    1    1    2    0    0 -0.73699849813E+00  0.28196989972E+01  0.15635148877E+03  0.15637864915E+03  0.00000000000E+00 0.  1.
         11    1    1    2    0    0  0.55827974836E+00 -0.24269171731E+01 -0.18175072304E+03  0.18176778298E+03  0.00000000000E+00 0.  1.
        -15    1    1    2    0    0 -0.18994505322E+01 -0.31262246101E+01  0.74009767481E+01  0.84447248897E+01  0.17770000000E+01 0.  1.
         15    1    1    2    0    0  0.20781692819E+01  0.27334427860E+01  0.17998257522E+02  0.18408842980E+02  0.17770000000E+01 0. -1.
</event>
<event>
 6    1  0.8353910E-003  0.1900446E+03  0.7546771E-02  0.1062603E+00
        -11   -1    0    0    0    0  0.00000000000E+00  0.00000000000E+00  0.18250000000E+03  0.18250000000E+03  0.00000000000E+00 0.  1.
         11   -1    0    0    0    0 -0.00000000000E+00 -0.00000000000E+00 -0.18250000000E+03  0.18250000000E+03  0.00000000000E+00 0.  1.
        -11    1    1    2    0    0 -0.33005369645E+01 -0.32588257377E+01  0.16524563049E+03  0.16531071316E+03  0.00000000000E+00 0.  1.
         11    1    1    2    0    0  0.29285396804E-01 -0.42245803442E+01 -0.17490442011E+03  0.17495543464E+03  0.00000000000E+00 0.  1.
        -15    1    1    2    0    0  0.11920238348E+01  0.53758937992E+01 -0.62134721117E+01  0.84903545065E+01  0.17770000000E+01 0.  1.
         15    1    1    2    0    0  0.20792277329E+01  0.21075122828E+01  0.15872261724E+02  0.16243497691E+02  0.17770000000E+01 0.  1.
</event>
<event>
 6    1  0.8353910E-003  0.1859358E+03  0.7546771E-02  0.1065752E+00
        -11   -1    0    0    0    0  0.00000000000E+00  0.00000000000E+00  0.18250000000E+03  0.18250000000E+03  0.00000000000E+00 0.  1.
         11   -1    0    0    0    0 -0.00000000000E+00 -0.00000000000E+00 -0.18250000000E+03  0.18250000000E+03  0.00000000000E+00 0. -1.
        -11    1    1    2    0    0  0.26469506540E+01 -0.13428741033E+01  0.17572942078E+03  0.17575448497E+03  0.00000000000E+00 0.  1.
         11    1    1    2    0    0  0.24287364362E+01 -0.82687506059E+00 -0.17904580334E+03  0.17906418452E+03  0.00000000000E+00 0. -1.
        -15    1    1    2    0    0 -0.64408607681E+01  0.11913269217E+01  0.10888466032E+01  0.68736644662E+01  0.17770000000E+01 0. -1.
         15    1    1    2    0    0  0.13651736779E+01  0.97842224224E+00  0.22275359555E+01  0.33076660484E+01  0.17770000000E+01 0. -1.
</event>
<event>
 6    1  0.8353910E-003  0.1835870E+03  0.7546771E-02  0.1067593E+00
        -11   -1    0    0    0    0  0.00000000000E+00  0.00000000000E+00  0.18250000000E+03  0.18250000000E+03  0.00000000000E+00 0. -1.
         11   -1    0    0    0    0 -0.00000000000E+00 -0.00000000000E+00 -0.18250000000E+03  0.18250000000E+03  0.00000000000E+00 0.  1.
        -11    1    1    2    0    0 -0.30792847849E+01  0.44855436650E-01  0.18138683948E+03  0.18141298063E+03  0.00000000000E+00 0. -1.
         11    1    1    2    0    0  0.26683719946E+01  0.58323096070E+00 -0.17710746498E+03  0.17712852542E+03  0.00000000000E+00 0.  1.
        -15    1    1    2    0    0 -0.90343489297E+00 -0.10636383726E+01 -0.33061799940E+01  0.40045070042E+01  0.17770000000E+01 0.  1.
         15    1    1    2    0    0  0.13143476832E+01  0.43555197529E+00 -0.97319450747E+00  0.24539869407E+01  0.17770000000E+01 0.  1.
</event>
<event>
 6    1  0.8353910E-003  0.1870948E+03  0.7546771E-02  0.1064855E+00
        -11   -1    0    0    0    0  0.00000000000E+00  0.00000000000E+00  0.18250000000E+03  0.18250000000E+03  0.00000000000E+00 0.  1.
         11   -1    0    0    0    0 -0.00000000000E+00 -0.00000000000E+00 -0.18250000000E+03  0.18250000000E+03  0.00000000000E+00 0.  1.
        -11    1    1    2    0    0  0.15709553991E+01  0.13633111877E+01  0.15387743522E+03  0.15389149290E+03  0.00000000000E+00 0.  1.
         11    1    1    2    0    0  0.14391251075E+01 -0.44954633678E+01 -0.17784253986E+03  0.17790516928E+03  0.00000000000E+00 0.  1.
        -15    1    1    2    0    0 -0.84235854336E+01  0.83646121556E+01  0.22247604402E+02  0.25279184297E+02  0.17770000000E+01 0.  1.
         15    1    1    2    0    0  0.54135049270E+01 -0.52324599755E+01  0.17175002352E+01  0.79241535225E+01  0.17770000000E+01 0. -1.
</event>
<event>
 6    1  0.8353910E-003  0.1852415E+03  0.7546771E-02  0.1066293E+00
        -11   -1    0    0    0    0  0.00000000000E+00  0.00000000000E+00  0.18250000000E+03  0.18250000000E+03  0.00000000000E+00 0.  1.
         11   -1    0    0    0    0 -0.00000000000E+00 -0.00000000000E+00 -0.18250000000E+03  0.18250000000E+03  0.00000000000E+00 0.  1.
        -11    1    1    2    0    0 -0.14491487494E+01 -0.32319896307E+01  0.17972364441E+03  0.17975854402E+03  0.00000000000E+00 0.  1.
         11    1    1    2    0    0 -0.28968931915E+01  0.12872668456E+00 -0.17530644280E+03  0.17533042362E+03  0.00000000000E+00 0.  1.
        -15    1    1    2    0    0  0.55346178690E+01  0.14010537958E+01 -0.38744806677E+01  0.71249053425E+01  0.17770000000E+01 0. -1.
         15    1    1    2    0    0 -0.11885759281E+01  0.17022091503E+01 -0.54272093591E+00  0.27861270148E+01  0.17770000000E+01 0.  1.
</event>
<event>
 6    1  0.8353910E-003  0.1852675E+03  0.7546771E-02  0.1066273E+00
        -11   -1    0    0    0    0  0.00000000000E+00  0.00000000000E+00  0.18250000000E+03  0.18250000000E+03  0.00000000000E+00 0. -1.
         11   -1    0    0    0    0 -0.00000000000E+00 -0.00000000000E+00 -0.18250000000E+03  0.18250000000E+03  0.00000000000E+00 0.  1.
        -11    1    1    2    0    0  0.24092662021E+01  0.74784686706E+01  0.17956072961E+03  0.17973254484E+03  0.00000000000E+00 0. -1.
         11    1    1    2    0    0  0.21517222899E+01  0.10399535405E+01 -0.16197284152E+03  0.16199047133E+03  0.00000000000E+00 0.  1.
        -15    1    1    2    0    0 -0.23318396250E+00 -0.10139070166E+02 -0.11884409748E+02  0.15724250146E+02  0.17770000000E+01 0. -1.
         15    1    1    2    0    0 -0.43278045295E+01  0.16206479548E+01 -0.57034783435E+01  0.75527336808E+01  0.17770000000E+01 0.  1.
</event>
<event>
 6    1  0.8353910E-003  0.1825650E+03  0.7546771E-02  0.1068403E+00
        -11   -1    0    0    0    0  0.00000000000E+00  0.00000000000E+00  0.18250000000E+03  0.18250000000E+03  0.00000000000E+00 0. -1.
         11   -1    0    0    0    0 -0.00000000000E+00 -0.00000000000E+00 -0.18250000000E+03  0.18250000000E+03  0.00000000000E+00 0. -1.
        -11    1    1    2    0    0  0.14569150718E+01 -0.61475143067E+00  0.77713301284E+02  0.77729387733E+02  0.00000000000E+00 0. -1.
         11    1    1    2    0    0 -0.29665893547E+01  0.12719841292E+01 -0.18240644154E+03  0.18243499804E+03  0.00000000000E+00 0. -1.
        -15    1    1    2    0    0  0.18819602878E+01  0.11966004118E+01  0.50626251704E+02  0.50706495813E+02  0.17770000000E+01 0. -1.
         15    1    1    2    0    0 -0.37228600492E+00 -0.18538331103E+01  0.54066888547E+02  0.54129118414E+02  0.17770000000E+01 0. -1.
</event>
<event>
 6    1  0.8353910E-003  0.1851649E+03  0.7546771E-02  0.1066353E+00
        -11   -1    0    0    0    0  0.00000000000E+00  0.00000000000E+00  0.18250000000E+03  0.18250000000E+03  0.00000000000E+00 0.  1.
         11   -1    0    0    0    0 -0.00000000000E+00 -0.00000000000E+00 -0.18250000000E+03  0.18250000000E+03  0.00000000000E+00 0. -1.
        -11    1    1    2    0    0 -0.32006793550E+01 -0.16298014508E+01  0.16288726327E+03  0.16292685825E+03  0.00000000000E+00 0.  1.
         11    1    1    2    0    0 -0.49858160865E+01 -0.34128597467E+01 -0.17973355819E+03  0.17983508533E+03  0.00000000000E+00 0. -1.
        -15    1    1    2    0    0  0.39679232863E+01  0.72549569424E+00  0.15067875936E+02  0.15699343089E+02  0.17770000000E+01 0.  1.
         15    1    1    2    0    0  0.42185721552E+01  0.43171655032E+01  0.17784189844E+01  0.65387133363E+01  0.17770000000E+01 0.  1.
</event>
<event>
 6    1  0.8353910E-003  0.1857665E+03  0.7546771E-02  0.1065884E+00
        -11   -1    0    0    0    0  0.00000000000E+00  0.00000000000E+00  0.18250000000E+03  0.18250000000E+03  0.00000000000E+00 0.  1.
         11   -1    0    0    0    0 -0.00000000000E+00 -0.00000000000E+00 -0.18250000000E+03  0.18250000000E+03  0.00000000000E+00 0. -1.
        -11    1    1    2    0    0 -0.96190703492E+01  0.75755646591E+01  0.17881477981E+03  0.17923348229E+03  0.00000000000E+00 0.  1.
         11    1    1    2    0    0 -0.41468143006E+01  0.29158945041E+01 -0.14600537689E+03  0.14609335574E+03  0.00000000000E+00 0. -1.
        -15    1    1    2    0    0  0.11494840435E+01 -0.22996775587E+01 -0.18743458619E+02  0.19002231459E+02  0.17770000000E+01 0.  1.
         15    1    1    2    0    0  0.12616400606E+02 -0.81917816044E+01 -0.14065944302E+02  0.20670930512E+02  0.17770000000E+01 0. -1.
</event>
<event>
 6    1  0.8353910E-003  0.1854872E+03  0.7546771E-02  0.1066102E+00
        -11   -1    0    0    0    0  0.00000000000E+00  0.00000000000E+00  0.18250000000E+03  0.18250000000E+03  0.00000000000E+00 0.  1.
         11   -1    0    0    0    0 -0.00000000000E+00 -0.00000000000E+00 -0.18250000000E+03  0.18250000000E+03  0.00000000000E+00 0. -1.
        -11    1    1    2    0    0  0.34083641652E+01  0.16138298335E+01  0.17533585295E+03  0.17537640298E+03  0.00000000000E+00 0.  1.
         11    1    1    2    0    0  0.25830671252E+01 -0.27155779715E+01 -0.17947369598E+03  0.17951282447E+03  0.00000000000E+00 0. -1.
        -15    1    1    2    0    0 -0.57449731945E+01  0.17963537283E+01  0.89410271686E+00  0.63394599448E+01  0.17770000000E+01 0.  1.
         15    1    1    2    0    0 -0.24645809595E+00 -0.69460559029E+00  0.32437403209E+01  0.37713126082E+01  0.17770000000E+01 0. -1.
</event>
<event>
 6    1  0.8353910E-003  0.1867497E+03  0.7546771E-02  0.1065121E+00
        -11   -1    0    0    0    0  0.00000000000E+00  0.00000000000E+00  0.18250000000E+03  0.18250000000E+03  0.00000000000E+00 0. -1.
         11   -1    0    0    0    0 -0.00000000000E+00 -0.00000000000E+00 -0.18250000000E+03  0.18250000000E+03  0.00000000000E+00 0.  1.
        -11    1    1    2    0    0  0.14098854820E+01 -0.22916025771E+01  0.17822996460E+03  0.17825027209E+03  0.00000000000E+00 0. -1.
         11    1    1    2    0    0 -0.16596527423E+00 -0.27868815689E+01 -0.33011241985E+02  0.33129086174E+02  0.00000000000E+00 0.  1.
        -15    1    1    2    0    0 -0.93858696047E+01  0.56012743923E+01 -0.14483933201E+03  0.14526203444E+03  0.17770000000E+01 0.  1.
         15    1    1    2    0    0  0.81419493969E+01 -0.52279024630E+00 -0.37939060127E+00  0.83586072914E+01  0.17770000000E+01 0. -1.
</event>
<event>
 6    1  0.8353910E-003  0.1874482E+03  0.7546771E-02  0.1064583E+00
        -11   -1    0    0    0    0  0.00000000000E+00  0.00000000000E+00  0.18250000000E+03  0.18250000000E+03  0.00000000000E+00 0.  1.
         11   -1    0    0    0    0 -0.00000000000E+00 -0.00000000000E+00 -0.18250000000E+03  0.18250000000E+03  0.00000000000E+00 0. -1.
        -11    1    1    2    0    0 -0.28250004051E+01 -0.30365130956E+01  0.16054698961E+03  0.16060055078E+03  0.00000000000E+00 0.  1.
         11    1    1    2    0    0 -0.28982201839E+01 -0.28875516084E+01 -0.17750470756E+03  0.17755184832E+03  0.00000000000E+00 0. -1.
        -15    1    1    2    0    0  0.48672976990E+01  0.37472856028E+01 -0.27220436464E+01  0.69498191986E+01  0.17770000000E+01 0.  1.
         15    1    1    2    0    0  0.85592289000E+00  0.21767791013E+01  0.19679761596E+02  0.19897781704E+02  0.17770000000E+01 0.  1.
</event>
<event>
 6    1  0.8353910E-003  0.1827440E+03  0.7546771E-02  0.1068261E+00
        -11   -1    0    0    0    0  0.00000000000E+00  0.00000000000E+00  0.18250000000E+03  0.18250000000E+03  0.00000000000E+00 0.  1.
         11   -1    0    0    0    0 -0.00000000000E+00 -0.00000000000E+00 -0.18250000000E+03  0.18250000000E+03  0.00000000000E+00 0. -1.
        -11    1    1    2    0    0  0.21718944287E+00  0.76675044120E+00  0.39709760858E+02  0.39717756544E+02  0.00000000000E+00 0.  1.
         11    1    1    2    0    0 -0.50101533168E+01 -0.27999984260E+01 -0.18216556728E+03  0.18225596158E+03  0.00000000000E+00 0. -1.
        -15    1    1    2    0    0  0.43384209653E+01  0.34851442281E+01  0.30981662850E+02  0.31527595670E+02  0.17770000000E+01 0.  1.
         15    1    1    2    0    0  0.45454290862E+00 -0.14518962433E+01  0.11147414357E+03  0.11149868621E+03  0.17770000000E+01 0.  1.
</event>
<event>
 6    1  0.8353910E-003  0.1756926E+03  0.7546771E-02  0.1074006E+00
        -11   -1    0    0    0    0  0.00000000000E+00  0.00000000000E+00  0.18250000000E+03  0.18250000000E+03  0.00000000000E+00 0.  1.
         11   -1    0    0    0    0 -0.00000000000E+00 -0.00000000000E+00 -0.18250000000E+03  0.18250000000E+03  0.00000000000E+00 0.  1.
        -11    1    1    2    0    0 -0.58452303652E+01 -0.33109848310E+01  0.17331480069E+03  0.17344494653E+03  0.00000000000E+00 0.  1.
         11    1    1    2    0    0  0.20518794816E+01 -0.35919284827E+01 -0.17801190382E+03  0.17805996198E+03  0.00000000000E+00 0.  1.
        -15    1    1    2    0    0  0.42132821887E+01  0.18512259216E+00  0.46629058881E+01  0.65334858610E+01  0.17770000000E+01 0.  1.
         15    1    1    2    0    0 -0.41993130502E+00  0.67177907215E+01  0.34197244489E-01  0.69616056288E+01  0.17770000000E+01 0. -1.
</event>
<event>
 6    1  0.8353910E-003  0.1857300E+03  0.7546771E-02  0.1065912E+00
        -11   -1    0    0    0    0  0.00000000000E+00  0.00000000000E+00  0.18250000000E+03  0.18250000000E+03  0.00000000000E+00 0. -1.
         11   -1    0    0    0    0 -0.00000000000E+00 -0.00000000000E+00 -0.18250000000E+03  0.18250000000E+03  0.00000000000E+00 0.  1.
        -11    1    1    2    0    0 -0.31093964949E+01 -0.21587900821E+01  0.17305561771E+03  0.17309701194E+03  0.00000000000E+00 0. -1.
         11    1    1    2    0    0  0.28430930557E+01 -0.28432326312E+01 -0.17922487271E+03  0.17926997001E+03  0.00000000000E+00 0.  1.
        -15    1    1    2    0    0 -0.18616968894E+01  0.76747980581E+00 -0.17708558103E+01  0.32169239751E+01  0.17770000000E+01 0. -1.
         15    1    1    2    0    0  0.21280003286E+01  0.42345429075E+01  0.79401108032E+01  0.94160940735E+01  0.17770000000E+01 0. -1.
</event>
<event>
 6    1  0.8353910E-003  0.1825815E+03  0.7546771E-02  0.1068390E+00
        -11   -1    0    0    0    0  0.00000000000E+00  0.00000000000E+00  0.18250000000E+03  0.18250000000E+03  0.00000000000E+00 0. -1.
         11   -1    0    0    0    0 -0.00000000000E+00 -0.00000000000E+00 -0.18250000000E+03  0.18250000000E+03  0.00000000000E+00 0.  1.
        -11    1    1    2    0    0 -0.41848774415E+00 -0.81846596204E+00  0.58379981393E+02  0.58387218173E+02  0.00000000000E+00 0. -1.
         11    1    1    2    0    0 -0.21091694752E+01  0.19940914438E+01 -0.18239538315E+03  0.18241847711E+03  0.00000000000E+00 0.  1.
        -15    1    1    2    0    0  0.15872257779E+00 -0.23064411391E+01  0.85125715119E+02  0.85175641865E+02  0.17770000000E+01 0.  1.
         15    1    1    2    0    0  0.23689346415E+01  0.11308156573E+01  0.38889686636E+02  0.39018662855E+02  0.17770000000E+01 0. -1.
</event>
<event>
 6    1  0.8353910E-003  0.1890643E+03  0.7546771E-02  0.1063346E+00
        -11   -1    0    0    0    0  0.00000000000E+00  0.00000000000E+00  0.18250000000E+03  0.18250000000E+03  0.00000000000E+00 0.  1.
         11   -1    0    0    0    0 -0.00000000000E+00 -0.00000000000E+00 -0.18250000000E+03  0.18250000000E+03  0.00000000000E+00 0.  1.
        -11    1    1    2    0    0 -0.41061146096E+01  0.11071222732E+02  0.80885952937E+02  0.81743314910E+02  0.00000000000E+00 0.  1.
         11    1    1    2    0    0  0.18692100678E+02  0.98474084036E+01 -0.17466257082E+03  0.17593572612E+03  0.00000000000E+00 0.  1.
        -15    1    1    2    0    0 -0.16116500757E+02 -0.28663023880E+01  0.57637834064E+01  0.17445234713E+02  0.17770000000E+01 0.  1.
         15    1    1    2    0    0  0.15305146893E+01 -0.18052328748E+02  0.88012834478E+02  0.89875724255E+02  0.17770000000E+01 0. -1.
</event>
<event>
 6    1  0.8353910E-003  0.1760555E+03  0.7546771E-02  0.1073704E+00
        -11   -1    0    0    0    0  0.00000000000E+00  0.00000000000E+00  0.18250000000E+03  0.18250000000E+03  0.00000000000E+00 0. -1.
         11   -1    0    0    0    0 -0.00000000000E+00 -0.00000000000E+00 -0.18250000000E+03  0.18250000000E+03  0.00000000000E+00 0.  1.
        -11    1    1    2    0    0 -0.12604004441E+01 -0.27060264395E+01  0.17620573436E+03  0.17623101887E+03  0.00000000000E+00 0. -1.
         11    1    1    2    0    0  0.18595445056E+01 -0.44588752324E+01 -0.17588723405E+03  0.17595356938E+03  0.00000000000E+00 0.  1.
        -15    1    1    2    0    0 -0.21844424714E+01  0.32149613404E+01 -0.47705547421E+01  0.64049736048E+01  0.17770000000E+01 0.  1.
         15    1    1    2    0    0  0.15852984099E+01  0.39499403314E+01  0.44520544305E+01  0.64104381537E+01  0.17770000000E+01 0.  1.
</event>
<event>
 6    1  0.8353910E-003  0.1832329E+03  0.7546771E-02  0.1067873E+00
        -11   -1    0    0    0    0  0.00000000000E+00  0.00000000000E+00  0.18250000000E+03  0.18250000000E+03  0.00000000000E+00 0.  1.
         11   -1    0    0    0    0 -0.00000000000E+00 -0.00000000000E+00 -0.18250000000E+03  0.18250000000E+03  0.00000000000E+00 0. -1.
        -11    1    1    2    0    0 -0.11338652063E+01  0.93015568023E-01  0.69673426265E+02  0.69682713995E+02  0.00000000000E+00 0.  1.
         11    1    1    2    0    0 -0.14859358437E+01 -0.23020040272E+01 -0.18174645954E+03  0.18176711139E+03  0.00000000000E+00 0. -1.
        -15    1    1    2    0    0 -0.73398834911E+00  0.68118063531E+01  0.18827272010E+02  0.20113760092E+02  0.17770000000E+01 0. -1.
         15    1    1    2    0    0  0.33537893991E+01 -0.46028178940E+01  0.93245761265E+02  0.93436414523E+02  0.17770000000E+01 0.  1.
</event>
<event>
 6    1  0.8353910E-003  0.1832365E+03  0.7546771E-02  0.1067870E+00
        -11   -1    0    0    0    0  0.00000000000E+00  0.00000000000E+00  0.18250000000E+03  0.18250000000E+03  0.00000000000E+00 0. -1.
         11   -1    0    0    0    0 -0.00000000000E+00 -0.00000000000E+00 -0.18250000000E+03  0.18250000000E+03  0.00000000000E+00 0. -1.
        -11    1    1    2    0    0  0.10669201394E+01  0.22828843696E+01  0.18174598232E+03  0.18176345058E+03  0.00000000000E+00 0. -1.
         11    1    1    2    0    0 -0.25442360170E+00  0.25871607477E+01 -0.15749193704E+03  0.15751339106E+03  0.00000000000E+00 0. -1.
        -15    1    1    2    0    0  0.13027307202E+01 -0.14735019495E+01 -0.17326490488E+02  0.17528072255E+02  0.17770000000E+01 0. -1.
         15    1    1    2    0    0 -0.21152272578E+01 -0.33965431678E+01 -0.69275547889E+01  0.81950861006E+01  0.17770000000E+01 0. -1.
</event>
<event>
 6    1  0.8353910E-003  0.1857547E+03  0.7546771E-02  0.1065893E+00
        -11   -1    0    0    0    0  0.00000000000E+00  0.00000000000E+00  0.18250000000E+03  0.18250000000E+03  0.00000000000E+00 0. -1.
         11   -1    0    0    0    0 -0.00000000000E+00 -0.00000000000E+00 -0.18250000000E+03  0.18250000000E+03  0.00000000000E+00 0. -1.
        -11    1    1    2    0    0 -0.24685869426E+01 -0.27348092381E+01  0.16097367061E+03  0.16101582448E+03  0.00000000000E+00 0. -1.
         11    1    1    2    0    0 -0.32494276917E+01  0.58721373336E+01 -0.17911963785E+03  0.17924532195E+03  0.00000000000E+00 0. -1.
        -15    1    1    2    0    0  0.20319876275E+01 -0.25759931842E+01 -0.19588135364E+01  0.42141896106E+01  0.17770000000E+01 0.  1.
         15    1    1    2    0    0  0.36860270067E+01 -0.56133491127E+00  0.20104780771E+02  0.20524663963E+02  0.17770000000E+01 0. -1.
</event>
<event>
 6    1  0.8353910E-003  0.1890942E+03  0.7546771E-02  0.1063324E+00
        -11   -1    0    0    0    0  0.00000000000E+00  0.00000000000E+00  0.18250000000E+03  0.18250000000E+03  0.00000000000E+00 0.  1.
         11   -1    0    0    0    0 -0.00000000000E+00 -0.00000000000E+00 -0.18250000000E+03  0.18250000000E+03  0.00000000000E+00 0.  1.
        -11    1    1    2    0    0  0.18670531705E+00  0.65362007220E+01  0.14938058462E+03  0.14952362970E+03  0.00000000000E+00 0.  1.
         11    1    1    2    0    0  0.47058770001E+01 -0.10873764317E+00 -0.17584284080E+03  0.17590583209E+03  0.00000000000E+00 0.  1.
        -15    1    1    2    0    0 -0.27501685473E+01 -0.68657256993E+01  0.32249156649E+02  0.33134082906E+02  0.17770000000E+01 0.  1.
         15    1    1    2    0    0 -0.21424137699E+01  0.43826262040E+00 -0.57869004690E+01  0.64364553074E+01  0.17770000000E+01 0. -1.
</event>
<event>
 6    1  0.8353910E-003  0.1836013E+03  0.7546771E-02  0.1067582E+00
        -11   -1    0    0    0    0  0.00000000000E+00  0.00000000000E+00  0.18250000000E+03  0.18250000000E+03  0.00000000000E+00 0.  1.
         11   -1    0    0    0    0 -0.00000000000E+00 -0.00000000000E+00 -0.18250000000E+03  0.18250000000E+03  0.00000000000E+00 0. -1.
        -11    1    1    2    0    0  0.81107920131E+00 -0.31936148620E+01  0.18136881713E+03  0.18139874546E+03  0.00000000000E+00 0.  1.
         11    1    1    2    0    0 -0.38587190168E-01 -0.28869184335E+01 -0.14005467233E+03  0.14008442821E+03  0.00000000000E+00 0. -1.
        -15    1    1    2    0    0  0.41507863140E+01 -0.79397652935E+00 -0.94702396840E+01  0.10521530042E+02  0.17770000000E+01 0. -1.
         15    1    1    2    0    0 -0.49232783251E+01  0.68745098248E+01 -0.31843905119E+02  0.32995296286E+02  0.17770000000E+01 0. -1.
</event>
<event>
 6    1  0.8353910E-003  0.1857505E+03  0.7546771E-02  0.1065896E+00
        -11   -1    0    0    0    0  0.00000000000E+00  0.00000000000E+00  0.18250000000E+03  0.18250000000E+03  0.00000000000E+00 0. -1.
         11   -1    0    0    0    0 -0.00000000000E+00 -0.00000000000E+00 -0.18250000000E+03  0.18250000000E+03  0.00000000000E+00 0. -1.
        -11    1    1    2    0    0 -0.21062843385E+01 -0.23058007166E+01  0.49011859471E+02  0.49111256545E+02  0.00000000000E+00 0. -1.
         11    1    1    2    0    0 -0.14860351824E+01 -0.65043470984E+01 -0.17912531535E+03  0.17924952839E+03  0.00000000000E+00 0. -1.
        -15    1    1    2    0    0  0.98898934587E+00  0.62172980415E+01  0.13198652162E+03  0.13214852444E+03  0.17770000000E+01 0. -1.
         15    1    1    2    0    0  0.26033301750E+01  0.25928497735E+01 -0.18730657427E+01  0.44906906178E+01  0.17770000000E+01 0.  1.
</event>
<event>
 6    1  0.8353910E-003  0.1826694E+03  0.7546771E-02  0.1068320E+00
        -11   -1    0    0    0    0  0.00000000000E+00  0.00000000000E+00  0.18250000000E+03  0.18250000000E+03  0.00000000000E+00 0. -1.
         11   -1    0    0    0    0 -0.00000000000E+00 -0.00000000000E+00 -0.18250000000E+03  0.18250000000E+03  0.00000000000E+00 0.  1.
        -11    1    1    2    0    0 -0.11390307255E+01  0.30305755134E+01  0.18230182945E+03  0.18233057560E+03  0.00000000000E+00 0. -1.
         11    1    1    2    0    0  0.76510367521E+00 -0.54466419294E+00 -0.36434374767E+02  0.36446477298E+02  0.00000000000E+00 0.  1.
        -15    1    1    2    0    0 -0.37075497874E+01  0.10540992093E+01 -0.79052031513E+02  0.79165892062E+02  0.17770000000E+01 0. -1.
         15    1    1    2    0    0  0.40814768377E+01 -0.35400105298E+01 -0.66815423170E+02  0.67057055036E+02  0.17770000000E+01 0.  1.
</event>
<event>
 6    1  0.8353910E-003  0.1759428E+03  0.7546771E-02  0.1073798E+00
        -11   -1    0    0    0    0  0.00000000000E+00  0.00000000000E+00  0.18250000000E+03  0.18250000000E+03  0.00000000000E+00 0. -1.
         11   -1    0    0    0    0 -0.00000000000E+00 -0.00000000000E+00 -0.18250000000E+03  0.18250000000E+03  0.00000000000E+00 0.  1.
        -11    1    1    2    0    0  0.13661708777E+01 -0.21957735571E+01  0.17549906832E+03  0.17551812108E+03  0.00000000000E+00 0. -1.
         11    1    1    2    0    0 -0.30163832202E+01 -0.68137311959E+01 -0.17633031405E+03  0.17648769122E+03  0.00000000000E+00 0.  1.
        -15    1    1    2    0    0  0.31352970329E+01  0.42513326416E+01 -0.31225641256E+01  0.63884311402E+01  0.17770000000E+01 0. -1.
         15    1    1    2    0    0 -0.14850846904E+01  0.47581721113E+01  0.39538098497E+01  0.66057565582E+01  0.17770000000E+01 0.  1.
</event>
<event>
 6    1  0.8353910E-003  0.2129888E+03  0.7546771E-02  0.1046483E+00
        -11   -1    0    0    0    0  0.00000000000E+00  0.00000000000E+00  0.18250000000E+03  0.18250000000E+03  0.00000000000E+00 0. -1.
         11   -1    0    0    0    0 -0.00000000000E+00 -0.00000000000E+00 -0.18250000000E+03  0.18250000000E+03  0.00000000000E+00 0.  1.
        -11    1    1    2    0    0  0.66326860593E+01 -0.86650595837E+00  0.15186392867E+03  0.15201117126E+03  0.00000000000E+00 0. -1.
         11    1    1    2    0    0 -0.34537282958E+01  0.16881249296E+01 -0.14008772870E+03  0.14014046431E+03  0.00000000000E+00 0.  1.
        -15    1    1    2    0    0 -0.21356535241E+02  0.25964917230E+02  0.83526842287E+01  0.34687225128E+02  0.17770000000E+01 0.  1.
         15    1    1    2    0    0  0.18177577477E+02 -0.26786536201E+02 -0.20128884198E+02  0.38161139300E+02  0.17770000000E+01 0. -1.
</event>
<event>
 6    1  0.8353910E-003  0.1859492E+03  0.7546771E-02  0.1065742E+00
        -11   -1    0    0    0    0  0.00000000000E+00  0.00000000000E+00  0.18250000000E+03  0.18250000000E+03  0.00000000000E+00 0. -1.
         11   -1    0    0    0    0 -0.00000000000E+00 -0.00000000000E+00 -0.18250000000E+03  0.18250000000E+03  0.00000000000E+00 0. -1.
        -11    1    1    2    0    0 -0.49280422256E+01 -0.43408453760E+01  0.17893036493E+03  0.17905084203E+03  0.00000000000E+00 0. -1.
         11    1    1    2    0    0  0.21436980039E+01 -0.84096740842E+00 -0.16731929632E+03  0.16733514153E+03  0.00000000000E+00 0. -1.
        -15    1    1    2    0    0 -0.18962553788E+01  0.31778930446E+01 -0.12492516810E+02  0.13149733606E+02  0.17770000000E+01 0. -1.
         15    1    1    2    0    0  0.46805996006E+01  0.20039197398E+01  0.88144820480E+00  0.54642828333E+01  0.17770000000E+01 0.  1.
</event>
<event>
 6    1  0.8353910E-003  0.1861576E+03  0.7546771E-02  0.1065580E+00
        -11   -1    0    0    0    0  0.00000000000E+00  0.00000000000E+00  0.18250000000E+03  0.18250000000E+03  0.00000000000E+00 0.  1.
         11   -1    0    0    0    0 -0.00000000000E+00 -0.00000000000E+00 -0.18250000000E+03  0.18250000000E+03  0.00000000000E+00 0. -1.
        -11    1    1    2    0    0  0.52689390461E+01 -0.85551176251E+01  0.13834148857E+03  0.13870587304E+03  0.00000000000E+00 0.  1.
         11    1    1    2    0    0 -0.38250447232E+01  0.20380470745E+01 -0.17878984812E+03  0.17884237304E+03  0.00000000000E+00 0. -1.
        -15    1    1    2    0    0  0.21803351588E+01 -0.50713440783E+01  0.68681015552E+00  0.58396771619E+01  0.17770000000E+01 0.  1.
         15    1    1    2    0    0 -0.36242294817E+01  0.11588414629E+02  0.39761549398E+02  0.41612076762E+02  0.17770000000E+01 0. -1.
</event>
<event>
 6    1  0.8353910E-003  0.1758229E+03  0.7546771E-02  0.1073898E+00
        -11   -1    0    0    0    0  0.00000000000E+00  0.00000000000E+00  0.18250000000E+03  0.18250000000E+03  0.00000000000E+00 0. -1.
         11   -1    0    0    0    0 -0.00000000000E+00 -0.00000000000E+00 -0.18250000000E+03  0.18250000000E+03  0.00000000000E+00 0.  1.
        -11    1    1    2    0    0 -0.39282086847E+01 -0.80470324952E-01  0.17527233467E+03  0.17531636717E+03  0.00000000000E+00 0. -1.
         11    1    1    2    0    0  0.58962687054E+00 -0.45190299579E+01 -0.17631810775E+03  0.17637699513E+03  0.00000000000E+00 0.  1.
        -15    1    1    2    0    0  0.13392128288E+01  0.83585574588E+01  0.56729521044E+00  0.86682481880E+01  0.17770000000E+01 0. -1.
         15    1    1    2    0    0  0.19993689854E+01 -0.37590571760E+01  0.47847786784E+00  0.46383895117E+01  0.17770000000E+01 0.  1.
</event>
<event>
 6    1  0.8353910E-003  0.1829770E+03  0.7546771E-02  0.1068076E+00
        -11   -1    0    0    0    0  0.00000000000E+00  0.00000000000E+00  0.18250000000E+03  0.18250000000E+03  0.00000000000E+00 0.  1.
         11   -1    0    0    0    0 -0.00000000000E+00 -0.00000000000E+00 -0.18250000000E+03  0.18250000000E+03  0.00000000000E+00 0. -1.
        -11    1    1    2    0    0  0.55231353465E+01  0.81568736960E+00  0.70033935795E+02  0.70256120964E+02  0.00000000000E+00 0.  1.
         11    1    1    2    0    0 -0.43411789455E+00 -0.32999437217E+01 -0.18199261224E+03  0.18202304523E+03  0.00000000000E+00 0. -1.
        -15    1    1    2    0    0 -0.70900451903E+00 -0.66574535977E+00  0.30338156889E+01  0.36479680544E+01  0.17770000000E+01 0.  1.
         15    1    1    2    0    0 -0.43800129329E+01  0.31500017119E+01  0.10892486075E+03  0.10907286575E+03  0.17770000000E+01 0.  1.
</event>
<event>
 6    1  0.8353910E-003  0.1624576E+03  0.7546771E-02  0.1085632E+00
        -11   -1    0    0    0    0  0.00000000000E+00  0.00000000000E+00  0.18250000000E+03  0.18250000000E+03  0.00000000000E+00 0.  1.
         11   -1    0    0    0    0 -0.00000000000E+00 -0.00000000000E+00 -0.18250000000E+03  0.18250000000E+03  0.00000000000E+00 0. -1.
        -11    1    1    2    0    0 -0.87991699532E+01  0.59127567526E+01  0.15519776798E+03  0.15555942039E+03  0.00000000000E+00 0.  1.
         11    1    1    2    0    0 -0.26646735435E+01  0.20018936954E+02 -0.16971607769E+03  0.17091344403E+03  0.00000000000E+00 0. -1.
        -15    1    1    2    0    0 -0.62493831608E+01 -0.81778805768E+01  0.55941349457E+01  0.11848400542E+02  0.17770000000E+01 0. -1.
         15    1    1    2    0    0  0.17713226658E+02 -0.17753813130E+02  0.89241747627E+01  0.26678735042E+02  0.17770000000E+01 0.  1.
</event>
<event>
 6    1  0.8353910E-003  0.1837368E+03  0.7546771E-02  0.1067475E+00
        -11   -1    0    0    0    0  0.00000000000E+00  0.00000000000E+00  0.18250000000E+03  0.18250000000E+03  0.00000000000E+00 0. -1.
         11   -1    0    0    0    0 -0.00000000000E+00 -0.00000000000E+00 -0.18250000000E+03  0.18250000000E+03  0.00000000000E+00 0.  1.
        -11    1    1    2    0    0  0.38255411535E+00  0.41284808375E+01  0.12865000903E+03  0.12871680358E+03  0.00000000000E+00 0. -1.
         11    1    1    2    0    0 -0.11974155419E+02 -0.95307669673E+01 -0.18061595628E+03  0.18126317767E+03  0.00000000000E+00 0.  1.
        -15    1    1    2    0    0 -0.21183619966E+00 -0.24984492679E+01  0.16329026725E+02  0.16615714432E+02  0.17770000000E+01 0.  1.
         15    1    1    2    0    0  0.11803437504E+02  0.79007353977E+01  0.35636920523E+02  0.38404304317E+02  0.17770000000E+01 0. -1.
</event>
<event>
 6    1  0.8353910E-003  0.1840053E+03  0.7546771E-02  0.1067263E+00
        -11   -1    0    0    0    0  0.00000000000E+00  0.00000000000E+00  0.18250000000E+03  0.18250000000E+03  0.00000000000E+00 0.  1.
         11   -1    0    0    0    0 -0.00000000000E+00 -0.00000000000E+00 -0.18250000000E+03  0.18250000000E+03  0.00000000000E+00 0. -1.
        -11    1    1    2    0    0  0.10480515777E+02 -0.15340761699E+00  0.18069092081E+03  0.18099467840E+03  0.00000000000E+00 0.  1.
         11    1    1    2    0    0  0.45052748891E-01  0.22230344016E+01 -0.14224408624E+03  0.14226146345E+03  0.00000000000E+00 0. -1.
        -15    1    1    2    0    0 -0.64419253889E+01  0.42379892307E+01 -0.13707720735E+02  0.15827769653E+02  0.17770000000E+01 0. -1.
         15    1    1    2    0    0 -0.40836431372E+01 -0.63076160153E+01 -0.24739113832E+02  0.25916088503E+02  0.17770000000E+01 0.  1.
</event>
<event>
 6    1  0.8353910E-003  0.1840386E+03  0.7546771E-02  0.1067237E+00
        -11   -1    0    0    0    0  0.00000000000E+00  0.00000000000E+00  0.18250000000E+03  0.18250000000E+03  0.00000000000E+00 0. -1.
         11   -1    0    0    0    0 -0.00000000000E+00 -0.00000000000E+00 -0.18250000000E+03  0.18250000000E+03  0.00000000000E+00 0.  1.
        -11    1    1    2    0    0  0.20487483376E+01 -0.13276635174E+01  0.18094497694E+03  0.18096144545E+03  0.00000000000E+00 0. -1.
         11    1    1    2    0    0 -0.20566433216E+01 -0.13707206333E+00 -0.13595361550E+03  0.13596923968E+03  0.00000000000E+00 0.  1.
        -15    1    1    2    0    0 -0.30923845942E+01 -0.16447583759E+01 -0.42567429048E+02  0.42748237593E+02  0.17770000000E+01 0.  1.
         15    1    1    2    0    0  0.31002795782E+01  0.31094939566E+01 -0.24239323923E+01  0.53210772754E+01  0.17770000000E+01 0. -1.
</event>
<event>
 6    1  0.8353910E-003  0.1841399E+03  0.7546771E-02  0.1067157E+00
        -11   -1    0    0    0    0  0.00000000000E+00  0.00000000000E+00  0.18250000000E+03  0.18250000000E+03  0.00000000000E+00 0.  1.
         11   -1    0    0    0    0 -0.00000000000E+00 -0.00000000000E+00 -0.18250000000E+03  0.18250000000E+03  0.00000000000E+00 0.  1.
        -11    1    1    2    0    0  0.30299434187E+01 -0.19343060594E+01  0.17852113514E+03  0.17855732354E+03  0.00000000000E+00 0.  1.
         11    1    1    2    0    0 -0.16454132598E+01  0.29284732939E+01 -0.18082895302E+03  0.18086014926E+03  0.00000000000E+00 0.  1.
        -15    1    1    2    0    0  0.70671595701E-01 -0.19102150870E+01  0.11456860457E+01  0.28503055395E+01  0.17770000000E+01 0.  1.
         15    1    1    2    0    0 -0.14552017546E+01  0.91604785254E+00  0.11621318274E+01  0.27322216599E+01  0.17770000000E+01 0. -1.
</event>
<event>
 6    1  0.8353910E-003  0.1835448E+03  0.7546771E-02  0.1067626E+00
        -11   -1    0    0    0    0  0.00000000000E+00  0.00000000000E+00  0.18250000000E+03  0.18250000000E+03  0.00000000000E+00 0. -1.
         11   -1    0    0    0    0 -0.00000000000E+00 -0.00000000000E+00 -0.18250000000E+03  0.18250000000E+03  0.00000000000E+00 0.  1.
        -11    1    1    2    0    0  0.41997787292E+01 -0.17774383088E+01  0.54809545285E+02  0.54998942559E+02  0.00000000000E+00 0. -1.
         11    1    1    2    0    0 -0.45890924202E+00  0.30977623182E+01 -0.18142817191E+03  0.18145519637E+03  0.00000000000E+00 0.  1.
        -15    1    1    2    0    0  0.45464664302E+01 -0.15162051972E+01  0.72177129304E+01  0.88443396671E+01  0.17770000000E+01 0.  1.
         15    1    1    2    0    0 -0.82873359174E+01  0.19588118784E+00  0.11940091369E+03  0.11970152140E+03  0.17770000000E+01 0. -1.
</event>
<event>
 6    1  0.8353910E-003  0.1831399E+03  0.7546771E-02  0.1067947E+00
        -11   -1    0    0    0    0  0.00000000000E+00  0.00000000000E+00  0.18250000000E+03  0.18250000000E+03  0.00000000000E+00 0. -1.
         11   -1    0    0    0    0 -0.00000000000E+00 -0.00000000000E+00 -0.18250000000E+03  0.18250000000E+03  0.00000000000E+00 0.  1.
        -11    1    1    2    0    0  0.28084717821E+01  0.14900490351E+01  0.18183235586E+03  0.18186014791E+03  0.00000000000E+00 0. -1.
         11    1    1    2    0    0  0.77090466924E+00 -0.23469889411E+01 -0.13573495861E+03  0.13575743678E+03  0.00000000000E+00 0.  1.
        -15    1    1    2    0    0 -0.10920048251E+01 -0.30470721822E+00 -0.13227766455E+01  0.24885313100E+01  0.17770000000E+01 0. -1.
         15    1    1    2    0    0 -0.24873716262E+01  0.11616471242E+01 -0.44774620604E+02  0.44893884003E+02  0.17770000000E+01 0.  1.
</event>
<event>
 6    1  0.8353910E-003  0.1826534E+03  0.7546771E-02  0.1068333E+00
        -11   -1    0    0    0    0  0.00000000000E+00  0.00000000000E+00  0.18250000000E+03  0.18250000000E+03  0.00000000000E+00 0. -1.
         11   -1    0    0    0    0 -0.00000000000E+00 -0.00000000000E+00 -0.18250000000E+03  0.18250000000E+03  0.00000000000E+00 0.  1.
        -11    1    1    2    0    0  0.98315280229E+00  0.15403204717E+01  0.11747384151E+03  0.11748805307E+03  0.00000000000E+00 0. -1.
         11    1    1    2    0    0 -0.26754981337E+01  0.22627181238E+01 -0.18231289231E+03  0.18234656258E+03  0.00000000000E+00 0.  1.
        -15    1    1    2    0    0  0.70849143630E+00 -0.22963227775E+01  0.17087837743E+02  0.17347247221E+02  0.17770000000E+01 0. -1.
         15    1    1    2    0    0  0.98385389511E+00 -0.15067158180E+01  0.47751213054E+02  0.47818137126E+02  0.17770000000E+01 0.  1.
</event>
<event>
 6    1  0.8353910E-003  0.1876195E+03  0.7546771E-02  0.1064451E+00
        -11   -1    0    0    0    0  0.00000000000E+00  0.00000000000E+00  0.18250000000E+03  0.18250000000E+03  0.00000000000E+00 0. -1.
         11   -1    0    0    0    0 -0.00000000000E+00 -0.00000000000E+00 -0.18250000000E+03  0.18250000000E+03  0.00000000000E+00 0.  1.
        -11    1    1    2    0    0  0.17634953350E+01  0.13459242472E+01  0.99987036732E+02  0.10001164403E+03  0.00000000000E+00 0. -1.
         11    1    1    2    0    0 -0.77119263112E+01  0.15517433134E+02 -0.17653209278E+03  0.17738050716E+03  0.00000000000E+00 0.  1.
        -15    1    1    2    0    0 -0.68170300255E+00 -0.10988608866E+02  0.77702859178E+02  0.78499084690E+02  0.17770000000E+01 0.  1.
         15    1    1    2    0    0  0.66301339788E+01 -0.58747485158E+01 -0.11578031315E+01  0.91087641200E+01  0.17770000000E+01 0. -1.
</event>
<event>
 6    1  0.8353910E-003  0.1828168E+03  0.7546771E-02  0.1068203E+00
        -11   -1    0    0    0    0  0.00000000000E+00  0.00000000000E+00  0.18250000000E+03  0.18250000000E+03  0.00000000000E+00 0.  1.
         11   -1    0    0    0    0 -0.00000000000E+00 -0.00000000000E+00 -0.18250000000E+03  0.18250000000E+03  0.00000000000E+00 0.  1.
        -11    1    1    2    0    0  0.32211397780E+01 -0.72004380910E+00  0.18215329866E+03  0.18218320016E+03  0.00000000000E+00 0.  1.
         11    1    1    2    0    0 -0.23796629662E+00 -0.18057581811E+01 -0.43353659106E+02  0.43391901876E+02  0.00000000000E+00 0.  1.
        -15    1    1    2    0    0 -0.62544576006E+01  0.18928833917E+01 -0.12276398322E+03  0.12295061834E+03  0.17770000000E+01 0. -1.
         15    1    1    2    0    0  0.32712841193E+01  0.63291859856E+00 -0.16035656344E+02  0.16474279623E+02  0.17770000000E+01 0.  1.
</event>
<event>
 6    1  0.8353910E-003  0.1855542E+03  0.7546771E-02  0.1066049E+00
        -11   -1    0    0    0    0  0.00000000000E+00  0.00000000000E+00  0.18250000000E+03  0.18250000000E+03  0.00000000000E+00 0. -1.
         11   -1    0    0    0    0 -0.00000000000E+00 -0.00000000000E+00 -0.18250000000E+03  0.18250000000E+03  0.00000000000E+00 0. -1.
        -11    1    1    2    0    0 -0.51883633443E+01  0.75466621051E+01  0.17921192159E+03  0.17944576914E+03  0.00000000000E+00 0. -1.
         11    1    1    2    0    0  0.46352520311E+01  0.15953959064E+01 -0.12934498420E+03  0.12943784526E+03  0.00000000000E+00 0. -1.
        -15    1    1    2    0    0  0.27444208021E+01 -0.30754669441E+01  0.11733285912E+01  0.46394796526E+01  0.17770000000E+01 0.  1.
         15    1    1    2    0    0 -0.21913094889E+01 -0.60665910673E+01 -0.51040265984E+02  0.51476905941E+02  0.17770000000E+01 0. -1.
</event>
<event>
 6    1  0.8353910E-003  0.1899836E+03  0.7546771E-02  0.1062649E+00
        -11   -1    0    0    0    0  0.00000000000E+00  0.00000000000E+00  0.18250000000E+03  0.18250000000E+03  0.00000000000E+00 0. -1.
         11   -1    0    0    0    0 -0.00000000000E+00 -0.00000000000E+00 -0.18250000000E+03  0.18250000000E+03  0.00000000000E+00 0. -1.
        -11    1    1    2    0    0  0.31024897153E+01  0.18358803783E+02  0.17402315723E+03  0.17501637173E+03  0.00000000000E+00 0. -1.
         11    1    1    2    0    0 -0.37345578807E+01 -0.82954634673E+00 -0.15883304220E+03  0.15887910613E+03  0.00000000000E+00 0. -1.
        -15    1    1    2    0    0 -0.35190467032E+01 -0.18813740374E+02 -0.49650042064E+01  0.19853199045E+02  0.17770000000E+01 0. -1.
         15    1    1    2    0    0  0.41511148685E+01  0.12844829371E+01 -0.10225110825E+02  0.11251323098E+02  0.17770000000E+01 0. -1.
</event>
<event>
 6    1  0.8353910E-003  0.1840970E+03  0.7546771E-02  0.1067191E+00
        -11   -1    0    0    0    0  0.00000000000E+00  0.00000000000E+00  0.18250000000E+03  0.18250000000E+03  0.00000000000E+00 0.  1.
         11   -1    0    0    0    0 -0.00000000000E+00 -0.00000000000E+00 -0.18250000000E+03  0.18250000000E+03  0.00000000000E+00 0.  1.
        -11    1    1    2    0    0  0.21313255532E+01  0.43778191287E+01  0.18083749747E+03  0.18090303574E+03  0.00000000000E+00 0.  1.
         11    1    1    2    0    0  0.19120046288E+01  0.24773220507E+01 -0.15345605028E+03  0.15348795475E+03  0.00000000000E+00 0.  1.
        -15    1    1    2    0    0  0.31684677484E+01 -0.18243194688E+01 -0.46780705945E+01  0.61975319994E+01  0.17770000000E+01 0. -1.
         15    1    1    2    0    0 -0.72117979304E+01 -0.50308217106E+01 -0.22703376595E+02  0.24411477511E+02  0.17770000000E+01 0.  1.
</event>
<event>
 6    1  0.8353910E-003  0.1958575E+03  0.7546771E-02  0.1058293E+00
        -11   -1    0    0    0    0  0.00000000000E+00  0.00000000000E+00  0.18250000000E+03  0.18250000000E+03  0.00000000000E+00 0. -1.
         11   -1    0    0    0    0 -0.00000000000E+00 -0.00000000000E+00 -0.18250000000E+03  0.18250000000E+03  0.00000000000E+00 0.  1.
        -11    1    1    2    0    0  0.34394943656E+01 -0.47829810060E+01  0.14864699690E+03  0.14876369421E+03  0.00000000000E+00 0. -1.
         11    1    1    2    0    0 -0.26079625945E+01  0.20194823443E+01 -0.16911032126E+03  0.16914248590E+03  0.00000000000E+00 0.  1.
        -15    1    1    2    0    0 -0.14884175718E+02  0.77310387169E+01 -0.49509808054E+01  0.17577758287E+02  0.17770000000E+01 0.  1.
         15    1    1    2    0    0  0.14052643947E+02 -0.49675400553E+01  0.25414305170E+02  0.29516061600E+02  0.17770000000E+01 0. -1.
</event>
<event>
 6    1  0.8353910E-003  0.1840653E+03  0.7546771E-02  0.1067216E+00
        -11   -1    0    0    0    0  0.00000000000E+00  0.00000000000E+00  0.18250000000E+03  0.18250000000E+03  0.00000000000E+00 0.  1.
         11   -1    0    0    0    0 -0.00000000000E+00 -0.00000000000E+00 -0.18250000000E+03  0.18250000000E+03  0.00000000000E+00 0. -1.
        -11    1    1    2    0    0 -0.12067198033E+01 -0.22619387281E+01  0.18091657590E+03  0.18093473955E+03  0.00000000000E+00 0.  1.
         11    1    1    2    0    0 -0.51777827652E+01 -0.23616480888E+01 -0.15158401165E+03  0.15169080197E+03  0.00000000000E+00 0. -1.
        -15    1    1    2    0    0  0.30554198088E+01  0.11168939572E+01 -0.13866686483E+01  0.39577293060E+01  0.17770000000E+01 0.  1.
         15    1    1    2    0    0  0.33290827597E+01  0.35066928597E+01 -0.27945895606E+02  0.28416729176E+02  0.17770000000E+01 0. -1.
</event>
<event>
 6    1  0.8353910E-003  0.1849501E+03  0.7546771E-02  0.1066521E+00
        -11   -1    0    0    0    0  0.00000000000E+00  0.00000000000E+00  0.18250000000E+03  0.18250000000E+03  0.00000000000E+00 0.  1.
         11   -1    0    0    0    0 -0.00000000000E+00 -0.00000000000E+00 -0.18250000000E+03  0.18250000000E+03  0.00000000000E+00 0.  1.
        -11    1    1    2    0    0  0.14631623368E+01  0.24379628295E+01  0.18002746941E+03  0.18004992155E+03  0.00000000000E+00 0.  1.
         11    1    1    2    0    0  0.67496265151E+01  0.49054264897E+01 -0.14679930043E+03  0.14703623796E+03  0.00000000000E+00 0.  1.
        -15    1    1    2    0    0  0.30036581437E+01 -0.57792017420E+01 -0.13593135584E+02  0.15177358105E+02  0.17770000000E+01 0. -1.
         15    1    1    2    0    0 -0.11216446996E+02 -0.15641875772E+01 -0.19635033397E+02  0.22736482390E+02  0.17770000000E+01 0.  1.
</event>
<event>
 6    1  0.8353910E-003  0.1937629E+03  0.7546771E-02  0.1059827E+00
        -11   -1    0    0    0    0  0.00000000000E+00  0.00000000000E+00  0.18250000000E+03  0.18250000000E+03  0.00000000000E+00 0. -1.
         11   -1    0    0    0    0 -0.00000000000E+00 -0.00000000000E+00 -0.18250000000E+03  0.18250000000E+03  0.00000000000E+00 0.  1.
        -11    1    1    2    0    0 -0.26873139142E+01 -0.27591446298E+01  0.17119373106E+03  0.17123705232E+03  0.00000000000E+00 0. -1.
         11    1    1    2    0    0  0.32255089282E+01  0.24659210070E+01 -0.16913442976E+03  0.16918315521E+03  0.00000000000E+00 0.  1.
        -15    1    1    2    0    0  0.11170264091E+01  0.11294167035E+02  0.35110065978E+01  0.12012112776E+02  0.17770000000E+01 0.  1.
         15    1    1    2    0    0 -0.16552214231E+01 -0.11000943413E+02 -0.55703078919E+01  0.12567679696E+02  0.17770000000E+01 0. -1.
</event>
<event>
 6    1  0.8353910E-003  0.1972408E+03  0.7546771E-02  0.1057291E+00
        -11   -1    0    0    0    0  0.00000000000E+00  0.00000000000E+00  0.18250000000E+03  0.18250000000E+03  0.00000000000E+00 0. -1.
         11   -1    0    0    0    0 -0.00000000000E+00 -0.00000000000E+00 -0.18250000000E+03  0.18250000000E+03  0.00000000000E+00 0.  1.
        -11    1    1    2    0    0  0.38356340155E+01  0.93696511995E+01  0.13365543737E+03  0.13403834672E+03  0.00000000000E+00 0. -1.
         11    1    1    2    0    0  0.21845533217E+01 -0.13203255869E+02 -0.16722452838E+03  0.16775917600E+03  0.00000000000E+00 0.  1.
        -15    1    1    2    0    0 -0.72224703444E+01  0.74593412011E+01  0.47497125038E+02  0.48651212369E+02  0.17770000000E+01 0. -1.
         15    1    1    2    0    0  0.12022830072E+01 -0.36257365315E+01 -0.13928034028E+02  0.14551264918E+02  0.17770000000E+01 0.  1.
</event>
<event>
 6    1  0.8353910E-003  0.1830736E+03  0.7546771E-02  0.1067999E+00
        -11   -1    0    0    0    0  0.00000000000E+00  0.00000000000E+00  0.18250000000E+03  0.18250000000E+03  0.00000000000E+00 0. -1.
         11   -1    0    0    0    0 -0.00000000000E+00 -0.00000000000E+00 -0.18250000000E+03  0.18250000000E+03  0.00000000000E+00 0.  1.
        -11    1    1    2    0    0  0.18680028738E+01  0.70978333943E-02  0.11788046955E+03  0.11789526957E+03  0.00000000000E+00 0. -1.
         11    1    1    2    0    0 -0.46654903480E+01 -0.22790669497E+01 -0.18185224513E+03  0.18192635875E+03  0.00000000000E+00 0.  1.
        -15    1    1    2    0    0  0.48301632868E+01  0.31652494947E+01  0.15694098576E+02  0.16817007488E+02  0.17770000000E+01 0.  1.
         15    1    1    2    0    0 -0.20326758126E+01 -0.89328037838E+00  0.48277677003E+02  0.48361364193E+02  0.17770000000E+01 0. -1.
</event>
<event>
 6    1  0.8353910E-003  0.1829030E+03  0.7546771E-02  0.1068134E+00
        -11   -1    0    0    0    0  0.00000000000E+00  0.00000000000E+00  0.18250000000E+03  0.18250000000E+03  0.00000000000E+00 0.  1.
         11   -1    0    0    0    0 -0.00000000000E+00 -0.00000000000E+00 -0.18250000000E+03  0.18250000000E+03  0.00000000000E+00 0.  1.
        -11    1    1    2    0    0  0.32654968011E+01  0.22047551672E+01  0.18205438477E+03  0.18209701653E+03  0.00000000000E+00 0.  1.
         11    1    1    2    0    0  0.39025191081E+01 -0.92237122876E+00 -0.27161348603E+02  0.27455769558E+02  0.00000000000E+00 0.  1.
        -15    1    1    2    0    0 -0.56782287535E+01  0.22993101089E+01 -0.13236910585E+03  0.13252270380E+03  0.17770000000E+01 0.  1.
         15    1    1    2    0    0 -0.14897871557E+01 -0.35816940473E+01 -0.22523930318E+02  0.22924510114E+02  0.17770000000E+01 0. -1.
</event>
<event>
 6    1  0.8353910E-003  0.1844188E+03  0.7546771E-02  0.1066938E+00
        -11   -1    0    0    0    0  0.00000000000E+00  0.00000000000E+00  0.18250000000E+03  0.18250000000E+03  0.00000000000E+00 0.  1.
         11   -1    0    0    0    0 -0.00000000000E+00 -0.00000000000E+00 -0.18250000000E+03  0.18250000000E+03  0.00000000000E+00 0.  1.
        -11    1    1    2    0    0  0.48250664538E+01 -0.20517302204E+01  0.83841073059E+02  0.84004859353E+02  0.00000000000E+00 0.  1.
         11    1    1    2    0    0 -0.28773405189E+01  0.16102698303E+00 -0.18055815720E+03  0.18058115392E+03  0.00000000000E+00 0.  1.
        -15    1    1    2    0    0  0.93510906953E+01  0.60548475238E+01  0.22122072838E+02  0.24832396408E+02  0.17770000000E+01 0. -1.
         15    1    1    2    0    0 -0.11298816630E+02 -0.41641442864E+01  0.74595011305E+02  0.75581590321E+02  0.17770000000E+01 0.  1.
</event>
<event>
 6    1  0.8353910E-003  0.1829935E+03  0.7546771E-02  0.1068063E+00
        -11   -1    0    0    0    0  0.00000000000E+00  0.00000000000E+00  0.18250000000E+03  0.18250000000E+03  0.00000000000E+00 0. -1.
         11   -1    0    0    0    0 -0.00000000000E+00 -0.00000000000E+00 -0.18250000000E+03  0.18250000000E+03  0.00000000000E+00 0.  1.
        -11    1    1    2    0    0  0.96951141131E+00 -0.20508753777E+01  0.14046311258E+03  0.14048142952E+03  0.00000000000E+00 0. -1.
         11    1    1    2    0    0  0.23219040102E+01 -0.45201776839E+01 -0.18193556900E+03  0.18200652327E+03  0.00000000000E+00 0.  1.
        -15    1    1    2    0    0 -0.19632980125E+00  0.44611547604E+01  0.28216193576E+02  0.28622574239E+02  0.17770000000E+01 0. -1.
         15    1    1    2    0    0 -0.30950856203E+01  0.21098983011E+01  0.13256262846E+02  0.13889472973E+02  0.17770000000E+01 0.  1.
</event>
<event>
 6    1  0.8353910E-003  0.1835941E+03  0.7546771E-02  0.1067587E+00
        -11   -1    0    0    0    0  0.00000000000E+00  0.00000000000E+00  0.18250000000E+03  0.18250000000E+03  0.00000000000E+00 0.  1.
         11   -1    0    0    0    0 -0.00000000000E+00 -0.00000000000E+00 -0.18250000000E+03  0.18250000000E+03  0.00000000000E+00 0. -1.
        -11    1    1    2    0    0  0.24609162775E+01 -0.85513987055E+00  0.18138715517E+03  0.18140586383E+03  0.00000000000E+00 0.  1.
         11    1    1    2    0    0 -0.26661464293E+01 -0.51431807738E+00 -0.17813833588E+03  0.17815902887E+03  0.00000000000E+00 0. -1.
        -15    1    1    2    0    0 -0.50910251641E+00  0.30095153674E-01 -0.69948163559E+00  0.19766372072E+01  0.17770000000E+01 0.  1.
         15    1    1    2    0    0  0.71433266821E+00  0.13393627942E+01 -0.25493376548E+01  0.34584700857E+01  0.17770000000E+01 0. -1.
</event>
<event>
 6    1  0.8353910E-003  0.1848810E+03  0.7546771E-02  0.1066575E+00
        -11   -1    0    0    0    0  0.00000000000E+00  0.00000000000E+00  0.18250000000E+03  0.18250000000E+03  0.00000000000E+00 0.  1.
         11   -1    0    0    0    0 -0.00000000000E+00 -0.00000000000E+00 -0.18250000000E+03  0.18250000000E+03  0.00000000000E+00 0.  1.
        -11    1    1    2    0    0 -0.37799448469E+01 -0.72024284924E+00  0.18007785773E+03  0.18011896506E+03  0.00000000000E+00 0.  1.
         11    1    1    2    0    0 -0.57948149924E+01 -0.32911444774E+01 -0.97566997778E+02  0.97794327894E+02  0.00000000000E+00 0.  1.
        -15    1    1    2    0    0  0.40620292828E+01  0.43539089748E+01 -0.80798533988E+02  0.81037136109E+02  0.17770000000E+01 0.  1.
         15    1    1    2    0    0  0.55127305565E+01 -0.34252164816E+00 -0.17123259606E+01  0.60495709322E+01  0.17770000000E+01 0. -1.
</event>
<event>
 6    1  0.8353910E-003  0.1873628E+03  0.7546771E-02  0.1064649E+00
        -11   -1    0    0    0    0  0.00000000000E+00  0.00000000000E+00  0.18250000000E+03  0.18250000000E+03  0.00000000000E+00 0.  1.
         11   -1    0    0    0    0 -0.00000000000E+00 -0.00000000000E+00 -0.18250000000E+03  0.18250000000E+03  0.00000000000E+00 0.  1.
        -11    1    1    2    0    0 -0.36666502385E+01 -0.21533689756E+00  0.14236660255E+03  0.14241397479E+03  0.00000000000E+00 0.  1.
         11    1    1    2    0    0 -0.24184764516E+01 -0.17134538426E+01 -0.17761251118E+03  0.17763724013E+03  0.00000000000E+00 0.  1.
        -15    1    1    2    0    0  0.12110567204E+02 -0.54492728165E+01  0.70621363177E+01  0.15145689506E+02  0.17770000000E+01 0.  1.
         15    1    1    2    0    0 -0.60254405141E+01  0.73780635566E+01  0.28183772315E+02  0.29803095579E+02  0.17770000000E+01 0. -1.
</event>
<event>
 6    1  0.8353910E-003  0.1880281E+03  0.7546771E-02  0.1064138E+00
        -11   -1    0    0    0    0  0.00000000000E+00  0.00000000000E+00  0.18250000000E+03  0.18250000000E+03  0.00000000000E+00 0.  1.
         11   -1    0    0    0    0 -0.00000000000E+00 -0.00000000000E+00 -0.18250000000E+03  0.18250000000E+03  0.00000000000E+00 0. -1.
        -11    1    1    2    0    0 -0.21724224047E+01 -0.18320141438E+01  0.17367654458E+03  0.17369979226E+03  0.00000000000E+00 0.  1.
         11    1    1    2    0    0  0.20279703037E+01 -0.30428026604E+01 -0.17693409722E+03  0.17697187933E+03  0.00000000000E+00 0. -1.
        -15    1    1    2    0    0  0.27705385632E+00  0.66936438542E+00 -0.47426304050E+01  0.51161586838E+01  0.17770000000E+01 0.  1.
         15    1    1    2    0    0 -0.13260175533E+00  0.42054524188E+01  0.80001830491E+01  0.92121697277E+01  0.17770000000E+01 0. -1.
</event>
<event>
 6    1  0.8353910E-003  0.1838271E+03  0.7546771E-02  0.1067403E+00
        -11   -1    0    0    0    0  0.00000000000E+00  0.00000000000E+00  0.18250000000E+03  0.18250000000E+03  0.00000000000E+00 0.  1.
         11   -1    0    0    0    0 -0.00000000000E+00 -0.00000000000E+00 -0.18250000000E+03  0.18250000000E+03  0.00000000000E+00 0. -1.
        -11    1    1    2    0    0 -0.25127358008E+02 -0.33954447491E+02  0.17617979343E+03  0.18117286838E+03  0.00000000000E+00 0.  1.
         11    1    1    2    0    0  0.93971741982E+00 -0.18552000623E+00 -0.33814295516E+02  0.33827859343E+02  0.00000000000E+00 0. -1.
        -15    1    1    2    0    0  0.21151740054E+01  0.44265343602E+01 -0.52984421089E+02  0.53240724776E+02  0.17770000000E+01 0.  1.
         15    1    1    2    0    0  0.22072466582E+02  0.29713433137E+02 -0.89381076827E+02  0.96758547496E+02  0.17770000000E+01 0. -1.
</event>
<event>
 6    1  0.8353910E-003  0.1826452E+03  0.7546771E-02  0.1068339E+00
        -11   -1    0    0    0    0  0.00000000000E+00  0.00000000000E+00  0.18250000000E+03  0.18250000000E+03  0.00000000000E+00 0. -1.
         11   -1    0    0    0    0 -0.00000000000E+00 -0.00000000000E+00 -0.18250000000E+03  0.18250000000E+03  0.00000000000E+00 0. -1.
        -11    1    1    2    0    0  0.17104524058E+01  0.41480119740E+01  0.18229958978E+03  0.18235479727E+03  0.00000000000E+00 0. -1.
         11    1    1    2    0    0  0.61893456370E+00  0.95949154024E-01 -0.32617165503E+02  0.32623178442E+02  0.00000000000E+00 0. -1.
        -15    1    1    2    0    0 -0.43948975524E+01 -0.49470739632E+01 -0.83845982573E+02  0.84125472884E+02  0.17770000000E+01 0. -1.
         15    1    1    2    0    0  0.20655105829E+01  0.70311283515E+00 -0.65836441708E+02  0.65896551407E+02  0.17770000000E+01 0. -1.
</event>
<event>
 6    1  0.8353910E-003  0.1953900E+03  0.7546771E-02  0.1058634E+00
        -11   -1    0    0    0    0  0.00000000000E+00  0.00000000000E+00  0.18250000000E+03  0.18250000000E+03  0.00000000000E+00 0. -1.
         11   -1    0    0    0    0 -0.00000000000E+00 -0.00000000000E+00 -0.18250000000E+03  0.18250000000E+03  0.00000000000E+00 0. -1.
        -11    1    1    2    0    0  0.22287660539E+01 -0.16474117228E+01  0.10448947717E+03  0.10452622734E+03  0.00000000000E+00 0. -1.
         11    1    1    2    0    0  0.79967039924E+00  0.30287780677E+01 -0.16958110614E+03  0.16961003664E+03  0.00000000000E+00 0. -1.
        -15    1    1    2    0    0 -0.72654540857E+01  0.36329553692E+01  0.76840128369E+02  0.77288732973E+02  0.17770000000E+01 0. -1.
         15    1    1    2    0    0  0.42370176325E+01 -0.50143217141E+01 -0.11748499392E+02  0.13575003043E+02  0.17770000000E+01 0.  1.
</event>
<event>
 6    1  0.8353910E-003  0.1666382E+03  0.7546771E-02  0.1081832E+00
        -11   -1    0    0    0    0  0.00000000000E+00  0.00000000000E+00  0.18250000000E+03  0.18250000000E+03  0.00000000000E+00 0. -1.
         11   -1    0    0    0    0 -0.00000000000E+00 -0.00000000000E+00 -0.18250000000E+03  0.18250000000E+03  0.00000000000E+00 0. -1.
        -11    1    1    2    0    0  0.17135278710E+02  0.63329230971E+01  0.16678177023E+03  0.16777926741E+03  0.00000000000E+00 0. -1.
         11    1    1    2    0    0  0.33216793812E+01  0.45446210619E+01 -0.16620677284E+03  0.16630206995E+03  0.00000000000E+00 0. -1.
        -15    1    1    2    0    0  0.45092421495E+00 -0.43459812676E+01 -0.66177536754E+01  0.81267015778E+01  0.17770000000E+01 0. -1.
         15    1    1    2    0    0 -0.20907882306E+02 -0.65315628914E+01  0.60427562792E+01  0.22791961056E+02  0.17770000000E+01 0. -1.
</event>
<event>
 6    1  0.8353910E-003  0.1949751E+03  0.7546771E-02  0.1058937E+00
        -11   -1    0    0    0    0  0.00000000000E+00  0.00000000000E+00  0.18250000000E+03  0.18250000000E+03  0.00000000000E+00 0.  1.
         11   -1    0    0    0    0 -0.00000000000E+00 -0.00000000000E+00 -0.18250000000E+03  0.18250000000E+03  0.00000000000E+00 0.  1.
        -11    1    1    2    0    0 -0.12566160993E+01  0.32296076566E+01  0.16998961841E+03  0.17002493881E+03  0.00000000000E+00 0.  1.
         11    1    1    2    0    0  0.18903317938E+01 -0.61700030708E+01 -0.16549541557E+03  0.16562117880E+03  0.00000000000E+00 0.  1.
        -15    1    1    2    0    0 -0.11949221723E+02 -0.51931992014E+01 -0.72826283622E+01  0.15031554231E+02  0.17770000000E+01 0. -1.
         15    1    1    2    0    0  0.11315506028E+02  0.81335946157E+01  0.27884255167E+01  0.14322328160E+02  0.17770000000E+01 0.  1.
</event>
<event>
 6    1  0.8353910E-003  0.1829716E+03  0.7546771E-02  0.1068080E+00
        -11   -1    0    0    0    0  0.00000000000E+00  0.00000000000E+00  0.18250000000E+03  0.18250000000E+03  0.00000000000E+00 0. -1.
         11   -1    0    0    0    0 -0.00000000000E+00 -0.00000000000E+00 -0.18250000000E+03  0.18250000000E+03  0.00000000000E+00 0. -1.
        -11    1    1    2    0    0  0.25447362425E+01  0.25251838804E+00  0.34347340959E+02  0.34442405245E+02  0.00000000000E+00 0. -1.
         11    1    1    2    0    0  0.11568018512E+02  0.44685764000E+01 -0.18160552821E+03  0.18202844586E+03  0.00000000000E+00 0. -1.
        -15    1    1    2    0    0 -0.12417310218E+02 -0.19899602870E+01  0.13777998765E+03  0.13836412924E+03  0.17770000000E+01 0. -1.
         15    1    1    2    0    0 -0.16954445355E+01 -0.27311345010E+01  0.94781996007E+01  0.10165019651E+02  0.17770000000E+01 0.  1.
</event>
<event>
 6    1  0.8353910E-003  0.1881435E+03  0.7546771E-02  0.1064049E+00
        -11   -1    0    0    0    0  0.00000000000E+00  0.00000000000E+00  0.18250000000E+03  0.18250000000E+03  0.00000000000E+00 0.  1.
         11   -1    0    0    0    0 -0.00000000000E+00 -0.00000000000E+00 -0.18250000000E+03  0.18250000000E+03  0.00000000000E+00 0. -1.
        -11    1    1    2    0    0 -0.32451384964E+01  0.22925970222E+01  0.17681188130E+03  0.17685651895E+03  0.00000000000E+00 0.  1.
         11    1    1    2    0    0  0.14711504431E+01 -0.30276428898E+01 -0.17240549422E+03  0.17243835229E+03  0.00000000000E+00 0. -1.
        -15    1    1    2    0    0 -0.58370467924E+01  0.19423387383E+01 -0.44480783063E+01  0.77965969916E+01  0.17770000000E+01 0. -1.
         15    1    1    2    0    0  0.76110348458E+01 -0.12072928708E+01  0.41691220658E-01  0.79085317637E+01  0.17770000000E+01 0.  1.
</event>
<event>
 6    1  0.9119860E-003  0.1879683E+03  0.7546771E-02  0.1064183E+00
        -11   -1    0    0    0    0  0.00000000000E+00  0.00000000000E+00  0.18250000000E+03  0.18250000000E+03  0.00000000000E+00 0. -1.
         11   -1    0    0    0    0 -0.00000000000E+00 -0.00000000000E+00 -0.18250000000E+03  0.18250000000E+03  0.00000000000E+00 0. -1.
        -11    1    1    2    0    0 -0.75375913553E+00 -0.99087089257E+01  0.11595227149E+03  0.11637731707E+03  0.00000000000E+00 0. -1.
         11    1    1    2    0    0  0.79449029773E+00  0.10551959042E+02 -0.17671512408E+03  0.17703166421E+03  0.00000000000E+00 0. -1.
        -15    1    1    2    0    0  0.62004181391E+00 -0.84660850174E+01 -0.15073095248E+01  0.88027699264E+01  0.17770000000E+01 0.  1.
         15    1    1    2    0    0 -0.66077297611E+00  0.78228349007E+01  0.62270162121E+02  0.62788248792E+02  0.17770000000E+01 0.  1.
</event>
<event>
 6    1  0.8353910E-003  0.1895154E+03  0.7546771E-02  0.1063004E+00
        -11   -1    0    0    0    0  0.00000000000E+00  0.00000000000E+00  0.18250000000E+03  0.18250000000E+03  0.00000000000E+00 0.  1.
         11   -1    0    0    0    0 -0.00000000000E+00 -0.00000000000E+00 -0.18250000000E+03  0.18250000000E+03  0.00000000000E+00 0. -1.
        -11    1    1    2    0    0  0.19738545089E+01  0.50664367100E+01  0.15469657258E+03  0.15479210074E+03  0.00000000000E+00 0.  1.
         11    1    1    2    0    0 -0.34046329463E+01  0.17588443153E+01 -0.17544279552E+03  0.17548464194E+03  0.00000000000E+00 0. -1.
        -15    1    1    2    0    0  0.36035924623E+01  0.35664671939E-01 -0.58591108783E+01  0.71045098274E+01  0.17770000000E+01 0. -1.
         15    1    1    2    0    0 -0.21728140249E+01 -0.68609456973E+01  0.26605333811E+02  0.27618747489E+02  0.17770000000E+01 0. -1.
</event>
<event>
 6    1  0.8353910E-003  0.1696785E+03  0.7546771E-02  0.1079145E+00
        -11   -1    0    0    0    0  0.00000000000E+00  0.00000000000E+00  0.18250000000E+03  0.18250000000E+03  0.00000000000E+00 0. -1.
         11   -1    0    0    0    0 -0.00000000000E+00 -0.00000000000E+00 -0.18250000000E+03  0.18250000000E+03  0.00000000000E+00 0.  1.
        -11    1    1    2    0    0 -0.89130675670E+01 -0.18646487327E+01  0.16743393772E+03  0.16768137400E+03  0.00000000000E+00 0. -1.
         11    1    1    2    0    0 -0.65398353707E+00 -0.36098291331E+01 -0.17184399767E+03  0.17188315245E+03  0.00000000000E+00 0.  1.
        -15    1    1    2    0    0 -0.55619035947E+00  0.29186830815E+00 -0.81696216847E+01  0.83842102966E+01  0.17770000000E+01 0.  1.
         15    1    1    2    0    0  0.10123241464E+02  0.51826095577E+01  0.12579681634E+02  0.17051263254E+02  0.17770000000E+01 0. -1.
</event>
<event>
 6    1  0.8353910E-003  0.1944628E+03  0.7546771E-02  0.1059312E+00
        -11   -1    0    0    0    0  0.00000000000E+00  0.00000000000E+00  0.18250000000E+03  0.18250000000E+03  0.00000000000E+00 0.  1.
         11   -1    0    0    0    0 -0.00000000000E+00 -0.00000000000E+00 -0.18250000000E+03  0.18250000000E+03  0.00000000000E+00 0. -1.
        -11    1    1    2    0    0  0.23595117754E+02  0.15539392886E+02  0.16818070979E+03  0.17053724948E+03  0.00000000000E+00 0.  1.
         11    1    1    2    0    0 -0.15663154351E+01 -0.53814380221E+00 -0.93051761672E+02  0.93066499306E+02  0.00000000000E+00 0. -1.
        -15    1    1    2    0    0  0.77153566501E+01 -0.16341195875E+02 -0.68467091734E+02  0.70834044007E+02  0.17770000000E+01 0. -1.
         15    1    1    2    0    0 -0.29744158969E+02  0.13399467915E+01 -0.66618563846E+01  0.30562207212E+02  0.17770000000E+01 0. -1.
</event>
<event>
 6    1  0.8353910E-003  0.1832250E+03  0.7546771E-02  0.1067879E+00
        -11   -1    0    0    0    0  0.00000000000E+00  0.00000000000E+00  0.18250000000E+03  0.18250000000E+03  0.00000000000E+00 0. -1.
         11   -1    0    0    0    0 -0.00000000000E+00 -0.00000000000E+00 -0.18250000000E+03  0.18250000000E+03  0.00000000000E+00 0. -1.
        -11    1    1    2    0    0 -0.65100782100E+01 -0.34009490884E+01  0.18162657484E+03  0.18177502650E+03  0.00000000000E+00 0. -1.
         11    1    1    2    0    0 -0.31776343173E+01 -0.14437825900E+01 -0.10768475663E+03  0.10774130442E+03  0.00000000000E+00 0. -1.
        -15    1    1    2    0    0  0.68188701766E+01  0.23544122118E+01 -0.66719862257E+02  0.67132242596E+02  0.17770000000E+01 0. -1.
         15    1    1    2    0    0  0.28688423507E+01  0.24903194666E+01 -0.72219559532E+01  0.83514264811E+01  0.17770000000E+01 0.  1.
</event>
<event>
 6    1  0.8353910E-003  0.1864842E+03  0.7546771E-02  0.1065327E+00
        -11   -1    0    0    0    0  0.00000000000E+00  0.00000000000E+00  0.18250000000E+03  0.18250000000E+03  0.00000000000E+00 0. -1.
         11   -1    0    0    0    0 -0.00000000000E+00 -0.00000000000E+00 -0.18250000000E+03  0.18250000000E+03  0.00000000000E+00 0. -1.
        -11    1    1    2    0    0 -0.52836980937E+01 -0.32368955021E+00  0.17843726427E+03  0.17851576827E+03  0.00000000000E+00 0. -1.
         11    1    1    2    0    0 -0.17691580434E+01  0.26914603482E+01 -0.15774696490E+03  0.15777984287E+03  0.00000000000E+00 0. -1.
        -15    1    1    2    0    0 -0.41190691923E+01 -0.11674785885E+01  0.49116981531E+00  0.46614068748E+01  0.17770000000E+01 0. -1.
         15    1    1    2    0    0  0.11171925329E+02 -0.12002922095E+01 -0.21181469184E+02  0.24042981985E+02  0.17770000000E+01 0. -1.
</event>
<event>
 6    1  0.8353910E-003  0.1838361E+03  0.7546771E-02  0.1067396E+00
        -11   -1    0    0    0    0  0.00000000000E+00  0.00000000000E+00  0.18250000000E+03  0.18250000000E+03  0.00000000000E+00 0. -1.
         11   -1    0    0    0    0 -0.00000000000E+00 -0.00000000000E+00 -0.18250000000E+03  0.18250000000E+03  0.00000000000E+00 0.  1.
        -11    1    1    2    0    0  0.48330070809E+01 -0.12356738578E+01  0.96151143558E+02  0.96280461438E+02  0.00000000000E+00 0. -1.
         11    1    1    2    0    0  0.37212912259E+01 -0.46680197675E+01 -0.18106552074E+03  0.18116390705E+03  0.00000000000E+00 0.  1.
        -15    1    1    2    0    0  0.10180381902E+01  0.61792982893E+01  0.95090487673E+01  0.11523882443E+02  0.17770000000E+01 0.  1.
         15    1    1    2    0    0 -0.95723364970E+01 -0.27560466399E+00  0.75405328415E+02  0.76031749068E+02  0.17770000000E+01 0. -1.
</event>
<event>
 6    1  0.8353910E-003  0.1835217E+03  0.7546771E-02  0.1067644E+00
        -11   -1    0    0    0    0  0.00000000000E+00  0.00000000000E+00  0.18250000000E+03  0.18250000000E+03  0.00000000000E+00 0.  1.
         11   -1    0    0    0    0 -0.00000000000E+00 -0.00000000000E+00 -0.18250000000E+03  0.18250000000E+03  0.00000000000E+00 0. -1.
        -11    1    1    2    0    0  0.67995263492E+00 -0.44573225378E+01  0.13398895473E+03  0.13406479795E+03  0.00000000000E+00 0.  1.
         11    1    1    2    0    0 -0.40872046185E+01 -0.78779790102E+00 -0.18143059511E+03  0.18147833675E+03  0.00000000000E+00 0. -1.
        -15    1    1    2    0    0  0.29170694560E+01  0.90783463448E+01  0.34197040833E+02  0.35546040529E+02  0.17770000000E+01 0.  1.
         15    1    1    2    0    0  0.49018252756E+00 -0.38332259059E+01  0.13244599550E+02  0.13910824777E+02  0.17770000000E+01 0. -1.
</event>
<event>
 6    1  0.8353910E-003  0.1852000E+03  0.7546771E-02  0.1066326E+00
        -11   -1    0    0    0    0  0.00000000000E+00  0.00000000000E+00  0.18250000000E+03  0.18250000000E+03  0.00000000000E+00 0. -1.
         11   -1    0    0    0    0 -0.00000000000E+00 -0.00000000000E+00 -0.18250000000E+03  0.18250000000E+03  0.00000000000E+00 0. -1.
        -11    1    1    2    0    0 -0.51083326041E+01  0.19683999987E+01  0.16857768564E+03  0.16866655197E+03  0.00000000000E+00 0. -1.
         11    1    1    2    0    0 -0.31124341636E+01 -0.51325041483E+00 -0.17977231103E+03  0.17979998467E+03  0.00000000000E+00 0. -1.
        -15    1    1    2    0    0  0.40557151379E+00 -0.29252147826E+01  0.58463185847E+01  0.67866442202E+01  0.17770000000E+01 0. -1.
         15    1    1    2    0    0  0.78151952539E+01  0.14700651987E+01  0.53483068115E+01  0.97468191373E+01  0.17770000000E+01 0. -1.
</event>
<event>
 6    1  0.8353910E-003  0.1839767E+03  0.7546771E-02  0.1067285E+00
        -11   -1    0    0    0    0  0.00000000000E+00  0.00000000000E+00  0.18250000000E+03  0.18250000000E+03  0.00000000000E+00 0.  1.
         11   -1    0    0    0    0 -0.00000000000E+00 -0.00000000000E+00 -0.18250000000E+03  0.18250000000E+03  0.00000000000E+00 0. -1.
        -11    1    1    2    0    0  0.80995092118E+00  0.25107101350E+01  0.55345748994E+02  0.55408587941E+02  0.00000000000E+00 0.  1.
         11    1    1    2    0    0 -0.55159312834E+01  0.14427691145E+02 -0.18036313526E+03  0.18102332537E+03  0.00000000000E+00 0. -1.
        -15    1    1    2    0    0 -0.93209011331E+01 -0.25899879698E+01  0.43599440802E+02  0.44695147420E+02  0.17770000000E+01 0.  1.
         15    1    1    2    0    0  0.14026881495E+02 -0.14348413310E+02  0.81417945461E+02  0.83872939266E+02  0.17770000000E+01 0.  1.
</event>
<event>
 6    1  0.8353910E-003  0.1858974E+03  0.7546771E-02  0.1065782E+00
        -11   -1    0    0    0    0  0.00000000000E+00  0.00000000000E+00  0.18250000000E+03  0.18250000000E+03  0.00000000000E+00 0. -1.
         11   -1    0    0    0    0 -0.00000000000E+00 -0.00000000000E+00 -0.18250000000E+03  0.18250000000E+03  0.00000000000E+00 0.  1.
        -11    1    1    2    0    0 -0.37964656373E+01  0.95789228646E+00  0.17905980296E+03  0.17910260676E+03  0.00000000000E+00 0. -1.
         11    1    1    2    0    0 -0.27379973701E+01 -0.26151790467E+01 -0.15915122148E+03  0.15919625337E+03  0.00000000000E+00 0.  1.
        -15    1    1    2    0    0  0.56838699536E+01  0.13611993197E+01  0.56134319630E+00  0.61344988729E+01  0.17770000000E+01 0.  1.
         15    1    1    2    0    0  0.85059305375E+00  0.29608744061E+00 -0.20469924686E+02  0.20566640998E+02  0.17770000000E+01 0.  1.
</event>
<event>
 6    1  0.8353910E-003  0.1832534E+03  0.7546771E-02  0.1067857E+00
        -11   -1    0    0    0    0  0.00000000000E+00  0.00000000000E+00  0.18250000000E+03  0.18250000000E+03  0.00000000000E+00 0. -1.
         11   -1    0    0    0    0 -0.00000000000E+00 -0.00000000000E+00 -0.18250000000E+03  0.18250000000E+03  0.00000000000E+00 0. -1.
        -11    1    1    2    0    0  0.27985329112E+01  0.15960448453E+01  0.13444456709E+03  0.13448316164E+03  0.00000000000E+00 0. -1.
         11    1    1    2    0    0  0.69912452945E+00  0.66801218277E+01 -0.18162240579E+03  0.18174655729E+03  0.00000000000E+00 0. -1.
        -15    1    1    2    0    0 -0.95151151197E+00  0.12285128379E+01  0.92962979078E+01  0.95913242955E+01  0.17770000000E+01 0. -1.
         15    1    1    2    0    0 -0.25461459287E+01 -0.95046795110E+01  0.37881540791E+02  0.39178956768E+02  0.17770000000E+01 0. -1.
</event>
<event>
 6    1  0.8353910E-003  0.1874562E+03  0.7546771E-02  0.1064577E+00
        -11   -1    0    0    0    0  0.00000000000E+00  0.00000000000E+00  0.18250000000E+03  0.18250000000E+03  0.00000000000E+00 0.  1.
         11   -1    0    0    0    0 -0.00000000000E+00 -0.00000000000E+00 -0.18250000000E+03  0.18250000000E+03  0.00000000000E+00 0. -1.
        -11    1    1    2    0    0  0.18592973684E+01  0.18662935346E+01  0.90481310894E+02  0.90519653442E+02  0.00000000000E+00 0.  1.
         11    1    1    2    0    0  0.11804476113E+02  0.13498759683E+01 -0.17714582981E+03  0.17754383357E+03  0.00000000000E+00 0. -1.
        -15    1    1    2    0    0  0.54437582525E+01 -0.64985582266E+01  0.72111238988E+02  0.72629568912E+02  0.17770000000E+01 0. -1.
         15    1    1    2    0    0 -0.19107531734E+02  0.32823887236E+01  0.14553279925E+02  0.24306944075E+02  0.17770000000E+01 0.  1.
</event>
<event>
 6    1  0.8353910E-003  0.1830855E+03  0.7546771E-02  0.1067990E+00
        -11   -1    0    0    0    0  0.00000000000E+00  0.00000000000E+00  0.18250000000E+03  0.18250000000E+03  0.00000000000E+00 0. -1.
         11   -1    0    0    0    0 -0.00000000000E+00 -0.00000000000E+00 -0.18250000000E+03  0.18250000000E+03  0.00000000000E+00 0.  1.
        -11    1    1    2    0    0  0.18434790669E+01 -0.15914612799E+01  0.11937004207E+03  0.11939488309E+03  0.00000000000E+00 0. -1.
         11    1    1    2    0    0  0.37739988863E+01 -0.19733722852E+01 -0.18186460951E+03  0.18191446742E+03  0.00000000000E+00 0.  1.
        -15    1    1    2    0    0 -0.36718153520E+00  0.19813244694E+01  0.34860330447E+01  0.44012071437E+01  0.17770000000E+01 0. -1.
         15    1    1    2    0    0 -0.52502964180E+01  0.15835090958E+01  0.59008534393E+02  0.59289442346E+02  0.17770000000E+01 0. -1.
</event>
<event>
 6    1  0.8353910E-003  0.1883457E+03  0.7546771E-02  0.1063895E+00
        -11   -1    0    0    0    0  0.00000000000E+00  0.00000000000E+00  0.18250000000E+03  0.18250000000E+03  0.00000000000E+00 0.  1.
         11   -1    0    0    0    0 -0.00000000000E+00 -0.00000000000E+00 -0.18250000000E+03  0.18250000000E+03  0.00000000000E+00 0.  1.
        -11    1    1    2    0    0 -0.84233874130E+01  0.29956862735E+01  0.17642795214E+03  0.17665432315E+03  0.00000000000E+00 0.  1.
         11    1    1    2    0    0 -0.24899481799E+01  0.10714507555E+01 -0.15870426827E+03  0.15872741608E+03  0.00000000000E+00 0.  1.
        -15    1    1    2    0    0  0.60080952754E+01 -0.48721518525E+01  0.28079316592E+01  0.84188646333E+01  0.17770000000E+01 0. -1.
         15    1    1    2    0    0  0.49052403175E+01  0.80501482340E+00 -0.20531615527E+02  0.21199396137E+02  0.17770000000E+01 0.  1.
</event>
<event>
 6    1  0.8353910E-003  0.1832730E+03  0.7546771E-02  0.1067841E+00
        -11   -1    0    0    0    0  0.00000000000E+00  0.00000000000E+00  0.18250000000E+03  0.18250000000E+03  0.00000000000E+00 0.  1.
         11   -1    0    0    0    0 -0.00000000000E+00 -0.00000000000E+00 -0.18250000000E+03  0.18250000000E+03  0.00000000000E+00 0. -1.
        -11    1    1    2    0    0 -0.31855615831E+00  0.44143869873E+01  0.14738844980E+03  0.14745488607E+03  0.00000000000E+00 0.  1.
         11    1    1    2    0    0 -0.28983056020E+01 -0.19421991069E+01 -0.18169349687E+03  0.18172699062E+03  0.00000000000E+00 0. -1.
        -15    1    1    2    0    0  0.17884704774E+01  0.46184088850E+00  0.18745758857E+01  0.31754822320E+01  0.17770000000E+01 0. -1.
         15    1    1    2    0    0  0.14283912829E+01 -0.29340287689E+01  0.32430471185E+02  0.32642641081E+02  0.17770000000E+01 0.  1.
</event>
<event>
 6    1  0.8353910E-003  0.1852941E+03  0.7546771E-02  0.1066252E+00
        -11   -1    0    0    0    0  0.00000000000E+00  0.00000000000E+00  0.18250000000E+03  0.18250000000E+03  0.00000000000E+00 0.  1.
         11   -1    0    0    0    0 -0.00000000000E+00 -0.00000000000E+00 -0.18250000000E+03  0.18250000000E+03  0.00000000000E+00 0.  1.
        -11    1    1    2    0    0 -0.28507082295E+01 -0.49190193254E+01  0.17961597370E+03  0.17970593006E+03  0.00000000000E+00 0.  1.
         11    1    1    2    0    0 -0.78688623375E+01  0.12895508659E+01 -0.10122089904E+03  0.10153448842E+03  0.00000000000E+00 0.  1.
        -15    1    1    2    0    0 -0.29286114303E+01  0.92042184351E+00  0.53987649677E+00  0.35879153991E+01  0.17770000000E+01 0. -1.
         15    1    1    2    0    0  0.13648181997E+02  0.27090466160E+01 -0.78934951156E+02  0.80171666120E+02  0.17770000000E+01 0.  1.
</event>
<event>
 6    1  0.8353910E-003  0.1835230E+03  0.7546771E-02  0.1067643E+00
        -11   -1    0    0    0    0  0.00000000000E+00  0.00000000000E+00  0.18250000000E+03  0.18250000000E+03  0.00000000000E+00 0.  1.
         11   -1    0    0    0    0 -0.00000000000E+00 -0.00000000000E+00 -0.18250000000E+03  0.18250000000E+03  0.00000000000E+00 0.  1.
        -11    1    1    2    0    0 -0.59245829859E+01 -0.84635582776E+01  0.18118267796E+03  0.18147698282E+03  0.00000000000E+00 0.  1.
         11    1    1    2    0    0  0.14185962737E+01 -0.20358781948E+01 -0.84964367031E+02  0.85000593412E+02  0.00000000000E+00 0.  1.
        -15    1    1    2    0    0  0.56066126515E+00  0.33329487438E+01 -0.81503793142E+02  0.81593191591E+02  0.17770000000E+01 0.  1.
         15    1    1    2    0    0  0.39453254471E+01  0.71664877287E+01 -0.14714517787E+02  0.16929232173E+02  0.17770000000E+01 0. -1.
</event>
<event>
 6    1  0.8353910E-003  0.1830542E+03  0.7546771E-02  0.1068015E+00
        -11   -1    0    0    0    0  0.00000000000E+00  0.00000000000E+00  0.18250000000E+03  0.18250000000E+03  0.00000000000E+00 0. -1.
         11   -1    0    0    0    0 -0.00000000000E+00 -0.00000000000E+00 -0.18250000000E+03  0.18250000000E+03  0.00000000000E+00 0. -1.
        -11    1    1    2    0    0  0.10205109451E+02 -0.26095766991E+01  0.18164061413E+03  0.18194577998E+03  0.00000000000E+00 0. -1.
         11    1    1    2    0    0  0.25633437253E+01  0.37584697764E+01 -0.97900132132E+02  0.98005778899E+02  0.00000000000E+00 0. -1.
        -15    1    1    2    0    0 -0.55229433871E+01  0.23589202407E+01 -0.45533582358E+02  0.45962291716E+02  0.17770000000E+01 0. -1.
         15    1    1    2    0    0 -0.72455097886E+01 -0.35078133181E+01 -0.38206899641E+02  0.39086149408E+02  0.17770000000E+01 0.  1.
</event>
<event>
 6    1  0.8353910E-003  0.1833946E+03  0.7546771E-02  0.1067745E+00
        -11   -1    0    0    0    0  0.00000000000E+00  0.00000000000E+00  0.18250000000E+03  0.18250000000E+03  0.00000000000E+00 0.  1.
         11   -1    0    0    0    0 -0.00000000000E+00 -0.00000000000E+00 -0.18250000000E+03  0.18250000000E+03  0.00000000000E+00 0.  1.
        -11    1    1    2    0    0  0.11786540570E+01  0.25419294925E+01  0.18158383035E+03  0.18160544616E+03  0.00000000000E+00 0.  1.
         11    1    1    2    0    0 -0.14807631037E+01  0.56254198854E+01 -0.10313691011E+03  0.10330082398E+03  0.00000000000E+00 0.  1.
        -15    1    1    2    0    0  0.52399398592E+01 -0.43944193914E+01 -0.62328384579E+02  0.62727610705E+02  0.17770000000E+01 0.  1.
         15    1    1    2    0    0 -0.49378308126E+01 -0.37729299866E+01 -0.16118535657E+02  0.17366119156E+02  0.17770000000E+01 0. -1.
</event>
<event>
 6    1  0.8353910E-003  0.2039247E+03  0.7546771E-02  0.1052574E+00
        -11   -1    0    0    0    0  0.00000000000E+00  0.00000000000E+00  0.18250000000E+03  0.18250000000E+03  0.00000000000E+00 0.  1.
         11   -1    0    0    0    0 -0.00000000000E+00 -0.00000000000E+00 -0.18250000000E+03  0.18250000000E+03  0.00000000000E+00 0.  1.
        -11    1    1    2    0    0  0.19831519484E+02 -0.28008181695E+02  0.92978821672E+02  0.99110083677E+02  0.00000000000E+00 0.  1.
         11    1    1    2    0    0  0.52210512024E+01  0.39680679708E+01 -0.16094170172E+03  0.16107525040E+03  0.00000000000E+00 0.  1.
        -15    1    1    2    0    0 -0.20132334852E+02  0.25025283896E+02  0.82918794363E+02  0.88939642051E+02  0.17770000000E+01 0.  1.
         15    1    1    2    0    0 -0.49202358345E+01 -0.98517017111E+00 -0.14955914318E+02  0.15875023875E+02  0.17770000000E+01 0. -1.
</event>
<event>
 6    1  0.8353910E-003  0.1830719E+03  0.7546771E-02  0.1068001E+00
        -11   -1    0    0    0    0  0.00000000000E+00  0.00000000000E+00  0.18250000000E+03  0.18250000000E+03  0.00000000000E+00 0. -1.
         11   -1    0    0    0    0 -0.00000000000E+00 -0.00000000000E+00 -0.18250000000E+03  0.18250000000E+03  0.00000000000E+00 0.  1.
        -11    1    1    2    0    0 -0.28254649443E+01 -0.11609473943E+01  0.18190249523E+03  0.18192814192E+03  0.00000000000E+00 0. -1.
         11    1    1    2    0    0 -0.31726491192E+01  0.11311734322E+01 -0.13232570168E+03  0.13236856342E+03  0.00000000000E+00 0.  1.
        -15    1    1    2    0    0  0.39736293075E+01  0.12527689660E+00 -0.46094234822E+02  0.46299477719E+02  0.17770000000E+01 0.  1.
         15    1    1    2    0    0  0.20244847560E+01 -0.95502934463E-01 -0.34825587280E+01  0.44038169389E+01  0.17770000000E+01 0. -1.
</event>
<event>
 6    1  0.8353910E-003  0.1841627E+03  0.7546771E-02  0.1067139E+00
        -11   -1    0    0    0    0  0.00000000000E+00  0.00000000000E+00  0.18250000000E+03  0.18250000000E+03  0.00000000000E+00 0.  1.
         11   -1    0    0    0    0 -0.00000000000E+00 -0.00000000000E+00 -0.18250000000E+03  0.18250000000E+03  0.00000000000E+00 0.  1.
        -11    1    1    2    0    0 -0.17543823922E+01  0.39870797905E+01  0.14668375902E+03  0.14674842358E+03  0.00000000000E+00 0.  1.
         11    1    1    2    0    0  0.19308451748E+01 -0.16714945841E+01 -0.18081926693E+03  0.18083730077E+03  0.00000000000E+00 0.  1.
        -15    1    1    2    0    0  0.43245490970E+01  0.38029560745E+01  0.72916592487E+01  0.94599272405E+01  0.17770000000E+01 0. -1.
         15    1    1    2    0    0 -0.45010118796E+01 -0.61185412809E+01  0.26843848659E+02  0.27954348413E+02  0.17770000000E+01 0.  1.
</event>
<event>
 6    1  0.8353910E-003  0.1754683E+03  0.7546771E-02  0.1074194E+00
        -11   -1    0    0    0    0  0.00000000000E+00  0.00000000000E+00  0.18250000000E+03  0.18250000000E+03  0.00000000000E+00 0.  1.
         11   -1    0    0    0    0 -0.00000000000E+00 -0.00000000000E+00 -0.18250000000E+03  0.18250000000E+03  0.00000000000E+00 0. -1.
        -11    1    1    2    0    0  0.31713278332E+00 -0.54061488872E+01  0.17324723064E+03  0.17333184919E+03  0.00000000000E+00 0.  1.
         11    1    1    2    0    0 -0.87168438143E+01  0.17910355418E+01 -0.17752698575E+03  0.17774988563E+03  0.00000000000E+00 0. -1.
        -15    1    1    2    0    0 -0.11563163070E+01  0.33591640186E-01 -0.93927423529E+00  0.23190862186E+01  0.17770000000E+01 0. -1.
         15    1    1    2    0    0  0.95560273379E+01  0.35815217052E+01  0.52190293380E+01  0.11599178955E+02  0.17770000000E+01 0.  1.
</event>
<event>
 6    1  0.8353910E-003  0.1826355E+03  0.7546771E-02  0.1068347E+00
        -11   -1    0    0    0    0  0.00000000000E+00  0.00000000000E+00  0.18250000000E+03  0.18250000000E+03  0.00000000000E+00 0.  1.
         11   -1    0    0    0    0 -0.00000000000E+00 -0.00000000000E+00 -0.18250000000E+03  0.18250000000E+03  0.00000000000E+00 0. -1.
        -11    1    1    2    0    0 -0.32294209090E+00 -0.10266072458E+01  0.27472302480E+02  0.27493374067E+02  0.00000000000E+00 0.  1.
         11    1    1    2    0    0  0.35551465860E+01  0.51058676147E+00 -0.18232915696E+03  0.18236452847E+03  0.00000000000E+00 0. -1.
        -15    1    1    2    0    0  0.68840303541E+00  0.10658904150E+01  0.10729311802E+02  0.10949241155E+02  0.17770000000E+01 0.  1.
         15    1    1    2    0    0 -0.39206075305E+01 -0.54986993059E+00  0.14412754268E+03  0.14419285630E+03  0.17770000000E+01 0.  1.
</event>
<event>
 6    1  0.8353910E-003  0.1845010E+03  0.7546771E-02  0.1066873E+00
        -11   -1    0    0    0    0  0.00000000000E+00  0.00000000000E+00  0.18250000000E+03  0.18250000000E+03  0.00000000000E+00 0.  1.
         11   -1    0    0    0    0 -0.00000000000E+00 -0.00000000000E+00 -0.18250000000E+03  0.18250000000E+03  0.00000000000E+00 0. -1.
        -11    1    1    2    0    0  0.17446624573E+00 -0.25255652085E+01  0.16266323928E+03  0.16268293805E+03  0.00000000000E+00 0.  1.
         11    1    1    2    0    0  0.31015071411E+01 -0.23176879486E+01 -0.18045744750E+03  0.18049897890E+03  0.00000000000E+00 0. -1.
        -15    1    1    2    0    0 -0.16990084815E+01  0.29247222468E+01  0.58323960059E-01  0.38212250294E+01  0.17770000000E+01 0.  1.
         15    1    1    2    0    0 -0.15769649053E+01  0.19185309103E+01  0.17735884260E+02  0.17996858021E+02  0.17770000000E+01 0. -1.
</event>
<event>
 6    1  0.8353910E-003  0.1843631E+03  0.7546771E-02  0.1066981E+00
        -11   -1    0    0    0    0  0.00000000000E+00  0.00000000000E+00  0.18250000000E+03  0.18250000000E+03  0.00000000000E+00 0.  1.
         11   -1    0    0    0    0 -0.00000000000E+00 -0.00000000000E+00 -0.18250000000E+03  0.18250000000E+03  0.00000000000E+00 0. -1.
        -11    1    1    2    0    0 -0.12059421165E+01 -0.35757424448E+01  0.18059751452E+03  0.18063693554E+03  0.00000000000E+00 0.  1.
         11    1    1    2    0    0 -0.88521309126E+01 -0.40766190556E+01 -0.12163158820E+03  0.12202140096E+03  0.00000000000E+00 0. -1.
        -15    1    1    2    0    0  0.31169750175E+01  0.26216187606E+01 -0.48472506056E+02  0.48675763893E+02  0.17770000000E+01 0.  1.
         15    1    1    2    0    0  0.69410980116E+01  0.50307427399E+01 -0.10493420264E+02  0.13665899603E+02  0.17770000000E+01 0. -1.
</event>
<event>
 6    1  0.8353910E-003  0.1830914E+03  0.7546771E-02  0.1067985E+00
        -11   -1    0    0    0    0  0.00000000000E+00  0.00000000000E+00  0.18250000000E+03  0.18250000000E+03  0.00000000000E+00 0. -1.
         11   -1    0    0    0    0 -0.00000000000E+00 -0.00000000000E+00 -0.18250000000E+03  0.18250000000E+03  0.00000000000E+00 0.  1.
        -11    1    1    2    0    0 -0.18747165261E+01  0.22233427761E+01  0.12835304686E+03  0.12838599010E+03  0.00000000000E+00 0. -1.
         11    1    1    2    0    0  0.43799568628E+01 -0.20548363370E+01 -0.18184425978E+03  0.18190860669E+03  0.00000000000E+00 0.  1.
        -15    1    1    2    0    0  0.10843979400E+01 -0.31082848164E+01  0.42248135167E+02  0.42413441354E+02  0.17770000000E+01 0. -1.
         15    1    1    2    0    0 -0.35896382767E+01  0.29397783774E+01  0.11243077753E+02  0.12291961854E+02  0.17770000000E+01 0.  1.
</event>
<event>
 6    1  0.8353910E-003  0.2122376E+03  0.7546771E-02  0.1046975E+00
        -11   -1    0    0    0    0  0.00000000000E+00  0.00000000000E+00  0.18250000000E+03  0.18250000000E+03  0.00000000000E+00 0.  1.
         11   -1    0    0    0    0 -0.00000000000E+00 -0.00000000000E+00 -0.18250000000E+03  0.18250000000E+03  0.00000000000E+00 0. -1.
        -11    1    1    2    0    0 -0.16039087088E+01 -0.75008581231E+01  0.13586367622E+03  0.13608002760E+03  0.00000000000E+00 0.  1.
         11    1    1    2    0    0 -0.79129287056E+01  0.58973306336E+00 -0.15255615534E+03  0.15276237351E+03  0.00000000000E+00 0. -1.
        -15    1    1    2    0    0  0.39958382322E+01  0.22902470402E+02 -0.23137011621E+02  0.32847662161E+02  0.17770000000E+01 0.  1.
         15    1    1    2    0    0  0.55209991823E+01 -0.15991345343E+02  0.39829490746E+02  0.43309936734E+02  0.17770000000E+01 0.  1.
</event>
<event>
 6    1  0.8353910E-003  0.1857711E+03  0.7546771E-02  0.1065880E+00
        -11   -1    0    0    0    0  0.00000000000E+00  0.00000000000E+00  0.18250000000E+03  0.18250000000E+03  0.00000000000E+00 0.  1.
         11   -1    0    0    0    0 -0.00000000000E+00 -0.00000000000E+00 -0.18250000000E+03  0.18250000000E+03  0.00000000000E+00 0. -1.
        -11    1    1    2    0    0 -0.14303836039E+02  0.33504397036E+01  0.10355573777E+03  0.10459261922E+03  0.00000000000E+00 0.  1.
         11    1    1    2    0    0  0.82835601460E+00 -0.24686459767E+01 -0.17921002119E+03  0.17922893763E+03  0.00000000000E+00 0. -1.
        -15    1    1    2    0    0 -0.82360195730E+00  0.81590442026E+01  0.86597872851E+01  0.12058107949E+02  0.17770000000E+01 0.  1.
         15    1    1    2    0    0  0.14299081982E+02 -0.90408379294E+01  0.66994496143E+02  0.69120335202E+02  0.17770000000E+01 0. -1.
</event>
<event>
 6    1  0.8353910E-003  0.1848917E+03  0.7546771E-02  0.1066567E+00
        -11   -1    0    0    0    0  0.00000000000E+00  0.00000000000E+00  0.18250000000E+03  0.18250000000E+03  0.00000000000E+00 0. -1.
         11   -1    0    0    0    0 -0.00000000000E+00 -0.00000000000E+00 -0.18250000000E+03  0.18250000000E+03  0.00000000000E+00 0. -1.
        -11    1    1    2    0    0 -0.37880680654E+01  0.81637700327E+01  0.17988327113E+03  0.18010826698E+03  0.00000000000E+00 0. -1.
         11    1    1    2    0    0 -0.55028476787E+01 -0.52167269983E+01 -0.16427530662E+03  0.16445021113E+03  0.00000000000E+00 0. -1.
        -15    1    1    2    0    0  0.51114783092E+01 -0.10498026956E+01 -0.18259124970E+01  0.58069769805E+01  0.17770000000E+01 0. -1.
         15    1    1    2    0    0  0.41794374349E+01 -0.18972403388E+01 -0.13782052012E+02  0.14634544914E+02  0.17770000000E+01 0.  1.
</event>
<event>
 6    1  0.8353910E-003  0.1843176E+03  0.7546771E-02  0.1067017E+00
        -11   -1    0    0    0    0  0.00000000000E+00  0.00000000000E+00  0.18250000000E+03  0.18250000000E+03  0.00000000000E+00 0. -1.
         11   -1    0    0    0    0 -0.00000000000E+00 -0.00000000000E+00 -0.18250000000E+03  0.18250000000E+03  0.00000000000E+00 0. -1.
        -11    1    1    2    0    0 -0.27571338402E+01  0.31670953772E+01  0.18063360011E+03  0.18068240027E+03  0.00000000000E+00 0. -1.
         11    1    1    2    0    0 -0.40104190512E+01  0.42635109663E+01 -0.16261537342E+03  0.16272068294E+03  0.00000000000E+00 0. -1.
        -15    1    1    2    0    0  0.67471540598E+01 -0.46055597857E+01 -0.10916339696E+02  0.13749889825E+02  0.17770000000E+01 0. -1.
         15    1    1    2    0    0  0.20398831608E-01 -0.28250465578E+01 -0.71018869959E+01  0.78470269573E+01  0.17770000000E+01 0.  1.
</event>
<event>
 6    1  0.8353910E-003  0.1872531E+03  0.7546771E-02  0.1064733E+00
        -11   -1    0    0    0    0  0.00000000000E+00  0.00000000000E+00  0.18250000000E+03  0.18250000000E+03  0.00000000000E+00 0. -1.
         11   -1    0    0    0    0 -0.00000000000E+00 -0.00000000000E+00 -0.18250000000E+03  0.18250000000E+03  0.00000000000E+00 0. -1.
        -11    1    1    2    0    0  0.55537883200E+00  0.27831390834E+01  0.15733420057E+03  0.15735979466E+03  0.00000000000E+00 0. -1.
         11    1    1    2    0    0  0.95571623992E+01  0.74545556237E+01 -0.17733313088E+03  0.17774686794E+03  0.00000000000E+00 0. -1.
        -15    1    1    2    0    0 -0.27833254642E+01  0.38589767436E+01  0.94833569043E+01  0.10757805972E+02  0.17770000000E+01 0. -1.
         15    1    1    2    0    0 -0.73292157670E+01 -0.14096671451E+02  0.10515573413E+02  0.19135531426E+02  0.17770000000E+01 0. -1.
</event>
<event>
 6    1  0.8353910E-003  0.1850665E+03  0.7546771E-02  0.1066430E+00
        -11   -1    0    0    0    0  0.00000000000E+00  0.00000000000E+00  0.18250000000E+03  0.18250000000E+03  0.00000000000E+00 0. -1.
         11   -1    0    0    0    0 -0.00000000000E+00 -0.00000000000E+00 -0.18250000000E+03  0.18250000000E+03  0.00000000000E+00 0. -1.
        -11    1    1    2    0    0 -0.10707035502E+01  0.35832727553E+01  0.10228278366E+03  0.10235113132E+03  0.00000000000E+00 0. -1.
         11    1    1    2    0    0 -0.31574312819E+01 -0.94321713389E+01 -0.17965840875E+03  0.17993354068E+03  0.00000000000E+00 0. -1.
        -15    1    1    2    0    0  0.82142972654E+00  0.58895993318E+01  0.10519102807E+01  0.62949480794E+01  0.17770000000E+01 0.  1.
         15    1    1    2    0    0  0.34067051056E+01 -0.40700748152E-01  0.76323714809E+02  0.76420379922E+02  0.17770000000E+01 0. -1.
</event>
<event>
 6    1  0.8353910E-003  0.1834836E+03  0.7546771E-02  0.1067675E+00
        -11   -1    0    0    0    0  0.00000000000E+00  0.00000000000E+00  0.18250000000E+03  0.18250000000E+03  0.00000000000E+00 0.  1.
         11   -1    0    0    0    0 -0.00000000000E+00 -0.00000000000E+00 -0.18250000000E+03  0.18250000000E+03  0.00000000000E+00 0.  1.
        -11    1    1    2    0    0  0.17112709763E+01  0.18048697267E+01  0.13444152302E+03  0.13446452735E+03  0.00000000000E+00 0.  1.
         11    1    1    2    0    0 -0.13134654787E+01  0.20704041942E+01 -0.18149981887E+03  0.18151637947E+03  0.00000000000E+00 0.  1.
        -15    1    1    2    0    0 -0.51468132931E-01 -0.16244594261E+01  0.61419579041E+00  0.24852530786E+01  0.17770000000E+01 0. -1.
         15    1    1    2    0    0 -0.34633736470E+00 -0.22508144948E+01  0.46444100063E+02  0.46533840108E+02  0.17770000000E+01 0.  1.
</event>
<event>
 6    1  0.8353910E-003  0.1839246E+03  0.7546771E-02  0.1067326E+00
        -11   -1    0    0    0    0  0.00000000000E+00  0.00000000000E+00  0.18250000000E+03  0.18250000000E+03  0.00000000000E+00 0.  1.
         11   -1    0    0    0    0 -0.00000000000E+00 -0.00000000000E+00 -0.18250000000E+03  0.18250000000E+03  0.00000000000E+00 0. -1.
        -11    1    1    2    0    0 -0.35977616395E+01  0.62077042727E+00  0.18103858559E+03  0.18107539512E+03  0.00000000000E+00 0.  1.
         11    1    1    2    0    0  0.34275315601E+01  0.64426883249E+00 -0.16689101987E+03  0.16692745601E+03  0.00000000000E+00 0. -1.
        -15    1    1    2    0    0 -0.39689065284E+01 -0.13651826862E+01 -0.94298430180E+01  0.10473567260E+02  0.17770000000E+01 0. -1.
         15    1    1    2    0    0  0.41391366077E+01  0.10014342647E+00 -0.47177227005E+01  0.65235816115E+01  0.17770000000E+01 0. -1.
</event>
<event>
 6    1  0.8353910E-003  0.1900548E+03  0.7546771E-02  0.1062595E+00
        -11   -1    0    0    0    0  0.00000000000E+00  0.00000000000E+00  0.18250000000E+03  0.18250000000E+03  0.00000000000E+00 0.  1.
         11   -1    0    0    0    0 -0.00000000000E+00 -0.00000000000E+00 -0.18250000000E+03  0.18250000000E+03  0.00000000000E+00 0.  1.
        -11    1    1    2    0    0 -0.27701232879E+01 -0.29053258409E+01  0.16169394209E+03  0.16174376467E+03  0.00000000000E+00 0.  1.
         11    1    1    2    0    0 -0.70078078525E+01 -0.27060725841E+01 -0.17478380147E+03  0.17494516129E+03  0.00000000000E+00 0.  1.
        -15    1    1    2    0    0  0.55876743617E+01  0.70266966267E+01  0.18778285462E+02  0.20889669795E+02  0.17770000000E+01 0.  1.
         15    1    1    2    0    0  0.41902567787E+01 -0.14152982017E+01 -0.56884260739E+01  0.74214042519E+01  0.17770000000E+01 0. -1.
</event>
<event>
 6    1  0.8353910E-003  0.1835906E+03  0.7546771E-02  0.1067590E+00
        -11   -1    0    0    0    0  0.00000000000E+00  0.00000000000E+00  0.18250000000E+03  0.18250000000E+03  0.00000000000E+00 0. -1.
         11   -1    0    0    0    0 -0.00000000000E+00 -0.00000000000E+00 -0.18250000000E+03  0.18250000000E+03  0.00000000000E+00 0.  1.
        -11    1    1    2    0    0 -0.27846971932E+01  0.11980861358E+01  0.15537055685E+03  0.15540012833E+03  0.00000000000E+00 0. -1.
         11    1    1    2    0    0  0.23761313130E+01  0.19870899782E+01 -0.18138296878E+03  0.18140941511E+03  0.00000000000E+00 0.  1.
        -15    1    1    2    0    0  0.31765198373E+01 -0.40619399856E+01  0.69911664866E+01  0.88670047122E+01  0.17770000000E+01 0.  1.
         15    1    1    2    0    0 -0.27679539570E+01  0.87676387160E+00  0.19021245441E+02  0.19323451843E+02  0.17770000000E+01 0. -1.
</event>
<event>
 6    1  0.8353910E-003  0.1840502E+03  0.7546771E-02  0.1067228E+00
        -11   -1    0    0    0    0  0.00000000000E+00  0.00000000000E+00  0.18250000000E+03  0.18250000000E+03  0.00000000000E+00 0.  1.
         11   -1    0    0    0    0 -0.00000000000E+00 -0.00000000000E+00 -0.18250000000E+03  0.18250000000E+03  0.00000000000E+00 0. -1.
        -11    1    1    2    0    0  0.92398349557E+00 -0.28330253647E+01  0.15515303906E+03  0.15518165261E+03  0.00000000000E+00 0.  1.
         11    1    1    2    0    0  0.25842756083E+01 -0.48053946220E+01 -0.18086755499E+03  0.18094983489E+03  0.00000000000E+00 0. -1.
        -15    1    1    2    0    0 -0.74121822824E+00  0.53913804452E+01  0.23744789552E+02  0.24425174461E+02  0.17770000000E+01 0.  1.
         15    1    1    2    0    0 -0.27670408756E+01  0.22470395415E+01  0.19697263816E+01  0.44433380388E+01  0.17770000000E+01 0. -1.
</event>
<event>
 6    1  0.8353910E-003  0.1829646E+03  0.7546771E-02  0.1068086E+00
        -11   -1    0    0    0    0  0.00000000000E+00  0.00000000000E+00  0.18250000000E+03  0.18250000000E+03  0.00000000000E+00 0.  1.
         11   -1    0    0    0    0 -0.00000000000E+00 -0.00000000000E+00 -0.18250000000E+03  0.18250000000E+03  0.00000000000E+00 0. -1.
        -11    1    1    2    0    0  0.41640312869E+01  0.13261161955E+01  0.83476267165E+02  0.83590579138E+02  0.00000000000E+00 0.  1.
         11    1    1    2    0    0  0.44605083466E+01 -0.40055885425E+01 -0.18193661900E+03  0.18203536526E+03  0.00000000000E+00 0. -1.
        -15    1    1    2    0    0 -0.50228474682E+01  0.37471581635E+00  0.84441493866E+02  0.84610241838E+02  0.17770000000E+01 0.  1.
         15    1    1    2    0    0 -0.36016921653E+01  0.23047565307E+01  0.14018857966E+02  0.14763813761E+02  0.17770000000E+01 0. -1.
</event>
<event>
 6    1  0.8353910E-003  0.2133436E+03  0.7546771E-02  0.1046251E+00
        -11   -1    0    0    0    0  0.00000000000E+00  0.00000000000E+00  0.18250000000E+03  0.18250000000E+03  0.00000000000E+00 0.  1.
         11   -1    0    0    0    0 -0.00000000000E+00 -0.00000000000E+00 -0.18250000000E+03  0.18250000000E+03  0.00000000000E+00 0. -1.
        -11    1    1    2    0    0  0.28781806973E+01 -0.16479395382E+01  0.15162016555E+03  0.15165643484E+03  0.00000000000E+00 0.  1.
         11    1    1    2    0    0 -0.29423256818E+01  0.14792199448E+01 -0.13243418132E+03  0.13247512126E+03  0.00000000000E+00 0. -1.
        -15    1    1    2    0    0  0.23667229932E+02  0.18621195008E+02  0.16383475415E+02  0.34328744106E+02  0.17770000000E+01 0.  1.
         15    1    1    2    0    0 -0.23603084948E+02 -0.18452475415E+02 -0.35569459647E+02  0.46539699790E+02  0.17770000000E+01 0. -1.
</event>
<event>
 6    1  0.8353910E-003  0.1860367E+03  0.7546771E-02  0.1065674E+00
        -11   -1    0    0    0    0  0.00000000000E+00  0.00000000000E+00  0.18250000000E+03  0.18250000000E+03  0.00000000000E+00 0. -1.
         11   -1    0    0    0    0 -0.00000000000E+00 -0.00000000000E+00 -0.18250000000E+03  0.18250000000E+03  0.00000000000E+00 0.  1.
        -11    1    1    2    0    0 -0.15534012860E+01  0.82640282258E+01  0.17876568926E+03  0.17896334506E+03  0.00000000000E+00 0. -1.
         11    1    1    2    0    0  0.16133388602E+01 -0.17744512391E+01 -0.16995222647E+03  0.16996914667E+03  0.00000000000E+00 0.  1.
        -15    1    1    2    0    0  0.14402098982E+01 -0.68619239637E+01 -0.30547646736E+00  0.72395614443E+01  0.17770000000E+01 0. -1.
         15    1    1    2    0    0 -0.15001474725E+01  0.37234697698E+00 -0.85079863300E+01  0.88279468226E+01  0.17770000000E+01 0. -1.
</event>
<event>
 6    1  0.8353910E-003  0.1735154E+03  0.7546771E-02  0.1075840E+00
        -11   -1    0    0    0    0  0.00000000000E+00  0.00000000000E+00  0.18250000000E+03  0.18250000000E+03  0.00000000000E+00 0.  1.
         11   -1    0    0    0    0 -0.00000000000E+00 -0.00000000000E+00 -0.18250000000E+03  0.18250000000E+03  0.00000000000E+00 0. -1.
        -11    1    1    2    0    0  0.24049750409E+01  0.55740336273E+01  0.17240255099E+03  0.17250940074E+03  0.00000000000E+00 0.  1.
         11    1    1    2    0    0 -0.18312542773E+01  0.39867850859E+01 -0.17460545569E+03  0.17466056540E+03  0.00000000000E+00 0. -1.
        -15    1    1    2    0    0 -0.50148057609E+01 -0.93332183992E+01 -0.25940358379E+01  0.11051877372E+02  0.17770000000E+01 0. -1.
         15    1    1    2    0    0  0.44410849972E+01 -0.22760031400E+00  0.47969405405E+01  0.67781564901E+01  0.17770000000E+01 0.  1.
</event>
<event>
 6    1  0.8353910E-003  0.1757815E+03  0.7546771E-02  0.1073932E+00
        -11   -1    0    0    0    0  0.00000000000E+00  0.00000000000E+00  0.18250000000E+03  0.18250000000E+03  0.00000000000E+00 0. -1.
         11   -1    0    0    0    0 -0.00000000000E+00 -0.00000000000E+00 -0.18250000000E+03  0.18250000000E+03  0.00000000000E+00 0. -1.
        -11    1    1    2    0    0 -0.27111798073E+01 -0.13101315615E+01  0.17354361419E+03  0.17356973517E+03  0.00000000000E+00 0. -1.
         11    1    1    2    0    0 -0.68683913236E+01  0.23536548606E+01 -0.17800554949E+03  0.17815355775E+03  0.00000000000E+00 0. -1.
        -15    1    1    2    0    0  0.20152361252E+01 -0.11782710076E+01  0.46555717682E+01  0.55028698601E+01  0.17770000000E+01 0. -1.
         15    1    1    2    0    0  0.75643350058E+01  0.13474770855E+00 -0.19363647127E+00  0.77738372190E+01  0.17770000000E+01 0.  1.
</event>
<event>
 6    1  0.8353910E-003  0.1844162E+03  0.7546771E-02  0.1066940E+00
        -11   -1    0    0    0    0  0.00000000000E+00  0.00000000000E+00  0.18250000000E+03  0.18250000000E+03  0.00000000000E+00 0.  1.
         11   -1    0    0    0    0 -0.00000000000E+00 -0.00000000000E+00 -0.18250000000E+03  0.18250000000E+03  0.00000000000E+00 0.  1.
        -11    1    1    2    0    0  0.15510733083E+01 -0.30694905510E+01  0.18055107337E+03  0.18058382457E+03  0.00000000000E+00 0.  1.
         11    1    1    2    0    0  0.22912678858E+01  0.17667630666E+01 -0.15177148551E+03  0.15179906183E+03  0.00000000000E+00 0.  1.
        -15    1    1    2    0    0  0.33286576349E+01  0.49749453011E+01 -0.72916920151E+01  0.95998199901E+01  0.17770000000E+01 0.  1.
         15    1    1    2    0    0 -0.71709988290E+01 -0.36722178167E+01 -0.21487895848E+02  0.23017293605E+02  0.17770000000E+01 0. -1.
</event>
<event>
 6    1  0.8353910E-003  0.1831694E+03  0.7546771E-02  0.1067923E+00
        -11   -1    0    0    0    0  0.00000000000E+00  0.00000000000E+00  0.18250000000E+03  0.18250000000E+03  0.00000000000E+00 0.  1.
         11   -1    0    0    0    0 -0.00000000000E+00 -0.00000000000E+00 -0.18250000000E+03  0.18250000000E+03  0.00000000000E+00 0. -1.
        -11    1    1    2    0    0  0.29774425283E+01  0.25826353663E+01  0.18178787302E+03  0.18183059684E+03  0.00000000000E+00 0.  1.
         11    1    1    2    0    0  0.54301455650E-01  0.20614106765E+01 -0.13304339555E+03  0.13305937571E+03  0.00000000000E+00 0. -1.
        -15    1    1    2    0    0  0.29560437201E+01 -0.10845863774E+01 -0.26168188663E+02  0.26416781579E+02  0.17770000000E+01 0. -1.
         15    1    1    2    0    0 -0.59877877041E+01 -0.35594596655E+01 -0.22576288807E+02  0.23693245873E+02  0.17770000000E+01 0. -1.
</event>
<event>
 6    1  0.8353910E-003  0.1828995E+03  0.7546771E-02  0.1068137E+00
        -11   -1    0    0    0    0  0.00000000000E+00  0.00000000000E+00  0.18250000000E+03  0.18250000000E+03  0.00000000000E+00 0.  1.
         11   -1    0    0    0    0 -0.00000000000E+00 -0.00000000000E+00 -0.18250000000E+03  0.18250000000E+03  0.00000000000E+00 0. -1.
        -11    1    1    2    0    0 -0.41260735097E+01 -0.19985482226E+01  0.18204278519E+03  0.18210050609E+03  0.00000000000E+00 0.  1.
         11    1    1    2    0    0 -0.17339097265E-01 -0.15841027796E+01 -0.87227191764E+02  0.87241576472E+02  0.00000000000E+00 0. -1.
        -15    1    1    2    0    0 -0.35362901875E+00  0.56692022938E+01 -0.27502316152E+02  0.28138941538E+02  0.17770000000E+01 0.  1.
         15    1    1    2    0    0  0.44970416257E+01 -0.20865512916E+01 -0.67313277277E+02  0.67518975899E+02  0.17770000000E+01 0. -1.
</event>
<event>
 6    1  0.8353910E-003  0.1836836E+03  0.7546771E-02  0.1067517E+00
        -11   -1    0    0    0    0  0.00000000000E+00  0.00000000000E+00  0.18250000000E+03  0.18250000000E+03  0.00000000000E+00 0. -1.
         11   -1    0    0    0    0 -0.00000000000E+00 -0.00000000000E+00 -0.18250000000E+03  0.18250000000E+03  0.00000000000E+00 0.  1.
        -11    1    1    2    0    0  0.15893421470E+01 -0.35201721058E+01  0.18127524527E+03  0.18131638693E+03  0.00000000000E+00 0. -1.
         11    1    1    2    0    0  0.10705005729E+01  0.23858527947E+01 -0.14987607624E+03  0.14989888757E+03  0.00000000000E+00 0.  1.
        -15    1    1    2    0    0  0.15447624559E+00 -0.33226993443E+01 -0.29257959919E+01  0.47730708175E+01  0.17770000000E+01 0. -1.
         15    1    1    2    0    0 -0.28143189655E+01  0.44570186554E+01 -0.28473373041E+02  0.29011654690E+02  0.17770000000E+01 0.  1.
</event>
<event>
 6    1  0.3197945E-002  0.1917260E+03  0.7546771E-02  0.1061339E+00
        -11   -1    0    0    0    0  0.00000000000E+00  0.00000000000E+00  0.18250000000E+03  0.18250000000E+03  0.00000000000E+00 0. -1.
         11   -1    0    0    0    0 -0.00000000000E+00 -0.00000000000E+00 -0.18250000000E+03  0.18250000000E+03  0.00000000000E+00 0.  1.
        -11    1    1    2    0    0  0.46904056897E+01  0.90998400642E-01  0.17321044743E+03  0.17327396598E+03  0.00000000000E+00 0. -1.
         11    1    1    2    0    0 -0.11253057904E+02 -0.10151622605E+01 -0.85850737583E+02  0.86591056179E+02  0.00000000000E+00 0.  1.
        -15    1    1    2    0    0  0.61282329969E+01  0.36870506649E+00 -0.96037070499E+02  0.96249508166E+02  0.17770000000E+01 0.  1.
         15    1    1    2    0    0  0.43441921692E+00  0.55545879335E+00  0.86773606474E+01  0.88854696743E+01  0.17770000000E+01 0. -1.
</event>
<event>
 6    1  0.8353910E-003  0.1866396E+03  0.7546771E-02  0.1065207E+00
        -11   -1    0    0    0    0  0.00000000000E+00  0.00000000000E+00  0.18250000000E+03  0.18250000000E+03  0.00000000000E+00 0. -1.
         11   -1    0    0    0    0 -0.00000000000E+00 -0.00000000000E+00 -0.18250000000E+03  0.18250000000E+03  0.00000000000E+00 0.  1.
        -11    1    1    2    0    0 -0.26534564516E+01  0.52332932587E+01  0.17826386803E+03  0.17836040714E+03  0.00000000000E+00 0. -1.
         11    1    1    2    0    0  0.25056956404E+01  0.14133884134E+01 -0.17034492736E+03  0.17036921804E+03  0.00000000000E+00 0.  1.
        -15    1    1    2    0    0  0.35033136363E+01 -0.78466658736E+01 -0.85345883718E+01  0.12240927230E+02  0.17770000000E+01 0. -1.
         15    1    1    2    0    0 -0.33555528251E+01  0.11999842015E+01  0.61564770149E+00  0.40294475972E+01  0.17770000000E+01 0.  1.
</event>
<event>
 6    1  0.8353910E-003  0.1828634E+03  0.7546771E-02  0.1068166E+00
        -11   -1    0    0    0    0  0.00000000000E+00  0.00000000000E+00  0.18250000000E+03  0.18250000000E+03  0.00000000000E+00 0.  1.
         11   -1    0    0    0    0 -0.00000000000E+00 -0.00000000000E+00 -0.18250000000E+03  0.18250000000E+03  0.00000000000E+00 0. -1.
        -11    1    1    2    0    0  0.22867912872E+01  0.69555602249E+00  0.13078295845E+03  0.13080479897E+03  0.00000000000E+00 0.  1.
         11    1    1    2    0    0 -0.36586427491E-02  0.30905862462E+01 -0.18211039223E+03  0.18213661547E+03  0.00000000000E+00 0. -1.
        -15    1    1    2    0    0 -0.21660558880E+01 -0.30872432044E+01  0.48285101297E+02  0.48464746001E+02  0.17770000000E+01 0.  1.
         15    1    1    2    0    0 -0.11707675636E+00 -0.69889906432E+00  0.30423324782E+01  0.35938395591E+01  0.17770000000E+01 0.  1.
</event>
<event>
 6    1  0.8353910E-003  0.1846834E+03  0.7546771E-02  0.1066730E+00
        -11   -1    0    0    0    0  0.00000000000E+00  0.00000000000E+00  0.18250000000E+03  0.18250000000E+03  0.00000000000E+00 0.  1.
         11   -1    0    0    0    0 -0.00000000000E+00 -0.00000000000E+00 -0.18250000000E+03  0.18250000000E+03  0.00000000000E+00 0. -1.
        -11    1    1    2    0    0 -0.29683470521E+01 -0.22726508097E+00  0.18029203563E+03  0.18031661278E+03  0.00000000000E+00 0.  1.
         11    1    1    2    0    0  0.21776851855E+01 -0.39851796609E+01 -0.16231399735E+03  0.16237751601E+03  0.00000000000E+00 0. -1.
        -15    1    1    2    0    0 -0.27552780897E+01  0.44355008290E+01 -0.17446846466E+02  0.18297961787E+02  0.17770000000E+01 0. -1.
         15    1    1    2    0    0  0.35459399563E+01 -0.22305608713E+00 -0.53119180837E+00  0.40079094212E+01  0.17770000000E+01 0. -1.
</event>
<event>
 6    1  0.8353910E-003  0.1839641E+03  0.7546771E-02  0.1067295E+00
        -11   -1    0    0    0    0  0.00000000000E+00  0.00000000000E+00  0.18250000000E+03  0.18250000000E+03  0.00000000000E+00 0. -1.
         11   -1    0    0    0    0 -0.00000000000E+00 -0.00000000000E+00 -0.18250000000E+03  0.18250000000E+03  0.00000000000E+00 0. -1.
        -11    1    1    2    0    0  0.25723746185E+01 -0.22265335289E+00  0.13246038704E+03  0.13248554948E+03  0.00000000000E+00 0. -1.
         11    1    1    2    0    0  0.25248402131E+01 -0.70765866855E+01 -0.18087990743E+03  0.18103589094E+03  0.00000000000E+00 0. -1.
        -15    1    1    2    0    0 -0.60919944027E+01  0.71015603486E+01  0.48504579772E+02  0.49430724686E+02  0.17770000000E+01 0. -1.
         15    1    1    2    0    0  0.99477957106E+00  0.19767968979E+00 -0.85059386913E-01  0.20478348942E+01  0.17770000000E+01 0.  1.
</event>
<event>
 6    1  0.8353910E-003  0.1868336E+03  0.7546771E-02  0.1065057E+00
        -11   -1    0    0    0    0  0.00000000000E+00  0.00000000000E+00  0.18250000000E+03  0.18250000000E+03  0.00000000000E+00 0.  1.
         11   -1    0    0    0    0 -0.00000000000E+00 -0.00000000000E+00 -0.18250000000E+03  0.18250000000E+03  0.00000000000E+00 0. -1.
        -11    1    1    2    0    0  0.29765605338E+01  0.33536852107E+01  0.66973188895E+02  0.67123134222E+02  0.00000000000E+00 0.  1.
         11    1    1    2    0    0  0.24250962478E+00  0.42471366707E+01 -0.17811564511E+03  0.17816643908E+03  0.00000000000E+00 0. -1.
        -15    1    1    2    0    0  0.51156422452E+01 -0.96419047770E+01  0.11035980312E+03  0.11091248801E+03  0.17770000000E+01 0.  1.
         15    1    1    2    0    0 -0.83347124039E+01  0.20410828956E+01  0.78265310044E+00  0.87979386857E+01  0.17770000000E+01 0. -1.
</event>
<event>
 6    1  0.8353910E-003  0.1753194E+03  0.7546771E-02  0.1074319E+00
        -11   -1    0    0    0    0  0.00000000000E+00  0.00000000000E+00  0.18250000000E+03  0.18250000000E+03  0.00000000000E+00 0.  1.
         11   -1    0    0    0    0 -0.00000000000E+00 -0.00000000000E+00 -0.18250000000E+03  0.18250000000E+03  0.00000000000E+00 0. -1.
        -11    1    1    2    0    0  0.43001981107E+01  0.49546415785E+00  0.17792853239E+03  0.17798117830E+03  0.00000000000E+00 0.  1.
         11    1    1    2    0    0  0.44282483049E+01  0.47929835800E+00 -0.17274850579E+03  0.17280591820E+03  0.00000000000E+00 0. -1.
        -15    1    1    2    0    0 -0.53643350818E+01 -0.19610248659E+01 -0.75430448133E+01  0.96268875266E+01  0.17770000000E+01 0. -1.
         15    1    1    2    0    0 -0.33641113339E+01  0.98626235005E+00  0.23630182115E+01  0.45860159788E+01  0.17770000000E+01 0.  1.
</event>
<event>
 6    1  0.8353910E-003  0.1830421E+03  0.7546771E-02  0.1068024E+00
        -11   -1    0    0    0    0  0.00000000000E+00  0.00000000000E+00  0.18250000000E+03  0.18250000000E+03  0.00000000000E+00 0.  1.
         11   -1    0    0    0    0 -0.00000000000E+00 -0.00000000000E+00 -0.18250000000E+03  0.18250000000E+03  0.00000000000E+00 0.  1.
        -11    1    1    2    0    0  0.97413673331E+00  0.17318227893E+01  0.13102900295E+03  0.13104406804E+03  0.00000000000E+00 0.  1.
         11    1    1    2    0    0  0.57199834621E+01 -0.72223861382E+01 -0.18172453353E+03  0.18195792690E+03  0.00000000000E+00 0.  1.
        -15    1    1    2    0    0 -0.59637804996E+00  0.32944634213E+01  0.30004498840E+02  0.30242963407E+02  0.17770000000E+01 0. -1.
         15    1    1    2    0    0 -0.60977421454E+01  0.21960999277E+01  0.20691031740E+02  0.21755041660E+02  0.17770000000E+01 0.  1.
</event>
<event>
 6    1  0.8353910E-003  0.1836196E+03  0.7546771E-02  0.1067567E+00
        -11   -1    0    0    0    0  0.00000000000E+00  0.00000000000E+00  0.18250000000E+03  0.18250000000E+03  0.00000000000E+00 0. -1.
         11   -1    0    0    0    0 -0.00000000000E+00 -0.00000000000E+00 -0.18250000000E+03  0.18250000000E+03  0.00000000000E+00 0.  1.
        -11    1    1    2    0    0  0.29576787035E+01  0.79646951350E+00  0.15988494394E+03  0.15991428180E+03  0.00000000000E+00 0. -1.
         11    1    1    2    0    0  0.11027304819E+01  0.47781983432E+01 -0.18131409236E+03  0.18138039388E+03  0.00000000000E+00 0.  1.
        -15    1    1    2    0    0 -0.63051054035E+00 -0.14926518539E+01  0.14890022220E+02  0.15082971982E+02  0.17770000000E+01 0.  1.
         15    1    1    2    0    0 -0.34298986451E+01 -0.40820160029E+01  0.65391262021E+01  0.86223523386E+01  0.17770000000E+01 0. -1.
</event>
<event>
 6    1  0.8353910E-003  0.1865688E+03  0.7546771E-02  0.1065261E+00
        -11   -1    0    0    0    0  0.00000000000E+00  0.00000000000E+00  0.18250000000E+03  0.18250000000E+03  0.00000000000E+00 0. -1.
         11   -1    0    0    0    0 -0.00000000000E+00 -0.00000000000E+00 -0.18250000000E+03  0.18250000000E+03  0.00000000000E+00 0.  1.
        -11    1    1    2    0    0 -0.36282398822E+01 -0.10568710886E+01  0.17839115345E+03  0.17843117645E+03  0.00000000000E+00 0. -1.
         11    1    1    2    0    0  0.57703475847E+01  0.10108457069E+01 -0.16798295962E+03  0.16808507799E+03  0.00000000000E+00 0.  1.
        -15    1    1    2    0    0 -0.82926146535E+01  0.99086159726E+00 -0.75937598408E+01  0.11426818543E+02  0.17770000000E+01 0. -1.
         15    1    1    2    0    0  0.61505069510E+01 -0.94483621549E+00 -0.28144339861E+01  0.70569270147E+01  0.17770000000E+01 0.  1.
</event>
<event>
 6    1  0.8353910E-003  0.1827923E+03  0.7546771E-02  0.1068222E+00
        -11   -1    0    0    0    0  0.00000000000E+00  0.00000000000E+00  0.18250000000E+03  0.18250000000E+03  0.00000000000E+00 0.  1.
         11   -1    0    0    0    0 -0.00000000000E+00 -0.00000000000E+00 -0.18250000000E+03  0.18250000000E+03  0.00000000000E+00 0.  1.
        -11    1    1    2    0    0 -0.18578834558E+01 -0.19837838608E+01  0.50357561751E+02  0.50430855187E+02  0.00000000000E+00 0.  1.
         11    1    1    2    0    0 -0.28233345805E+01 -0.59962609099E+01 -0.18208711958E+03  0.18220769874E+03  0.00000000000E+00 0.  1.
        -15    1    1    2    0    0  0.22518224028E+01 -0.28531393848E-01  0.12483430613E+02  0.12808797252E+02  0.17770000000E+01 0. -1.
         15    1    1    2    0    0  0.24293956336E+01  0.80085761646E+01  0.11924612722E+03  0.11955264882E+03  0.17770000000E+01 0.  1.
</event>
<event>
 6    1  0.8353910E-003  0.1826588E+03  0.7546771E-02  0.1068329E+00
        -11   -1    0    0    0    0  0.00000000000E+00  0.00000000000E+00  0.18250000000E+03  0.18250000000E+03  0.00000000000E+00 0.  1.
         11   -1    0    0    0    0 -0.00000000000E+00 -0.00000000000E+00 -0.18250000000E+03  0.18250000000E+03  0.00000000000E+00 0.  1.
        -11    1    1    2    0    0 -0.20406893644E+01 -0.64023125960E+00  0.14676807752E+03  0.14678366016E+03  0.00000000000E+00 0.  1.
         11    1    1    2    0    0  0.29223584955E+01 -0.13808970992E+01 -0.18231259729E+03  0.18234124653E+03  0.00000000000E+00 0.  1.
        -15    1    1    2    0    0 -0.13494947490E+01  0.13802444205E+01  0.26138934601E+02  0.26270284388E+02  0.17770000000E+01 0.  1.
         15    1    1    2    0    0  0.46782561795E+00  0.64088393822E+00  0.94055851687E+01  0.96048089203E+01  0.17770000000E+01 0.  1.
</event>
<event>
 6    1  0.8353910E-003  0.1843244E+03  0.7546771E-02  0.1067012E+00
        -11   -1    0    0    0    0  0.00000000000E+00  0.00000000000E+00  0.18250000000E+03  0.18250000000E+03  0.00000000000E+00 0. -1.
         11   -1    0    0    0    0 -0.00000000000E+00 -0.00000000000E+00 -0.18250000000E+03  0.18250000000E+03  0.00000000000E+00 0. -1.
        -11    1    1    2    0    0 -0.41697326111E+01 -0.89736715366E+01  0.14246899860E+03  0.14281221591E+03  0.00000000000E+00 0. -1.
         11    1    1    2    0    0  0.34481466414E+01 -0.56006084345E+01 -0.18055583925E+03  0.18067558666E+03  0.00000000000E+00 0. -1.
        -15    1    1    2    0    0 -0.24736079470E+01  0.94807115470E+01  0.26962711194E+02  0.28742793038E+02  0.17770000000E+01 0. -1.
         15    1    1    2    0    0  0.31951939167E+01  0.50935684241E+01  0.11124129456E+02  0.12769404395E+02  0.17770000000E+01 0.  1.
</event>
<event>
 6    1  0.8353910E-003  0.1841651E+03  0.7546771E-02  0.1067137E+00
        -11   -1    0    0    0    0  0.00000000000E+00  0.00000000000E+00  0.18250000000E+03  0.18250000000E+03  0.00000000000E+00 0.  1.
         11   -1    0    0    0    0 -0.00000000000E+00 -0.00000000000E+00 -0.18250000000E+03  0.18250000000E+03  0.00000000000E+00 0. -1.
        -11    1    1    2    0    0 -0.35573373377E+01 -0.21497701108E+01  0.16054540190E+03  0.16059919749E+03  0.00000000000E+00 0.  1.
         11    1    1    2    0    0 -0.41754425461E+01  0.35064850832E+01 -0.18075271462E+03  0.18083493468E+03  0.00000000000E+00 0. -1.
        -15    1    1    2    0    0  0.34620678031E+01 -0.20629799387E+01  0.21294774402E+01  0.48922594850E+01  0.17770000000E+01 0. -1.
         15    1    1    2    0    0  0.42707120807E+01  0.70626496622E+00  0.18077835272E+02  0.18673608355E+02  0.17770000000E+01 0.  1.
</event>
<event>
 6    1  0.8353910E-003  0.1855051E+03  0.7546771E-02  0.1066088E+00
        -11   -1    0    0    0    0  0.00000000000E+00  0.00000000000E+00  0.18250000000E+03  0.18250000000E+03  0.00000000000E+00 0. -1.
         11   -1    0    0    0    0 -0.00000000000E+00 -0.00000000000E+00 -0.18250000000E+03  0.18250000000E+03  0.00000000000E+00 0.  1.
        -11    1    1    2    0    0 -0.27070310992E+01  0.61762412439E+01  0.17936814851E+03  0.17949486532E+03  0.00000000000E+00 0. -1.
         11    1    1    2    0    0 -0.11501151164E+02  0.40724988793E+01 -0.12158957651E+03  0.12220019165E+03  0.00000000000E+00 0.  1.
        -15    1    1    2    0    0 -0.37045795473E-01  0.42317240635E+01 -0.53396240840E+01  0.70411771246E+01  0.17770000000E+01 0. -1.
         15    1    1    2    0    0  0.14245228059E+02 -0.14480464187E+02 -0.52438947924E+02  0.56263765905E+02  0.17770000000E+01 0.  1.
</event>
<event>
 6    1  0.8353910E-003  0.1846356E+03  0.7546771E-02  0.1066767E+00
        -11   -1    0    0    0    0  0.00000000000E+00  0.00000000000E+00  0.18250000000E+03  0.18250000000E+03  0.00000000000E+00 0. -1.
         11   -1    0    0    0    0 -0.00000000000E+00 -0.00000000000E+00 -0.18250000000E+03  0.18250000000E+03  0.00000000000E+00 0.  1.
        -11    1    1    2    0    0  0.35517663244E+01 -0.63988890630E+00  0.18032828079E+03  0.18036439048E+03  0.00000000000E+00 0. -1.
         11    1    1    2    0    0  0.52097679225E+00  0.72466928163E+01 -0.17012724555E+03  0.17028231163E+03  0.00000000000E+00 0.  1.
        -15    1    1    2    0    0 -0.61278749229E+00 -0.49699200971E+01 -0.79727224478E+01  0.95811088352E+01  0.17770000000E+01 0.  1.
         15    1    1    2    0    0 -0.34599556243E+01 -0.16368838129E+01 -0.22283127831E+01  0.47721890573E+01  0.17770000000E+01 0. -1.
</event>
<event>
 6    1  0.8353910E-003  0.1846987E+03  0.7546771E-02  0.1066718E+00
        -11   -1    0    0    0    0  0.00000000000E+00  0.00000000000E+00  0.18250000000E+03  0.18250000000E+03  0.00000000000E+00 0.  1.
         11   -1    0    0    0    0 -0.00000000000E+00 -0.00000000000E+00 -0.18250000000E+03  0.18250000000E+03  0.00000000000E+00 0.  1.
        -11    1    1    2    0    0 -0.35119382685E+01 -0.10951281770E+01  0.18026381695E+03  0.18030134974E+03  0.00000000000E+00 0.  1.
         11    1    1    2    0    0  0.54314449672E+01  0.16428428389E+01 -0.15406010690E+03  0.15416457461E+03  0.00000000000E+00 0.  1.
        -15    1    1    2    0    0 -0.51526742390E+01 -0.48137198711E+00 -0.26279785843E+02  0.26843372437E+02  0.17770000000E+01 0. -1.
         15    1    1    2    0    0  0.32331675402E+01 -0.66342674768E-01  0.76075791418E-01  0.36907032148E+01  0.17770000000E+01 0.  1.
</event>
<event>
 6    1  0.8353910E-003  0.1828963E+03  0.7546771E-02  0.1068140E+00
        -11   -1    0    0    0    0  0.00000000000E+00  0.00000000000E+00  0.18250000000E+03  0.18250000000E+03  0.00000000000E+00 0. -1.
         11   -1    0    0    0    0 -0.00000000000E+00 -0.00000000000E+00 -0.18250000000E+03  0.18250000000E+03  0.00000000000E+00 0. -1.
        -11    1    1    2    0    0 -0.27838877491E+01  0.10708972616E+01  0.18207923842E+03  0.18210366804E+03  0.00000000000E+00 0. -1.
         11    1    1    2    0    0 -0.20653078649E+01 -0.41018476185E+01 -0.12363347464E+03  0.12371874030E+03  0.00000000000E+00 0. -1.
        -15    1    1    2    0    0  0.40512987687E+01  0.14231139273E+01 -0.52658625063E+02  0.52863284021E+02  0.17770000000E+01 0.  1.
         15    1    1    2    0    0  0.79789684521E+00  0.16078364297E+01 -0.57871387137E+01  0.63143076304E+01  0.17770000000E+01 0. -1.
</event>
<event>
 6    1  0.8353910E-003  0.1987703E+03  0.7546771E-02  0.1056194E+00
        -11   -1    0    0    0    0  0.00000000000E+00  0.00000000000E+00  0.18250000000E+03  0.18250000000E+03  0.00000000000E+00 0. -1.
         11   -1    0    0    0    0 -0.00000000000E+00 -0.00000000000E+00 -0.18250000000E+03  0.18250000000E+03  0.00000000000E+00 0. -1.
        -11    1    1    2    0    0 -0.13183358208E+01  0.36400385752E+01  0.16618462912E+03  0.16622971710E+03  0.00000000000E+00 0. -1.
         11    1    1    2    0    0 -0.58395982843E+00  0.16934582038E+01 -0.12021173625E+03  0.12022508200E+03  0.00000000000E+00 0. -1.
        -15    1    1    2    0    0  0.35521257280E+01  0.18342003105E+02  0.73477708374E+01  0.20154258616E+02  0.17770000000E+01 0.  1.
         15    1    1    2    0    0 -0.16498300787E+01 -0.23675499884E+02 -0.53320663704E+02  0.58390942284E+02  0.17770000000E+01 0. -1.
</event>
<event>
 6    1  0.8353910E-003  0.1848850E+03  0.7546771E-02  0.1066572E+00
        -11   -1    0    0    0    0  0.00000000000E+00  0.00000000000E+00  0.18250000000E+03  0.18250000000E+03  0.00000000000E+00 0.  1.
         11   -1    0    0    0    0 -0.00000000000E+00 -0.00000000000E+00 -0.18250000000E+03  0.18250000000E+03  0.00000000000E+00 0. -1.
        -11    1    1    2    0    0  0.28040849512E+00  0.34048659846E+01  0.18008263435E+03  0.18011503806E+03  0.00000000000E+00 0.  1.
         11    1    1    2    0    0 -0.53792701576E-01 -0.32874866059E+01 -0.17737252540E+03  0.17740299668E+03  0.00000000000E+00 0. -1.
        -15    1    1    2    0    0  0.29676556442E+00 -0.25029196498E+01  0.44313551801E+00  0.31155697169E+01  0.17770000000E+01 0. -1.
         15    1    1    2    0    0 -0.52338135796E+00  0.23855402710E+01 -0.31532444642E+01  0.43663955480E+01  0.17770000000E+01 0. -1.
</event>
<event>
 6    1  0.8353910E-003  0.1829721E+03  0.7546771E-02  0.1068080E+00
        -11   -1    0    0    0    0  0.00000000000E+00  0.00000000000E+00  0.18250000000E+03  0.18250000000E+03  0.00000000000E+00 0.  1.
         11   -1    0    0    0    0 -0.00000000000E+00 -0.00000000000E+00 -0.18250000000E+03  0.18250000000E+03  0.00000000000E+00 0. -1.
        -11    1    1    2    0    0  0.41826324604E+01  0.56846636888E+00  0.18197893887E+03  0.18202788732E+03  0.00000000000E+00 0.  1.
         11    1    1    2    0    0 -0.18489072520E+01  0.11364835243E-01 -0.97810933803E+02  0.97828407728E+02  0.00000000000E+00 0. -1.
        -15    1    1    2    0    0  0.25439874498E+01  0.38262264726E+01 -0.53630392473E+02  0.53856184482E+02  0.17770000000E+01 0. -1.
         15    1    1    2    0    0 -0.48777126582E+01 -0.44060576768E+01 -0.30537612597E+02  0.31287520470E+02  0.17770000000E+01 0.  1.
</event>
<event>
 6    1  0.8353910E-003  0.1860927E+03  0.7546771E-02  0.1065630E+00
        -11   -1    0    0    0    0  0.00000000000E+00  0.00000000000E+00  0.18250000000E+03  0.18250000000E+03  0.00000000000E+00 0.  1.
         11   -1    0    0    0    0 -0.00000000000E+00 -0.00000000000E+00 -0.18250000000E+03  0.18250000000E+03  0.00000000000E+00 0. -1.
        -11    1    1    2    0    0 -0.15550475739E+01 -0.38754938025E+01  0.17169110779E+03  0.17174188225E+03  0.00000000000E+00 0.  1.
         11    1    1    2    0    0 -0.78901801364E+01 -0.25499051837E+01 -0.17871504783E+03  0.17890730919E+03  0.00000000000E+00 0. -1.
        -15    1    1    2    0    0  0.41829751187E+01  0.11753521319E+01  0.38659712487E+01  0.60812988887E+01  0.17770000000E+01 0.  1.
         15    1    1    2    0    0  0.52622525916E+01  0.52500468543E+01  0.31579687946E+01  0.82695096721E+01  0.17770000000E+01 0. -1.
</event>
<event>
 6    1  0.8353910E-003  0.1957055E+03  0.7546771E-02  0.1058404E+00
        -11   -1    0    0    0    0  0.00000000000E+00  0.00000000000E+00  0.18250000000E+03  0.18250000000E+03  0.00000000000E+00 0. -1.
         11   -1    0    0    0    0 -0.00000000000E+00 -0.00000000000E+00 -0.18250000000E+03  0.18250000000E+03  0.00000000000E+00 0. -1.
        -11    1    1    2    0    0 -0.10628559107E+01 -0.33025033091E+01  0.16925899706E+03  0.16929454887E+03  0.00000000000E+00 0. -1.
         11    1    1    2    0    0  0.13998149615E+01 -0.13413212029E+01 -0.14089633913E+03  0.14090967676E+03  0.00000000000E+00 0. -1.
        -15    1    1    2    0    0 -0.12375888476E+02  0.96063547541E+01 -0.36206502197E+02  0.39490672286E+02  0.17770000000E+01 0.  1.
         15    1    1    2    0    0  0.12038929425E+02 -0.49625302420E+01  0.78438442664E+01  0.15305102090E+02  0.17770000000E+01 0. -1.
</event>
<event>
 6    1  0.8353910E-003  0.1828779E+03  0.7546771E-02  0.1068154E+00
        -11   -1    0    0    0    0  0.00000000000E+00  0.00000000000E+00  0.18250000000E+03  0.18250000000E+03  0.00000000000E+00 0. -1.
         11   -1    0    0    0    0 -0.00000000000E+00 -0.00000000000E+00 -0.18250000000E+03  0.18250000000E+03  0.00000000000E+00 0. -1.
        -11    1    1    2    0    0 -0.46946983718E+01  0.64134588084E-01  0.18206154356E+03  0.18212207430E+03  0.00000000000E+00 0. -1.
         11    1    1    2    0    0 -0.11180671624E+01  0.28617929609E+01 -0.12568050943E+03  0.12571805910E+03  0.00000000000E+00 0. -1.
        -15    1    1    2    0    0  0.12692407727E+01 -0.16125508991E+01 -0.67960843238E+01  0.73181817194E+01  0.17770000000E+01 0.  1.
         15    1    1    2    0    0  0.45435247614E+01 -0.13133766499E+01 -0.49584949807E+02  0.49841684882E+02  0.17770000000E+01 0. -1.
</event>
<event>
 6    1  0.8353910E-003  0.1967081E+03  0.7546771E-02  0.1057676E+00
        -11   -1    0    0    0    0  0.00000000000E+00  0.00000000000E+00  0.18250000000E+03  0.18250000000E+03  0.00000000000E+00 0. -1.
         11   -1    0    0    0    0 -0.00000000000E+00 -0.00000000000E+00 -0.18250000000E+03  0.18250000000E+03  0.00000000000E+00 0. -1.
        -11    1    1    2    0    0 -0.78120546072E-01 -0.67735396462E+01  0.16815548485E+03  0.16829187154E+03  0.00000000000E+00 0. -1.
         11    1    1    2    0    0 -0.32121766508E+01  0.88819534547E+00 -0.77195174025E+02  0.77267081364E+02  0.00000000000E+00 0. -1.
        -15    1    1    2    0    0  0.15007171015E+01 -0.69546126991E+01  0.12857550528E+02  0.14801794628E+02  0.17770000000E+01 0.  1.
         15    1    1    2    0    0  0.17895800953E+01  0.12839957000E+02 -0.10381786135E+03  0.10463925247E+03  0.17770000000E+01 0. -1.
</event>
<event>
 6    1  0.8353910E-003  0.1835487E+03  0.7546771E-02  0.1067623E+00
        -11   -1    0    0    0    0  0.00000000000E+00  0.00000000000E+00  0.18250000000E+03  0.18250000000E+03  0.00000000000E+00 0.  1.
         11   -1    0    0    0    0 -0.00000000000E+00 -0.00000000000E+00 -0.18250000000E+03  0.18250000000E+03  0.00000000000E+00 0. -1.
        -11    1    1    2    0    0 -0.23129067851E+01  0.30394791583E+01  0.18141105686E+03  0.18145125935E+03  0.00000000000E+00 0.  1.
         11    1    1    2    0    0  0.94262108797E+00 -0.25412107138E+01 -0.17557942705E+03  0.17560034593E+03  0.00000000000E+00 0. -1.
        -15    1    1    2    0    0  0.12098371928E+00 -0.16513162207E+01 -0.12108277011E+01  0.27139113918E+01  0.17770000000E+01 0. -1.
         15    1    1    2    0    0  0.12493019779E+01  0.11530477762E+01 -0.46208021058E+01  0.52344833276E+01  0.17770000000E+01 0.  1.
</event>
<event>
 6    1  0.9894119E-003  0.1828065E+03  0.7546771E-02  0.1068211E+00
        -11   -1    0    0    0    0  0.00000000000E+00  0.00000000000E+00  0.18250000000E+03  0.18250000000E+03  0.00000000000E+00 0.  1.
         11   -1    0    0    0    0 -0.00000000000E+00 -0.00000000000E+00 -0.18250000000E+03  0.18250000000E+03  0.00000000000E+00 0.  1.
        -11    1    1    2    0    0 -0.19846292242E+01 -0.39257905524E+01  0.18214034065E+03  0.18219345289E+03  0.00000000000E+00 0.  1.
         11    1    1    2    0    0  0.22558329740E+01 -0.11676661536E+01 -0.22250481686E+02  0.22395003056E+02  0.00000000000E+00 0.  1.
        -15    1    1    2    0    0  0.21171026414E+01  0.28269970074E+01 -0.16289264913E+02  0.16762216920E+02  0.17770000000E+01 0.  1.
         15    1    1    2    0    0 -0.23883063913E+01  0.22664596986E+01 -0.14360059405E+03  0.14364932714E+03  0.17770000000E+01 0.  1.
</event>
<event>
 6    1  0.8353910E-003  0.1833388E+03  0.7546771E-02  0.1067789E+00
        -11   -1    0    0    0    0  0.00000000000E+00  0.00000000000E+00  0.18250000000E+03  0.18250000000E+03  0.00000000000E+00 0. -1.
         11   -1    0    0    0    0 -0.00000000000E+00 -0.00000000000E+00 -0.18250000000E+03  0.18250000000E+03  0.00000000000E+00 0. -1.
        -11    1    1    2    0    0  0.15366988642E+02  0.77675186580E+01  0.18084335563E+03  0.18166121755E+03  0.00000000000E+00 0. -1.
         11    1    1    2    0    0 -0.43608850927E+01  0.22699960013E+01 -0.74894712009E+02  0.75055899752E+02  0.00000000000E+00 0. -1.
        -15    1    1    2    0    0 -0.11598088296E+02 -0.62223974107E+01 -0.10049457525E+03  0.10136839382E+03  0.17770000000E+01 0. -1.
         15    1    1    2    0    0  0.59198474668E+00 -0.38151172486E+01 -0.54540683765E+01  0.69144888760E+01  0.17770000000E+01 0.  1.
</event>
<event>
 6    1  0.8353910E-003  0.1949444E+03  0.7546771E-02  0.1058959E+00
        -11   -1    0    0    0    0  0.00000000000E+00  0.00000000000E+00  0.18250000000E+03  0.18250000000E+03  0.00000000000E+00 0. -1.
         11   -1    0    0    0    0 -0.00000000000E+00 -0.00000000000E+00 -0.18250000000E+03  0.18250000000E+03  0.00000000000E+00 0.  1.
        -11    1    1    2    0    0 -0.44475457381E+01 -0.94360251897E+00  0.15551485821E+03  0.15558130406E+03  0.00000000000E+00 0. -1.
         11    1    1    2    0    0  0.31202033278E+01  0.86828454268E+01 -0.16980509334E+03  0.17005557091E+03  0.00000000000E+00 0.  1.
        -15    1    1    2    0    0 -0.14519765963E+02  0.52906630640E+01  0.94777451093E+01  0.18215380881E+02  0.17770000000E+01 0. -1.
         15    1    1    2    0    0  0.15847108373E+02 -0.13029905972E+02  0.48124900236E+01  0.21147744151E+02  0.17770000000E+01 0.  1.
</event>
<event>
 6    1  0.8353910E-003  0.1837707E+03  0.7546771E-02  0.1067448E+00
        -11   -1    0    0    0    0  0.00000000000E+00  0.00000000000E+00  0.18250000000E+03  0.18250000000E+03  0.00000000000E+00 0.  1.
         11   -1    0    0    0    0 -0.00000000000E+00 -0.00000000000E+00 -0.18250000000E+03  0.18250000000E+03  0.00000000000E+00 0.  1.
        -11    1    1    2    0    0  0.43623269393E+00  0.76280505525E+00  0.26089239857E+02  0.26104034302E+02  0.00000000000E+00 0.  1.
         11    1    1    2    0    0 -0.23736992991E+01 -0.53154554524E+01 -0.18113579311E+03  0.18122931347E+03  0.00000000000E+00 0.  1.
        -15    1    1    2    0    0  0.20562478947E+01 -0.57467298118E+01  0.13416237986E+03  0.13431289945E+03  0.17770000000E+01 0. -1.
         15    1    1    2    0    0 -0.11878128946E+00  0.10299380209E+02  0.20884173390E+02  0.23353752779E+02  0.17770000000E+01 0. -1.
</event>
<event>
 6    1  0.8353910E-003  0.1828970E+03  0.7546771E-02  0.1068139E+00
        -11   -1    0    0    0    0  0.00000000000E+00  0.00000000000E+00  0.18250000000E+03  0.18250000000E+03  0.00000000000E+00 0.  1.
         11   -1    0    0    0    0 -0.00000000000E+00 -0.00000000000E+00 -0.18250000000E+03  0.18250000000E+03  0.00000000000E+00 0.  1.
        -11    1    1    2    0    0  0.10003790421E+02 -0.23760960497E+01  0.18181246790E+03  0.18210297949E+03  0.00000000000E+00 0.  1.
         11    1    1    2    0    0 -0.59863069489E+01 -0.12125272533E+01 -0.84815578379E+02  0.85035218756E+02  0.00000000000E+00 0.  1.
        -15    1    1    2    0    0 -0.51128209073E+01 -0.17547255884E+01 -0.25122292991E+02  0.25758636098E+02  0.17770000000E+01 0. -1.
         15    1    1    2    0    0  0.10953374350E+01  0.53433488915E+01 -0.71874596533E+02  0.72103165653E+02  0.17770000000E+01 0.  1.
</event>
<event>
 6    1  0.8353910E-003  0.1842895E+03  0.7546771E-02  0.1067039E+00
        -11   -1    0    0    0    0  0.00000000000E+00  0.00000000000E+00  0.18250000000E+03  0.18250000000E+03  0.00000000000E+00 0.  1.
         11   -1    0    0    0    0 -0.00000000000E+00 -0.00000000000E+00 -0.18250000000E+03  0.18250000000E+03  0.00000000000E+00 0. -1.
        -11    1    1    2    0    0 -0.49923683244E+00  0.86084605582E+00  0.13382208508E+02  0.13419157868E+02  0.00000000000E+00 0.  1.
         11    1    1    2    0    0  0.81506033863E+00 -0.68740087908E+01 -0.18057785098E+03  0.18071047724E+03  0.00000000000E+00 0. -1.
        -15    1    1    2    0    0  0.25552235454E+01  0.66535324827E+01  0.55962012191E+01  0.92343846005E+01  0.17770000000E+01 0. -1.
         15    1    1    2    0    0 -0.28710470516E+01 -0.64036974773E+00  0.16159944125E+03  0.16163598029E+03  0.17770000000E+01 0.  1.
</event>
<event>
 6    1  0.8353910E-003  0.1939146E+03  0.7546771E-02  0.1059715E+00
        -11   -1    0    0    0    0  0.00000000000E+00  0.00000000000E+00  0.18250000000E+03  0.18250000000E+03  0.00000000000E+00 0. -1.
         11   -1    0    0    0    0 -0.00000000000E+00 -0.00000000000E+00 -0.18250000000E+03  0.18250000000E+03  0.00000000000E+00 0.  1.
        -11    1    1    2    0    0 -0.22666166048E+01  0.18850044681E+02  0.17002871920E+03  0.17108543798E+03  0.00000000000E+00 0. -1.
         11    1    1    2    0    0  0.63689910037E+01  0.20079246736E+01 -0.15602791947E+03  0.15617076379E+03  0.00000000000E+00 0.  1.
        -15    1    1    2    0    0 -0.11308023752E+01 -0.20693445504E+02  0.24387037176E+01  0.20942836619E+02  0.17770000000E+01 0. -1.
         15    1    1    2    0    0 -0.29715720237E+01 -0.16452385004E+00 -0.16439503448E+02  0.16800961609E+02  0.17770000000E+01 0.  1.
</event>
<event>
 6    1  0.8353910E-003  0.1845309E+03  0.7546771E-02  0.1066850E+00
        -11   -1    0    0    0    0  0.00000000000E+00  0.00000000000E+00  0.18250000000E+03  0.18250000000E+03  0.00000000000E+00 0. -1.
         11   -1    0    0    0    0 -0.00000000000E+00 -0.00000000000E+00 -0.18250000000E+03  0.18250000000E+03  0.00000000000E+00 0. -1.
        -11    1    1    2    0    0  0.31288612931E+01 -0.16156870026E+01  0.17183845454E+03  0.17187453178E+03  0.00000000000E+00 0. -1.
         11    1    1    2    0    0 -0.47208200347E+01 -0.11570647318E+01 -0.18040367543E+03  0.18046914155E+03  0.00000000000E+00 0. -1.
        -15    1    1    2    0    0  0.67024537024E+00  0.12876060046E+01 -0.11920549771E+01  0.25857072819E+01  0.17770000000E+01 0.  1.
         15    1    1    2    0    0  0.92171337139E+00  0.14851457298E+01  0.97572758744E+01  0.10070619388E+02  0.17770000000E+01 0. -1.
</event>
<event>
 6    1  0.8353910E-003  0.1830454E+03  0.7546771E-02  0.1068021E+00
        -11   -1    0    0    0    0  0.00000000000E+00  0.00000000000E+00  0.18250000000E+03  0.18250000000E+03  0.00000000000E+00 0. -1.
         11   -1    0    0    0    0 -0.00000000000E+00 -0.00000000000E+00 -0.18250000000E+03  0.18250000000E+03  0.00000000000E+00 0.  1.
        -11    1    1    2    0    0 -0.50968515452E+01 -0.16422790495E+01  0.18187575968E+03  0.18195457382E+03  0.00000000000E+00 0. -1.
         11    1    1    2    0    0 -0.35197446852E+01  0.13911504112E+01 -0.11778596537E+03  0.11784675447E+03  0.00000000000E+00 0.  1.
        -15    1    1    2    0    0  0.85926892292E+01  0.24650768356E+01 -0.47193846800E+02  0.48065869563E+02  0.17770000000E+01 0. -1.
         15    1    1    2    0    0  0.23907001243E-01 -0.22139481972E+01 -0.16895947508E+02  0.17132802145E+02  0.17770000000E+01 0. -1.
</event>
<event>
 6    1  0.8353910E-003  0.1868798E+03  0.7546771E-02  0.1065021E+00
        -11   -1    0    0    0    0  0.00000000000E+00  0.00000000000E+00  0.18250000000E+03  0.18250000000E+03  0.00000000000E+00 0. -1.
         11   -1    0    0    0    0 -0.00000000000E+00 -0.00000000000E+00 -0.18250000000E+03  0.18250000000E+03  0.00000000000E+00 0. -1.
        -11    1    1    2    0    0 -0.17060784372E+01  0.26076734006E+01  0.17809297153E+03  0.17812023235E+03  0.00000000000E+00 0. -1.
         11    1    1    2    0    0  0.23934556065E+01 -0.35029415705E+00 -0.15210026599E+03  0.15211949990E+03  0.00000000000E+00 0. -1.
        -15    1    1    2    0    0  0.27633600230E+01 -0.33361814703E+01  0.29529006618E+01  0.55356676868E+01  0.17770000000E+01 0.  1.
         15    1    1    2    0    0 -0.34507371923E+01  0.10788022268E+01 -0.28945606207E+02  0.29224600067E+02  0.17770000000E+01 0.  1.
</event>
<event>
 6    1  0.8353910E-003  0.2126406E+03  0.7546771E-02  0.1046711E+00
        -11   -1    0    0    0    0  0.00000000000E+00  0.00000000000E+00  0.18250000000E+03  0.18250000000E+03  0.00000000000E+00 0.  1.
         11   -1    0    0    0    0 -0.00000000000E+00 -0.00000000000E+00 -0.18250000000E+03  0.18250000000E+03  0.00000000000E+00 0. -1.
        -11    1    1    2    0    0 -0.39055858751E+00 -0.31342083551E+01  0.12638103383E+03  0.12642049481E+03  0.00000000000E+00 0.  1.
         11    1    1    2    0    0  0.69080221932E+00  0.78248800800E+01 -0.15215673277E+03  0.15235936888E+03  0.00000000000E+00 0. -1.
        -15    1    1    2    0    0  0.25756056881E+02 -0.24385019221E+02  0.37335258480E+02  0.51527496381E+02  0.17770000000E+01 0. -1.
         15    1    1    2    0    0 -0.26056300513E+02  0.19694347496E+02 -0.11559559530E+02  0.34692639930E+02  0.17770000000E+01 0.  1.
</event>
<event>
 6    1  0.8353910E-003  0.1873960E+03  0.7546771E-02  0.1064623E+00
        -11   -1    0    0    0    0  0.00000000000E+00  0.00000000000E+00  0.18250000000E+03  0.18250000000E+03  0.00000000000E+00 0. -1.
         11   -1    0    0    0    0 -0.00000000000E+00 -0.00000000000E+00 -0.18250000000E+03  0.18250000000E+03  0.00000000000E+00 0.  1.
        -11    1    1    2    0    0 -0.74488432145E+01 -0.89546751718E+00  0.17162727850E+03  0.17179118095E+03  0.00000000000E+00 0. -1.
         11    1    1    2    0    0  0.53493496319E+01  0.49648855527E+01 -0.17745402051E+03  0.17760404000E+03  0.00000000000E+00 0.  1.
        -15    1    1    2    0    0 -0.47513340654E+01  0.12878383823E+01  0.51155989629E+00  0.52586239291E+01  0.17770000000E+01 0. -1.
         15    1    1    2    0    0  0.68508276480E+01 -0.53572564178E+01  0.53151821170E+01  0.10346155118E+02  0.17770000000E+01 0.  1.
</event>
<event>
 6    1  0.8395621E-003  0.2191454E+03  0.7546771E-02  0.1042531E+00
        -11   -1    0    0    0    0  0.00000000000E+00  0.00000000000E+00  0.18250000000E+03  0.18250000000E+03  0.00000000000E+00 0. -1.
         11   -1    0    0    0    0 -0.00000000000E+00 -0.00000000000E+00 -0.18250000000E+03  0.18250000000E+03  0.00000000000E+00 0.  1.
        -11    1    1    2    0    0  0.17099592632E+01 -0.12802330291E+01  0.13564341782E+03  0.13566023645E+03  0.00000000000E+00 0. -1.
         11    1    1    2    0    0 -0.37578751824E+00 -0.20350657270E+01 -0.14583994413E+03  0.14585462630E+03  0.00000000000E+00 0.  1.
        -15    1    1    2    0    0  0.40804542923E+01  0.95323985009E+00  0.46469229076E+02  0.46691602600E+02  0.17770000000E+01 0. -1.
         15    1    1    2    0    0 -0.54146260373E+01  0.23620589060E+01 -0.36272702762E+02  0.36793534650E+02  0.17770000000E+01 0.  1.
</event>
<event>
 6    1  0.8353910E-003  0.1894969E+03  0.7546771E-02  0.1063018E+00
        -11   -1    0    0    0    0  0.00000000000E+00  0.00000000000E+00  0.18250000000E+03  0.18250000000E+03  0.00000000000E+00 0. -1.
         11   -1    0    0    0    0 -0.00000000000E+00 -0.00000000000E+00 -0.18250000000E+03  0.18250000000E+03  0.00000000000E+00 0. -1.
        -11    1    1    2    0    0  0.83795094606E+01  0.33733463152E+01  0.17527048263E+03  0.17550309890E+03  0.00000000000E+00 0. -1.
         11    1    1    2    0    0  0.33265917725E+01 -0.74218380569E+01 -0.13680621663E+03  0.13704776832E+03  0.00000000000E+00 0. -1.
        -15    1    1    2    0    0 -0.18325829538E+02 -0.15009875697E+01 -0.69710474199E+01  0.19744422581E+02  0.17770000000E+01 0. -1.
         15    1    1    2    0    0  0.66197283044E+01  0.55494793113E+01 -0.31493218575E+02  0.32704710191E+02  0.17770000000E+01 0. -1.
</event>
<event>
 6    1  0.8353910E-003  0.1833635E+03  0.7546771E-02  0.1067770E+00
        -11   -1    0    0    0    0  0.00000000000E+00  0.00000000000E+00  0.18250000000E+03  0.18250000000E+03  0.00000000000E+00 0. -1.
         11   -1    0    0    0    0 -0.00000000000E+00 -0.00000000000E+00 -0.18250000000E+03  0.18250000000E+03  0.00000000000E+00 0.  1.
        -11    1    1    2    0    0 -0.28692796189E+01 -0.60221122546E+00  0.15706260403E+03  0.15708996470E+03  0.00000000000E+00 0. -1.
         11    1    1    2    0    0 -0.40013689030E+01 -0.12886514749E+01 -0.18158781816E+03  0.18163647013E+03  0.00000000000E+00 0.  1.
        -15    1    1    2    0    0  0.29848530555E+01 -0.16702466752E+01  0.95296063611E+01  0.10279601068E+02  0.17770000000E+01 0.  1.
         15    1    1    2    0    0  0.38857954665E+01  0.35611093756E+01  0.14995607770E+02  0.15993964105E+02  0.17770000000E+01 0. -1.
</event>
<event>
 6    1  0.8353910E-003  0.2081051E+03  0.7546771E-02  0.1049723E+00
        -11   -1    0    0    0    0  0.00000000000E+00  0.00000000000E+00  0.18250000000E+03  0.18250000000E+03  0.00000000000E+00 0. -1.
         11   -1    0    0    0    0 -0.00000000000E+00 -0.00000000000E+00 -0.18250000000E+03  0.18250000000E+03  0.00000000000E+00 0. -1.
        -11    1    1    2    0    0  0.83519321218E+01 -0.53375314625E+01  0.13736235454E+03  0.13771949919E+03  0.00000000000E+00 0. -1.
         11    1    1    2    0    0 -0.53876738869E+01  0.11534775786E+01 -0.15679817487E+03  0.15689494952E+03  0.00000000000E+00 0. -1.
        -15    1    1    2    0    0 -0.11035498833E+02  0.30151626004E+02  0.27126330699E+02  0.42070159631E+02  0.17770000000E+01 0.  1.
         15    1    1    2    0    0  0.80712405977E+01 -0.25967572120E+02 -0.76905103643E+01  0.28315391667E+02  0.17770000000E+01 0. -1.
</event>
<event>
 6    1  0.8353910E-003  0.1940112E+03  0.7546771E-02  0.1059644E+00
        -11   -1    0    0    0    0  0.00000000000E+00  0.00000000000E+00  0.18250000000E+03  0.18250000000E+03  0.00000000000E+00 0.  1.
         11   -1    0    0    0    0 -0.00000000000E+00 -0.00000000000E+00 -0.18250000000E+03  0.18250000000E+03  0.00000000000E+00 0. -1.
        -11    1    1    2    0    0 -0.24700946250E+01 -0.61277467915E+00  0.13606764102E+03  0.13609143909E+03  0.00000000000E+00 0.  1.
         11    1    1    2    0    0 -0.93305708576E+00  0.24967166664E+01 -0.17096805125E+03  0.17098882635E+03  0.00000000000E+00 0. -1.
        -15    1    1    2    0    0  0.15183293036E+01  0.89528117779E+00  0.46061640980E+02  0.46129593007E+02  0.17770000000E+01 0.  1.
         15    1    1    2    0    0  0.18848224071E+01 -0.27792231651E+01 -0.11161230751E+02  0.11790141551E+02  0.17770000000E+01 0.  1.
</event>
<event>
 6    1  0.8353910E-003  0.2126677E+03  0.7546771E-02  0.1046693E+00
        -11   -1    0    0    0    0  0.00000000000E+00  0.00000000000E+00  0.18250000000E+03  0.18250000000E+03  0.00000000000E+00 0.  1.
         11   -1    0    0    0    0 -0.00000000000E+00 -0.00000000000E+00 -0.18250000000E+03  0.18250000000E+03  0.00000000000E+00 0. -1.
        -11    1    1    2    0    0 -0.92577335207E+01 -0.21700396041E+01  0.15203526328E+03  0.15233232087E+03  0.00000000000E+00 0.  1.
         11    1    1    2    0    0 -0.92869583857E+00  0.79566403564E+01 -0.12366753266E+03  0.12392670913E+03  0.00000000000E+00 0. -1.
        -15    1    1    2    0    0 -0.34818747998E+02 -0.14215515026E+02 -0.18132505034E+02  0.41789610520E+02  0.17770000000E+01 0. -1.
         15    1    1    2    0    0  0.45005177358E+02  0.84289142733E+01 -0.10235225584E+02  0.46951359475E+02  0.17770000000E+01 0.  1.
</event>
<event>
 6    1  0.8353910E-003  0.1827039E+03  0.7546771E-02  0.1068293E+00
        -11   -1    0    0    0    0  0.00000000000E+00  0.00000000000E+00  0.18250000000E+03  0.18250000000E+03  0.00000000000E+00 0. -1.
         11   -1    0    0    0    0 -0.00000000000E+00 -0.00000000000E+00 -0.18250000000E+03  0.18250000000E+03  0.00000000000E+00 0. -1.
        -11    1    1    2    0    0  0.38624355227E+00  0.15408677804E+01  0.57852575426E+02  0.57874380697E+02  0.00000000000E+00 0. -1.
         11    1    1    2    0    0 -0.22537397955E+01 -0.32891014266E+01 -0.18225247816E+03  0.18229608698E+03  0.00000000000E+00 0. -1.
        -15    1    1    2    0    0  0.53209851467E+01  0.28325144213E+01  0.80408062792E+02  0.80653272171E+02  0.17770000000E+01 0. -1.
         15    1    1    2    0    0 -0.34534889035E+01 -0.10842807750E+01  0.43991839945E+02  0.44176260153E+02  0.17770000000E+01 0. -1.
</event>
<event>
 6    1  0.8353910E-003  0.1850807E+03  0.7546771E-02  0.1066419E+00
        -11   -1    0    0    0    0  0.00000000000E+00  0.00000000000E+00  0.18250000000E+03  0.18250000000E+03  0.00000000000E+00 0. -1.
         11   -1    0    0    0    0 -0.00000000000E+00 -0.00000000000E+00 -0.18250000000E+03  0.18250000000E+03  0.00000000000E+00 0.  1.
        -11    1    1    2    0    0  0.71762304250E+01 -0.53086980968E+01  0.12930545268E+03  0.12961319629E+03  0.00000000000E+00 0. -1.
         11    1    1    2    0    0  0.21959685428E+01 -0.25333728319E+01 -0.17988808921E+03  0.17991932885E+03  0.00000000000E+00 0.  1.
        -15    1    1    2    0    0 -0.53706587021E+01  0.63588084477E+01  0.50102030942E+02  0.50819776203E+02  0.17770000000E+01 0. -1.
         15    1    1    2    0    0 -0.40015402656E+01  0.14832624809E+01  0.48060558604E+00  0.46476986579E+01  0.17770000000E+01 0. -1.
</event>
<event>
 6    1  0.8353910E-003  0.1871012E+03  0.7546771E-02  0.1064850E+00
        -11   -1    0    0    0    0  0.00000000000E+00  0.00000000000E+00  0.18250000000E+03  0.18250000000E+03  0.00000000000E+00 0. -1.
         11   -1    0    0    0    0 -0.00000000000E+00 -0.00000000000E+00 -0.18250000000E+03  0.18250000000E+03  0.00000000000E+00 0. -1.
        -11    1    1    2    0    0  0.71655998721E+01 -0.47259425683E+00  0.17775381106E+03  0.17789880976E+03  0.00000000000E+00 0. -1.
         11    1    1    2    0    0  0.51680852418E-01  0.21877227405E+01 -0.10777018583E+03  0.10779240120E+03  0.00000000000E+00 0. -1.
        -15    1    1    2    0    0 -0.25925990408E+01  0.41294656729E+01  0.29529345600E+01  0.59708967539E+01  0.17770000000E+01 0.  1.
         15    1    1    2    0    0 -0.46246816837E+01 -0.58445941566E+01 -0.72936559795E+02  0.73337892288E+02  0.17770000000E+01 0. -1.
</event>
<event>
 6    1  0.8353910E-003  0.1845780E+03  0.7546771E-02  0.1066813E+00
        -11   -1    0    0    0    0  0.00000000000E+00  0.00000000000E+00  0.18250000000E+03  0.18250000000E+03  0.00000000000E+00 0.  1.
         11   -1    0    0    0    0 -0.00000000000E+00 -0.00000000000E+00 -0.18250000000E+03  0.18250000000E+03  0.00000000000E+00 0. -1.
        -11    1    1    2    0    0 -0.27748211832E+01 -0.80734224365E+00  0.18039888064E+03  0.18042202629E+03  0.00000000000E+00 0.  1.
         11    1    1    2    0    0  0.28869518900E+01 -0.56729306246E+01 -0.16018610342E+03  0.16031252092E+03  0.00000000000E+00 0. -1.
        -15    1    1    2    0    0 -0.15586901490E+01  0.92989950935E+01 -0.12664815840E+02  0.15888867612E+02  0.17770000000E+01 0.  1.
         15    1    1    2    0    0  0.14465594422E+01 -0.28187222253E+01 -0.75479613793E+01  0.83765851746E+01  0.17770000000E+01 0. -1.
</event>
<event>
 6    1  0.8353910E-003  0.1965244E+03  0.7546771E-02  0.1057809E+00
        -11   -1    0    0    0    0  0.00000000000E+00  0.00000000000E+00  0.18250000000E+03  0.18250000000E+03  0.00000000000E+00 0.  1.
         11   -1    0    0    0    0 -0.00000000000E+00 -0.00000000000E+00 -0.18250000000E+03  0.18250000000E+03  0.00000000000E+00 0. -1.
        -11    1    1    2    0    0 -0.53280491987E+01 -0.28845507145E+01  0.16836661629E+03  0.16847559533E+03  0.00000000000E+00 0.  1.
         11    1    1    2    0    0 -0.37397377914E+02  0.84243633203E+01 -0.89498441673E+02  0.97362748698E+02  0.00000000000E+00 0. -1.
        -15    1    1    2    0    0  0.48223401341E+02 -0.85560800309E+01 -0.78613478094E+02  0.92638758678E+02  0.17770000000E+01 0. -1.
         15    1    1    2    0    0 -0.54979742287E+01  0.30162674250E+01 -0.25469652215E+00  0.65228972947E+01  0.17770000000E+01 0.  1.
</event>
<event>
 6    1  0.8353910E-003  0.1858889E+03  0.7546771E-02  0.1065789E+00
        -11   -1    0    0    0    0  0.00000000000E+00  0.00000000000E+00  0.18250000000E+03  0.18250000000E+03  0.00000000000E+00 0.  1.
         11   -1    0    0    0    0 -0.00000000000E+00 -0.00000000000E+00 -0.18250000000E+03  0.18250000000E+03  0.00000000000E+00 0. -1.
        -11    1    1    2    0    0 -0.23845837471E+00  0.43878783595E+01  0.17905719143E+03  0.17911110558E+03  0.00000000000E+00 0.  1.
         11    1    1    2    0    0 -0.64949141010E+01 -0.70274477678E+01 -0.16081558636E+03  0.16110003647E+03  0.00000000000E+00 0. -1.
        -15    1    1    2    0    0  0.11141353463E+01 -0.15159392060E+01  0.20195722962E+01  0.32826468750E+01  0.17770000000E+01 0. -1.
         15    1    1    2    0    0  0.56192371294E+01  0.41555086142E+01 -0.20261177364E+02  0.21506211078E+02  0.17770000000E+01 0.  1.
</event>
<event>
 6    1  0.8353910E-003  0.1838532E+03  0.7546771E-02  0.1067383E+00
        -11   -1    0    0    0    0  0.00000000000E+00  0.00000000000E+00  0.18250000000E+03  0.18250000000E+03  0.00000000000E+00 0. -1.
         11   -1    0    0    0    0 -0.00000000000E+00 -0.00000000000E+00 -0.18250000000E+03  0.18250000000E+03  0.00000000000E+00 0.  1.
        -11    1    1    2    0    0  0.47454892596E+01  0.15754992253E+01  0.18107781310E+03  0.18114683619E+03  0.00000000000E+00 0. -1.
         11    1    1    2    0    0 -0.13836548510E+01  0.23105579812E+01 -0.17509755354E+03  0.17511826414E+03  0.00000000000E+00 0.  1.
        -15    1    1    2    0    0 -0.10467685132E+01 -0.20407440187E+01 -0.24599304782E+01  0.38038595436E+01  0.17770000000E+01 0.  1.
         15    1    1    2    0    0 -0.23150658955E+01 -0.18453131878E+01 -0.35203290831E+01  0.49310401250E+01  0.17770000000E+01 0. -1.
</event>
<event>
 6    1  0.8353910E-003  0.1973018E+03  0.7546771E-02  0.1057247E+00
        -11   -1    0    0    0    0  0.00000000000E+00  0.00000000000E+00  0.18250000000E+03  0.18250000000E+03  0.00000000000E+00 0.  1.
         11   -1    0    0    0    0 -0.00000000000E+00 -0.00000000000E+00 -0.18250000000E+03  0.18250000000E+03  0.00000000000E+00 0. -1.
        -11    1    1    2    0    0  0.25879391498E+01 -0.22820806579E+01  0.15447799398E+03  0.15451652321E+03  0.00000000000E+00 0.  1.
         11    1    1    2    0    0 -0.67750965316E+00  0.30834290095E+01 -0.16766844703E+03  0.16769816541E+03  0.00000000000E+00 0. -1.
        -15    1    1    2    0    0  0.62825143953E+00  0.39830734567E+01  0.27255312033E+02  0.27609225578E+02  0.17770000000E+01 0.  1.
         15    1    1    2    0    0 -0.25386809362E+01 -0.47844218083E+01 -0.14064858981E+02  0.15176085796E+02  0.17770000000E+01 0.  1.
</event>
<event>
 6    1  0.8353910E-003  0.1845185E+03  0.7546771E-02  0.1066859E+00
        -11   -1    0    0    0    0  0.00000000000E+00  0.00000000000E+00  0.18250000000E+03  0.18250000000E+03  0.00000000000E+00 0. -1.
         11   -1    0    0    0    0 -0.00000000000E+00 -0.00000000000E+00 -0.18250000000E+03  0.18250000000E+03  0.00000000000E+00 0. -1.
        -11    1    1    2    0    0 -0.12515871004E+01  0.40378454680E+01  0.18043198431E+03  0.18048149941E+03  0.00000000000E+00 0. -1.
         11    1    1    2    0    0 -0.78381171473E+00 -0.30105342140E+01 -0.81184393526E+02  0.81243974726E+02  0.00000000000E+00 0. -1.
        -15    1    1    2    0    0 -0.41335459561E+01  0.10858207428E+02 -0.70962320432E+02  0.71929100654E+02  0.17770000000E+01 0. -1.
         15    1    1    2    0    0  0.61689447712E+01 -0.11885518682E+02 -0.28285270351E+02  0.31345425213E+02  0.17770000000E+01 0.  1.
</event>
<event>
 6    1  0.8353910E-003  0.2090075E+03  0.7546771E-02  0.1049117E+00
        -11   -1    0    0    0    0  0.00000000000E+00  0.00000000000E+00  0.18250000000E+03  0.18250000000E+03  0.00000000000E+00 0. -1.
         11   -1    0    0    0    0 -0.00000000000E+00 -0.00000000000E+00 -0.18250000000E+03  0.18250000000E+03  0.00000000000E+00 0. -1.
        -11    1    1    2    0    0  0.17878847054E+01  0.12179458777E+01  0.15597745263E+03  0.15599245383E+03  0.00000000000E+00 0. -1.
         11    1    1    2    0    0 -0.51411592432E+01  0.10683294041E+02 -0.10190878888E+03  0.10259612829E+03  0.00000000000E+00 0. -1.
        -15    1    1    2    0    0 -0.33332185748E+02  0.41726833613E+01  0.60219492788E+01  0.34174076364E+02  0.17770000000E+01 0.  1.
         15    1    1    2    0    0  0.36685460286E+02 -0.16073923280E+02 -0.60090613029E+02  0.72237341515E+02  0.17770000000E+01 0. -1.
</event>
<event>
 6    1  0.8353910E-003  0.1829310E+03  0.7546771E-02  0.1068112E+00
        -11   -1    0    0    0    0  0.00000000000E+00  0.00000000000E+00  0.18250000000E+03  0.18250000000E+03  0.00000000000E+00 0. -1.
         11   -1    0    0    0    0 -0.00000000000E+00 -0.00000000000E+00 -0.18250000000E+03  0.18250000000E+03  0.00000000000E+00 0. -1.
        -11    1    1    2    0    0 -0.26244240184E+01  0.67802540295E+01  0.18192379109E+03  0.18206901222E+03  0.00000000000E+00 0. -1.
         11    1    1    2    0    0 -0.11569012320E+01  0.37554258162E+00 -0.63482835691E+02  0.63494487006E+02  0.00000000000E+00 0. -1.
        -15    1    1    2    0    0  0.25473581757E+01 -0.10295389028E+02 -0.67312842770E+02  0.68166418416E+02  0.17770000000E+01 0. -1.
         15    1    1    2    0    0  0.12339670747E+01  0.31395924164E+01 -0.51128112628E+02  0.51270082360E+02  0.17770000000E+01 0.  1.
</event>
<event>
 6    1  0.8353910E-003  0.1850949E+03  0.7546771E-02  0.1066408E+00
        -11   -1    0    0    0    0  0.00000000000E+00  0.00000000000E+00  0.18250000000E+03  0.18250000000E+03  0.00000000000E+00 0. -1.
         11   -1    0    0    0    0 -0.00000000000E+00 -0.00000000000E+00 -0.18250000000E+03  0.18250000000E+03  0.00000000000E+00 0. -1.
        -11    1    1    2    0    0 -0.73771030144E+01 -0.25570731462E+01  0.13645447953E+03  0.13667766920E+03  0.00000000000E+00 0. -1.
         11    1    1    2    0    0  0.38584681911E+01 -0.14437743823E+01 -0.17985788739E+03  0.17990506363E+03  0.00000000000E+00 0. -1.
        -15    1    1    2    0    0 -0.56193821922E+01 -0.22703767173E+01  0.40699738960E+01  0.75136198449E+01  0.17770000000E+01 0. -1.
         15    1    1    2    0    0  0.91380170155E+01  0.62712242457E+01  0.39333433965E+02  0.40903647331E+02  0.17770000000E+01 0.  1.
</event>
<event>
 6    1  0.8353910E-003  0.1884065E+03  0.7546771E-02  0.1063848E+00
        -11   -1    0    0    0    0  0.00000000000E+00  0.00000000000E+00  0.18250000000E+03  0.18250000000E+03  0.00000000000E+00 0. -1.
         11   -1    0    0    0    0 -0.00000000000E+00 -0.00000000000E+00 -0.18250000000E+03  0.18250000000E+03  0.00000000000E+00 0.  1.
        -11    1    1    2    0    0  0.19986058339E+01 -0.12032915024E+01  0.17220350329E+03  0.17221930461E+03  0.00000000000E+00 0. -1.
         11    1    1    2    0    0 -0.26780473253E+01 -0.21862495105E+00 -0.17657309709E+03  0.17659353995E+03  0.00000000000E+00 0.  1.
        -15    1    1    2    0    0  0.58134517768E+01 -0.39361505276E+01  0.45531515234E+01  0.85544386334E+01  0.17770000000E+01 0. -1.
         15    1    1    2    0    0 -0.51340102854E+01  0.53580669810E+01 -0.18355771974E+00  0.76327168047E+01  0.17770000000E+01 0.  1.
</event>
<event>
 6    1  0.8353910E-003  0.1863133E+03  0.7546771E-02  0.1065459E+00
        -11   -1    0    0    0    0  0.00000000000E+00  0.00000000000E+00  0.18250000000E+03  0.18250000000E+03  0.00000000000E+00 0. -1.
         11   -1    0    0    0    0 -0.00000000000E+00 -0.00000000000E+00 -0.18250000000E+03  0.18250000000E+03  0.00000000000E+00 0.  1.
        -11    1    1    2    0    0  0.13114330251E+01  0.23413118809E+01  0.17866656465E+03  0.17868671725E+03  0.00000000000E+00 0. -1.
         11    1    1    2    0    0  0.32072653677E+01 -0.29458135946E+01 -0.17395099851E+03  0.17400550064E+03  0.00000000000E+00 0.  1.
        -15    1    1    2    0    0  0.16253869502E+01  0.20831015553E+01  0.12661215579E+01  0.34266583762E+01  0.17770000000E+01 0.  1.
         15    1    1    2    0    0 -0.61440853429E+01 -0.14785998416E+01 -0.59816876912E+01  0.88811237368E+01  0.17770000000E+01 0. -1.
</event>
<event>
 6    1  0.8353910E-003  0.1839450E+03  0.7546771E-02  0.1067310E+00
        -11   -1    0    0    0    0  0.00000000000E+00  0.00000000000E+00  0.18250000000E+03  0.18250000000E+03  0.00000000000E+00 0. -1.
         11   -1    0    0    0    0 -0.00000000000E+00 -0.00000000000E+00 -0.18250000000E+03  0.18250000000E+03  0.00000000000E+00 0. -1.
        -11    1    1    2    0    0 -0.24480602937E+01  0.14465212754E+01  0.15450896066E+03  0.15453512335E+03  0.00000000000E+00 0. -1.
         11    1    1    2    0    0 -0.64209307629E+01  0.21944334249E+01 -0.18092784158E+03  0.18105504066E+03  0.00000000000E+00 0. -1.
        -15    1    1    2    0    0  0.68637514192E+01 -0.51118906042E+01  0.13125289906E+02  0.15769384047E+02  0.17770000000E+01 0.  1.
         15    1    1    2    0    0  0.20052396374E+01  0.14709359039E+01  0.13293591007E+02  0.13640451946E+02  0.17770000000E+01 0. -1.
</event>
<event>
 6    1  0.8353910E-003  0.1860807E+03  0.7546771E-02  0.1065640E+00
        -11   -1    0    0    0    0  0.00000000000E+00  0.00000000000E+00  0.18250000000E+03  0.18250000000E+03  0.00000000000E+00 0.  1.
         11   -1    0    0    0    0 -0.00000000000E+00 -0.00000000000E+00 -0.18250000000E+03  0.18250000000E+03  0.00000000000E+00 0. -1.
        -11    1    1    2    0    0 -0.75577862861E+00 -0.38243827809E+01  0.17887686389E+03  0.17891933809E+03  0.00000000000E+00 0.  1.
         11    1    1    2    0    0 -0.33004985923E+01  0.36157805356E+01 -0.16600148697E+03  0.16607366087E+03  0.00000000000E+00 0. -1.
        -15    1    1    2    0    0  0.91147933545E+01 -0.44013480824E+00 -0.10726126615E+02  0.14194389656E+02  0.17770000000E+01 0. -1.
         15    1    1    2    0    0 -0.50585161336E+01  0.64873705356E+00 -0.21492503111E+01  0.58126113872E+01  0.17770000000E+01 0.  1.
</event>
<event>
 6    1  0.8353910E-003  0.1843530E+03  0.7546771E-02  0.1066989E+00
        -11   -1    0    0    0    0  0.00000000000E+00  0.00000000000E+00  0.18250000000E+03  0.18250000000E+03  0.00000000000E+00 0.  1.
         11   -1    0    0    0    0 -0.00000000000E+00 -0.00000000000E+00 -0.18250000000E+03  0.18250000000E+03  0.00000000000E+00 0. -1.
        -11    1    1    2    0    0  0.22178036935E+01 -0.31759873454E+01  0.18060544009E+03  0.18064697767E+03  0.00000000000E+00 0.  1.
         11    1    1    2    0    0 -0.23800949382E+01 -0.89834954623E+00 -0.73520380706E+02  0.73564381755E+02  0.00000000000E+00 0. -1.
        -15    1    1    2    0    0  0.10241404455E+02  0.54037623850E+01 -0.90496604470E+02  0.91251740601E+02  0.17770000000E+01 0. -1.
         15    1    1    2    0    0 -0.10079113210E+02 -0.13294254933E+01 -0.16588454916E+02  0.19536899978E+02  0.17770000000E+01 0.  1.
</event>
<event>
 6    1  0.8353910E-003  0.1874385E+03  0.7546771E-02  0.1064590E+00
        -11   -1    0    0    0    0  0.00000000000E+00  0.00000000000E+00  0.18250000000E+03  0.18250000000E+03  0.00000000000E+00 0.  1.
         11   -1    0    0    0    0 -0.00000000000E+00 -0.00000000000E+00 -0.18250000000E+03  0.18250000000E+03  0.00000000000E+00 0. -1.
        -11    1    1    2    0    0 -0.12448876116E+02 -0.22894800421E+01  0.17710971916E+03  0.17756145093E+03  0.00000000000E+00 0.  1.
         11    1    1    2    0    0 -0.16033862652E+01 -0.13845738503E+00 -0.98135694681E+02  0.98148889899E+02  0.00000000000E+00 0. -1.
        -15    1    1    2    0    0  0.81572970495E+00 -0.32747028776E+01 -0.73762434763E+02  0.73860974845E+02  0.17770000000E+01 0. -1.
         15    1    1    2    0    0  0.13236532676E+02  0.57026403047E+01 -0.52115897141E+01  0.15428684328E+02  0.17770000000E+01 0.  1.
</event>
<event>
 6    1  0.8353910E-003  0.2242535E+03  0.7546771E-02  0.1039357E+00
        -11   -1    0    0    0    0  0.00000000000E+00  0.00000000000E+00  0.18250000000E+03  0.18250000000E+03  0.00000000000E+00 0. -1.
         11   -1    0    0    0    0 -0.00000000000E+00 -0.00000000000E+00 -0.18250000000E+03  0.18250000000E+03  0.00000000000E+00 0. -1.
        -11    1    1    2    0    0 -0.65819112707E+01 -0.29921542789E+01  0.87364169668E+02  0.87662835255E+02  0.00000000000E+00 0. -1.
         11    1    1    2    0    0 -0.10081221474E+02  0.63490002543E+01 -0.14024138259E+03  0.14074653183E+03  0.00000000000E+00 0. -1.
        -15    1    1    2    0    0  0.12627512183E+02  0.19636618428E+02  0.89837777030E+02  0.92838756766E+02  0.17770000000E+01 0. -1.
         15    1    1    2    0    0  0.40356205619E+01 -0.22993464404E+02 -0.36960564105E+02  0.43751876149E+02  0.17770000000E+01 0.  1.
</event>
<event>
 6    1  0.8353910E-003  0.1847556E+03  0.7546771E-02  0.1066673E+00
        -11   -1    0    0    0    0  0.00000000000E+00  0.00000000000E+00  0.18250000000E+03  0.18250000000E+03  0.00000000000E+00 0.  1.
         11   -1    0    0    0    0 -0.00000000000E+00 -0.00000000000E+00 -0.18250000000E+03  0.18250000000E+03  0.00000000000E+00 0. -1.
        -11    1    1    2    0    0  0.38792671542E+01  0.80709512562E+01  0.15803615137E+03  0.15828965256E+03  0.00000000000E+00 0.  1.
         11    1    1    2    0    0 -0.50005493607E+01  0.15610314580E+00 -0.18017491892E+03  0.18024436543E+03  0.00000000000E+00 0. -1.
        -15    1    1    2    0    0  0.26134414823E+01  0.12428614951E+01  0.11696281800E+02  0.12179306960E+02  0.17770000000E+01 0. -1.
         15    1    1    2    0    0 -0.14921592758E+01 -0.94699158971E+01  0.10442485744E+02  0.14286675047E+02  0.17770000000E+01 0.  1.
</event>
<event>
 6    1  0.8353910E-003  0.1865317E+03  0.7546771E-02  0.1065290E+00
        -11   -1    0    0    0    0  0.00000000000E+00  0.00000000000E+00  0.18250000000E+03  0.18250000000E+03  0.00000000000E+00 0.  1.
         11   -1    0    0    0    0 -0.00000000000E+00 -0.00000000000E+00 -0.18250000000E+03  0.18250000000E+03  0.00000000000E+00 0. -1.
        -11    1    1    2    0    0 -0.21288029588E+01  0.58450938921E+01  0.13782422234E+03  0.13796453598E+03  0.00000000000E+00 0.  1.
         11    1    1    2    0    0 -0.57173547965E+01  0.50239992711E+01 -0.17830594216E+03  0.17846831014E+03  0.00000000000E+00 0. -1.
        -15    1    1    2    0    0  0.44111764614E+01 -0.14393355857E+02  0.40595745988E+02  0.43333583880E+02  0.17770000000E+01 0. -1.
         15    1    1    2    0    0  0.34349812940E+01  0.35242626938E+01 -0.11402617116E+00  0.52335700046E+01  0.17770000000E+01 0.  1.
</event>
<event>
 6    1  0.8353910E-003  0.1893362E+03  0.7546771E-02  0.1063140E+00
        -11   -1    0    0    0    0  0.00000000000E+00  0.00000000000E+00  0.18250000000E+03  0.18250000000E+03  0.00000000000E+00 0. -1.
         11   -1    0    0    0    0 -0.00000000000E+00 -0.00000000000E+00 -0.18250000000E+03  0.18250000000E+03  0.00000000000E+00 0. -1.
        -11    1    1    2    0    0  0.56462529720E+00  0.52192144122E+01  0.17558533437E+03  0.17566379435E+03  0.00000000000E+00 0. -1.
         11    1    1    2    0    0 -0.46388751082E+00 -0.36682472523E+01 -0.17235747248E+03  0.17239712744E+03  0.00000000000E+00 0. -1.
        -15    1    1    2    0    0 -0.47038865922E+01  0.55484633201E+01 -0.35510303372E+01  0.82873119733E+01  0.17770000000E+01 0.  1.
         15    1    1    2    0    0  0.46031488059E+01 -0.70994304800E+01  0.32316845062E+00  0.86517662310E+01  0.17770000000E+01 0. -1.
</event>
<event>
 6    1  0.8353910E-003  0.1708509E+03  0.7546771E-02  0.1078125E+00
        -11   -1    0    0    0    0  0.00000000000E+00  0.00000000000E+00  0.18250000000E+03  0.18250000000E+03  0.00000000000E+00 0.  1.
         11   -1    0    0    0    0 -0.00000000000E+00 -0.00000000000E+00 -0.18250000000E+03  0.18250000000E+03  0.00000000000E+00 0.  1.
        -11    1    1    2    0    0 -0.14317598681E+00  0.25357770239E+01  0.16571559712E+03  0.16573505903E+03  0.00000000000E+00 0.  1.
         11    1    1    2    0    0 -0.50007758155E+01  0.14030553884E+02 -0.17592982042E+03  0.17655924194E+03  0.00000000000E+00 0.  1.
        -15    1    1    2    0    0  0.17799964465E+01 -0.16096888310E+02  0.71229202824E+01  0.17781223888E+02  0.17770000000E+01 0. -1.
         15    1    1    2    0    0  0.33639553559E+01 -0.46944259766E+00  0.30913030234E+01  0.49244751366E+01  0.17770000000E+01 0.  1.
</event>
<event>
 6    1  0.8676341E-003  0.1837684E+03  0.7546771E-02  0.1067450E+00
        -11   -1    0    0    0    0  0.00000000000E+00  0.00000000000E+00  0.18250000000E+03  0.18250000000E+03  0.00000000000E+00 0.  1.
         11   -1    0    0    0    0 -0.00000000000E+00 -0.00000000000E+00 -0.18250000000E+03  0.18250000000E+03  0.00000000000E+00 0. -1.
        -11    1    1    2    0    0 -0.38643687583E+01  0.18428697418E+01  0.18118100019E+03  0.18123157657E+03  0.00000000000E+00 0.  1.
         11    1    1    2    0    0 -0.41978298637E+01 -0.22299478397E+01 -0.10641627697E+03  0.10652238472E+03  0.00000000000E+00 0. -1.
        -15    1    1    2    0    0  0.79709208417E+01  0.25574808793E+01 -0.73775630294E+02  0.74270301210E+02  0.17770000000E+01 0. -1.
         15    1    1    2    0    0  0.91277780263E-01 -0.21704027814E+01 -0.98909292874E+00  0.29757375033E+01  0.17770000000E+01 0.  1.
</event>
<event>
 6    1  0.8353910E-003  0.1875338E+03  0.7546771E-02  0.1064517E+00
        -11   -1    0    0    0    0  0.00000000000E+00  0.00000000000E+00  0.18250000000E+03  0.18250000000E+03  0.00000000000E+00 0.  1.
         11   -1    0    0    0    0 -0.00000000000E+00 -0.00000000000E+00 -0.18250000000E+03  0.18250000000E+03  0.00000000000E+00 0.  1.
        -11    1    1    2    0    0 -0.44730236124E+01 -0.23911138123E+00  0.17740967949E+03  0.17746622071E+03  0.00000000000E+00 0.  1.
         11    1    1    2    0    0 -0.98414301198E+00 -0.37472518329E+01 -0.17251691368E+03  0.17256041244E+03  0.00000000000E+00 0.  1.
        -15    1    1    2    0    0  0.19162770461E+01  0.49403855440E+01 -0.80628164300E+01  0.98105180712E+01  0.17770000000E+01 0. -1.
         15    1    1    2    0    0  0.35408895782E+01 -0.95402232993E+00  0.31700506227E+01  0.51628487835E+01  0.17770000000E+01 0. -1.
</event>
<event>
 6    1  0.8353910E-003  0.1847757E+03  0.7546771E-02  0.1066658E+00
        -11   -1    0    0    0    0  0.00000000000E+00  0.00000000000E+00  0.18250000000E+03  0.18250000000E+03  0.00000000000E+00 0. -1.
         11   -1    0    0    0    0 -0.00000000000E+00 -0.00000000000E+00 -0.18250000000E+03  0.18250000000E+03  0.00000000000E+00 0.  1.
        -11    1    1    2    0    0 -0.39134302245E+01 -0.20817937295E+00  0.10787291241E+03  0.10794407583E+03  0.00000000000E+00 0. -1.
         11    1    1    2    0    0  0.12717049375E+02 -0.69432180013E+01 -0.17964094813E+03  0.18022430986E+03  0.00000000000E+00 0.  1.
        -15    1    1    2    0    0  0.29502636684E+01 -0.41554273636E+01  0.30855986217E+01  0.62169349475E+01  0.17770000000E+01 0. -1.
         15    1    1    2    0    0 -0.11753882819E+02  0.11306824738E+02  0.68682437091E+02  0.70614679357E+02  0.17770000000E+01 0.  1.
</event>
<event>
 6    1  0.8353910E-003  0.1903635E+03  0.7546771E-02  0.1062362E+00
        -11   -1    0    0    0    0  0.00000000000E+00  0.00000000000E+00  0.18250000000E+03  0.18250000000E+03  0.00000000000E+00 0.  1.
         11   -1    0    0    0    0 -0.00000000000E+00 -0.00000000000E+00 -0.18250000000E+03  0.18250000000E+03  0.00000000000E+00 0. -1.
        -11    1    1    2    0    0 -0.58912944767E+00  0.40668776850E+01  0.16672806649E+03  0.16677869985E+03  0.00000000000E+00 0.  1.
         11    1    1    2    0    0  0.38635934965E+01 -0.73218942529E+00 -0.17459223299E+03  0.17463651187E+03  0.00000000000E+00 0. -1.
        -15    1    1    2    0    0 -0.14238920822E+01 -0.16835037615E+01  0.15293443619E+02  0.15553417640E+02  0.17770000000E+01 0.  1.
         15    1    1    2    0    0 -0.18505719666E+01 -0.16511844983E+01 -0.74292771170E+01  0.80313706385E+01  0.17770000000E+01 0. -1.
</event>
<event>
 6    1  0.8353910E-003  0.1883363E+03  0.7546771E-02  0.1063902E+00
        -11   -1    0    0    0    0  0.00000000000E+00  0.00000000000E+00  0.18250000000E+03  0.18250000000E+03  0.00000000000E+00 0. -1.
         11   -1    0    0    0    0 -0.00000000000E+00 -0.00000000000E+00 -0.18250000000E+03  0.18250000000E+03  0.00000000000E+00 0. -1.
        -11    1    1    2    0    0 -0.27409476269E+01 -0.13525906980E+01  0.15837334592E+03  0.15840283771E+03  0.00000000000E+00 0. -1.
         11    1    1    2    0    0 -0.45190896730E+01  0.54509389100E+01 -0.17652177120E+03  0.17666372184E+03  0.00000000000E+00 0. -1.
        -15    1    1    2    0    0  0.10575506105E+02  0.85169792548E-01  0.21034385618E+02  0.23610414876E+02  0.17770000000E+01 0. -1.
         15    1    1    2    0    0 -0.33154688051E+01 -0.41835180046E+01 -0.28859603371E+01  0.63230255701E+01  0.17770000000E+01 0.  1.
</event>
<event>
 6    1  0.8353910E-003  0.1846933E+03  0.7546771E-02  0.1066722E+00
        -11   -1    0    0    0    0  0.00000000000E+00  0.00000000000E+00  0.18250000000E+03  0.18250000000E+03  0.00000000000E+00 0. -1.
         11   -1    0    0    0    0 -0.00000000000E+00 -0.00000000000E+00 -0.18250000000E+03  0.18250000000E+03  0.00000000000E+00 0. -1.
        -11    1    1    2    0    0  0.20456145669E+01  0.13830335452E+01  0.18028980829E+03  0.18030671727E+03  0.00000000000E+00 0. -1.
         11    1    1    2    0    0 -0.60121323262E+01  0.61155585749E+00 -0.15254035600E+03  0.15266001423E+03  0.00000000000E+00 0. -1.
        -15    1    1    2    0    0  0.92227988871E+01 -0.33953360565E+01 -0.14563168718E+02  0.17658763784E+02  0.17770000000E+01 0.  1.
         15    1    1    2    0    0 -0.52562811278E+01  0.14007466538E+01 -0.13186283567E+02  0.14374504715E+02  0.17770000000E+01 0. -1.
</event>
<event>
 6    1  0.8353910E-003  0.1846064E+03  0.7546771E-02  0.1066790E+00
        -11   -1    0    0    0    0  0.00000000000E+00  0.00000000000E+00  0.18250000000E+03  0.18250000000E+03  0.00000000000E+00 0.  1.
         11   -1    0    0    0    0 -0.00000000000E+00 -0.00000000000E+00 -0.18250000000E+03  0.18250000000E+03  0.00000000000E+00 0.  1.
        -11    1    1    2    0    0  0.30622829968E+01  0.45894749970E+00  0.16556427101E+03  0.16559322463E+03  0.00000000000E+00 0.  1.
         11    1    1    2    0    0  0.39808997611E+01 -0.38304799396E+01 -0.18030900392E+03  0.18039361695E+03  0.00000000000E+00 0.  1.
        -15    1    1    2    0    0 -0.43063484075E+00  0.56570938172E+00 -0.57622920471E+00  0.19988102879E+01  0.17770000000E+01 0. -1.
         15    1    1    2    0    0 -0.66125479172E+01  0.28058230581E+01  0.15320962124E+02  0.17014348133E+02  0.17770000000E+01 0.  1.
</event>
<event>
 6    1  0.8353910E-003  0.1835523E+03  0.7546771E-02  0.1067620E+00
        -11   -1    0    0    0    0  0.00000000000E+00  0.00000000000E+00  0.18250000000E+03  0.18250000000E+03  0.00000000000E+00 0. -1.
         11   -1    0    0    0    0 -0.00000000000E+00 -0.00000000000E+00 -0.18250000000E+03  0.18250000000E+03  0.00000000000E+00 0. -1.
        -11    1    1    2    0    0  0.25492030016E-01  0.26078576501E+01  0.18142898465E+03  0.18144772813E+03  0.00000000000E+00 0. -1.
         11    1    1    2    0    0  0.81120576221E+01  0.62637035846E+01 -0.11115093031E+03  0.11162243847E+03  0.00000000000E+00 0. -1.
        -15    1    1    2    0    0 -0.45669518071E+01 -0.84410206107E+01 -0.32353456445E+02  0.33793664357E+02  0.17770000000E+01 0. -1.
         15    1    1    2    0    0 -0.35705978449E+01 -0.43054062402E+00 -0.37924597897E+02  0.38136169038E+02  0.17770000000E+01 0.  1.
</event>
<event>
 6    1  0.8353910E-003  0.1880094E+03  0.7546771E-02  0.1064152E+00
        -11   -1    0    0    0    0  0.00000000000E+00  0.00000000000E+00  0.18250000000E+03  0.18250000000E+03  0.00000000000E+00 0.  1.
         11   -1    0    0    0    0 -0.00000000000E+00 -0.00000000000E+00 -0.18250000000E+03  0.18250000000E+03  0.00000000000E+00 0.  1.
        -11    1    1    2    0    0  0.32429274770E+01 -0.30853133818E+01  0.16143600669E+03  0.16149804950E+03  0.00000000000E+00 0.  1.
         11    1    1    2    0    0 -0.21048802844E+01 -0.34157243764E+01 -0.17694507256E+03  0.17699055454E+03  0.00000000000E+00 0.  1.
        -15    1    1    2    0    0  0.12034511170E+00  0.31774212958E+01  0.20107126344E+02  0.20434401088E+02  0.17770000000E+01 0. -1.
         15    1    1    2    0    0 -0.12583923043E+01  0.33236164624E+01 -0.45980604673E+01  0.60769948693E+01  0.17770000000E+01 0.  1.
</event>
<event>
 6    1  0.8353910E-003  0.1845931E+03  0.7546771E-02  0.1066801E+00
        -11   -1    0    0    0    0  0.00000000000E+00  0.00000000000E+00  0.18250000000E+03  0.18250000000E+03  0.00000000000E+00 0.  1.
         11   -1    0    0    0    0 -0.00000000000E+00 -0.00000000000E+00 -0.18250000000E+03  0.18250000000E+03  0.00000000000E+00 0.  1.
        -11    1    1    2    0    0 -0.27741552904E+01  0.90261285614E+00  0.15195567841E+03  0.15198367955E+03  0.00000000000E+00 0.  1.
         11    1    1    2    0    0 -0.66887065902E+01 -0.10823444859E+01 -0.18027957184E+03  0.18040685765E+03  0.00000000000E+00 0.  1.
        -15    1    1    2    0    0  0.36549636786E+01  0.21771242137E+01  0.12304471776E+01  0.47718296900E+01  0.17770000000E+01 0. -1.
         15    1    1    2    0    0  0.58078982019E+01 -0.19973925839E+01  0.27093446245E+02  0.27837633109E+02  0.17770000000E+01 0.  1.
</event>
<event>
 6    1  0.8353910E-003  0.1826312E+03  0.7546771E-02  0.1068350E+00
        -11   -1    0    0    0    0  0.00000000000E+00  0.00000000000E+00  0.18250000000E+03  0.18250000000E+03  0.00000000000E+00 0. -1.
         11   -1    0    0    0    0 -0.00000000000E+00 -0.00000000000E+00 -0.18250000000E+03  0.18250000000E+03  0.00000000000E+00 0. -1.
        -11    1    1    2    0    0 -0.51600049537E+00 -0.15290085017E+01  0.69321732178E+02  0.69340512514E+02  0.00000000000E+00 0. -1.
         11    1    1    2    0    0 -0.58080361470E+00  0.37246799919E+01 -0.18232987201E+03  0.18236883726E+03  0.00000000000E+00 0. -1.
        -15    1    1    2    0    0 -0.13359278792E+01 -0.13591031239E+01  0.93271500995E+02  0.93307890831E+02  0.17770000000E+01 0. -1.
         15    1    1    2    0    0  0.24327319893E+01 -0.83656836639E+00  0.19736638839E+02  0.19982759399E+02  0.17770000000E+01 0.  1.
</event>
<event>
 6    1  0.8353910E-003  0.1915673E+03  0.7546771E-02  0.1061458E+00
        -11   -1    0    0    0    0  0.00000000000E+00  0.00000000000E+00  0.18250000000E+03  0.18250000000E+03  0.00000000000E+00 0.  1.
         11   -1    0    0    0    0 -0.00000000000E+00 -0.00000000000E+00 -0.18250000000E+03  0.18250000000E+03  0.00000000000E+00 0.  1.
        -11    1    1    2    0    0  0.56771854402E+01  0.34607692957E+00  0.16952941864E+03  0.16962480358E+03  0.00000000000E+00 0.  1.
         11    1    1    2    0    0 -0.86350526939E+00  0.35637259348E+01 -0.17339394462E+03  0.17343271264E+03  0.00000000000E+00 0.  1.
        -15    1    1    2    0    0 -0.55209063053E+01 -0.97366792625E+00 -0.77967901501E+01  0.97660688768E+01  0.17770000000E+01 0.  1.
         15    1    1    2    0    0  0.70722613448E+00 -0.29361349381E+01  0.11661316127E+02  0.12176414907E+02  0.17770000000E+01 0. -1.
</event>
<event>
 6    1  0.8353910E-003  0.1838287E+03  0.7546771E-02  0.1067402E+00
        -11   -1    0    0    0    0  0.00000000000E+00  0.00000000000E+00  0.18250000000E+03  0.18250000000E+03  0.00000000000E+00 0.  1.
         11   -1    0    0    0    0 -0.00000000000E+00 -0.00000000000E+00 -0.18250000000E+03  0.18250000000E+03  0.00000000000E+00 0.  1.
        -11    1    1    2    0    0  0.53318588116E+00 -0.41800898484E+01  0.18112224120E+03  0.18117125516E+03  0.00000000000E+00 0.  1.
         11    1    1    2    0    0  0.23876568917E+01  0.56601249555E+00 -0.13439416119E+03  0.13441656088E+03  0.00000000000E+00 0.  1.
        -15    1    1    2    0    0 -0.21633935567E+01 -0.31442112888E+01 -0.37874094188E+02  0.38107362489E+02  0.17770000000E+01 0.  1.
         15    1    1    2    0    0 -0.75744921611E+00  0.67582886416E+01 -0.88539858177E+01  0.11304821473E+02  0.17770000000E+01 0.  1.
</event>
<event>
 6    1  0.8353910E-003  0.1879625E+03  0.7546771E-02  0.1064188E+00
        -11   -1    0    0    0    0  0.00000000000E+00  0.00000000000E+00  0.18250000000E+03  0.18250000000E+03  0.00000000000E+00 0.  1.
         11   -1    0    0    0    0 -0.00000000000E+00 -0.00000000000E+00 -0.18250000000E+03  0.18250000000E+03  0.00000000000E+00 0.  1.
        -11    1    1    2    0    0  0.43261016044E+01  0.81762643447E-01  0.16797507667E+03  0.16803079546E+03  0.00000000000E+00 0.  1.
         11    1    1    2    0    0 -0.25010746418E+01 -0.13741679031E-01 -0.17701978538E+03  0.17703745361E+03  0.00000000000E+00 0.  1.
        -15    1    1    2    0    0  0.75495608069E+01 -0.11308223999E+01  0.59643477684E+01  0.98491522975E+01  0.17770000000E+01 0.  1.
         15    1    1    2    0    0 -0.93745877694E+01  0.10628014355E+01  0.30803609404E+01  0.10082598636E+02  0.17770000000E+01 0. -1.
</event>
<event>
 6    1  0.8353910E-003  0.1851445E+03  0.7546771E-02  0.1066369E+00
        -11   -1    0    0    0    0  0.00000000000E+00  0.00000000000E+00  0.18250000000E+03  0.18250000000E+03  0.00000000000E+00 0.  1.
         11   -1    0    0    0    0 -0.00000000000E+00 -0.00000000000E+00 -0.18250000000E+03  0.18250000000E+03  0.00000000000E+00 0. -1.
        -11    1    1    2    0    0 -0.53831270871E+01  0.11412161745E+02  0.17941234501E+03  0.17985551155E+03  0.00000000000E+00 0.  1.
         11    1    1    2    0    0 -0.85418889024E+00  0.53459761718E+01 -0.12147775385E+03  0.12159832968E+03  0.00000000000E+00 0. -1.
        -15    1    1    2    0    0  0.80291220944E+01 -0.84009120697E+01 -0.12035300336E+02  0.16824039598E+02  0.17770000000E+01 0.  1.
         15    1    1    2    0    0 -0.17918061171E+01 -0.83572258475E+01 -0.45899290820E+02  0.46722119171E+02  0.17770000000E+01 0.  1.
</event>
<event>
 6    1  0.8353910E-003  0.1827016E+03  0.7546771E-02  0.1068294E+00
        -11   -1    0    0    0    0  0.00000000000E+00  0.00000000000E+00  0.18250000000E+03  0.18250000000E+03  0.00000000000E+00 0. -1.
         11   -1    0    0    0    0 -0.00000000000E+00 -0.00000000000E+00 -0.18250000000E+03  0.18250000000E+03  0.00000000000E+00 0.  1.
        -11    1    1    2    0    0 -0.79362275009E+00  0.13127264696E+01  0.37145725935E+02  0.37177386179E+02  0.00000000000E+00 0. -1.
         11    1    1    2    0    0 -0.57293212966E+00  0.30759230444E+01 -0.18227155980E+03  0.18229841213E+03  0.00000000000E+00 0.  1.
        -15    1    1    2    0    0  0.18659003274E+01 -0.60362361126E+01  0.13225294529E+03  0.13241569770E+03  0.17770000000E+01 0. -1.
         15    1    1    2    0    0 -0.49934544761E+00  0.16475865986E+01  0.12872888576E+02  0.13108503987E+02  0.17770000000E+01 0. -1.
</event>
<event>
 6    1  0.8353910E-003  0.1849647E+03  0.7546771E-02  0.1066510E+00
        -11   -1    0    0    0    0  0.00000000000E+00  0.00000000000E+00  0.18250000000E+03  0.18250000000E+03  0.00000000000E+00 0.  1.
         11   -1    0    0    0    0 -0.00000000000E+00 -0.00000000000E+00 -0.18250000000E+03  0.18250000000E+03  0.00000000000E+00 0.  1.
        -11    1    1    2    0    0 -0.54200321352E+01  0.23964340915E+00  0.17995357976E+03  0.18003534388E+03  0.00000000000E+00 0.  1.
         11    1    1    2    0    0  0.16931055147E+01  0.11212240258E+01 -0.14697670225E+03  0.14699073016E+03  0.00000000000E+00 0.  1.
        -15    1    1    2    0    0 -0.21076023350E+01 -0.42851189382E+01 -0.87830370972E+00  0.51704330886E+01  0.17770000000E+01 0.  1.
         15    1    1    2    0    0  0.58345289554E+01  0.29242515033E+01 -0.32098573808E+02  0.32803492870E+02  0.17770000000E+01 0. -1.
</event>
<event>
 6    1  0.8353910E-003  0.1853120E+03  0.7546771E-02  0.1066238E+00
        -11   -1    0    0    0    0  0.00000000000E+00  0.00000000000E+00  0.18250000000E+03  0.18250000000E+03  0.00000000000E+00 0.  1.
         11   -1    0    0    0    0 -0.00000000000E+00 -0.00000000000E+00 -0.18250000000E+03  0.18250000000E+03  0.00000000000E+00 0.  1.
        -11    1    1    2    0    0 -0.20632543407E+01 -0.18517994219E+01  0.82789243433E+02  0.82835650584E+02  0.00000000000E+00 0.  1.
         11    1    1    2    0    0  0.21595944125E+01 -0.29612052510E+01 -0.17965059823E+03  0.17968797964E+03  0.00000000000E+00 0.  1.
        -15    1    1    2    0    0  0.26341118671E+01  0.14490025853E+00  0.96730097334E+02  0.96782379598E+02  0.17770000000E+01 0.  1.
         15    1    1    2    0    0 -0.27304519390E+01  0.46681044145E+01  0.13125745799E+00  0.56939901770E+01  0.17770000000E+01 0.  1.
</event>
<event>
 6    1  0.8353910E-003  0.1841888E+03  0.7546771E-02  0.1067118E+00
        -11   -1    0    0    0    0  0.00000000000E+00  0.00000000000E+00  0.18250000000E+03  0.18250000000E+03  0.00000000000E+00 0. -1.
         11   -1    0    0    0    0 -0.00000000000E+00 -0.00000000000E+00 -0.18250000000E+03  0.18250000000E+03  0.00000000000E+00 0. -1.
        -11    1    1    2    0    0  0.11789312531E+01  0.29014183940E+01  0.18078410310E+03  0.18081122764E+03  0.00000000000E+00 0. -1.
         11    1    1    2    0    0  0.23516797377E+01 -0.72922184611E+00 -0.17559699909E+03  0.17561425981E+03  0.00000000000E+00 0. -1.
        -15    1    1    2    0    0 -0.28548610382E+01 -0.16087920107E+01 -0.54198069304E+01  0.65780300580E+01  0.17770000000E+01 0.  1.
         15    1    1    2    0    0 -0.67574995262E+00 -0.56340453719E+00  0.23270291719E+00  0.19964824864E+01  0.17770000000E+01 0. -1.
</event>
<event>
 6    1  0.8353910E-003  0.1833970E+03  0.7546771E-02  0.1067743E+00
        -11   -1    0    0    0    0  0.00000000000E+00  0.00000000000E+00  0.18250000000E+03  0.18250000000E+03  0.00000000000E+00 0.  1.
         11   -1    0    0    0    0 -0.00000000000E+00 -0.00000000000E+00 -0.18250000000E+03  0.18250000000E+03  0.00000000000E+00 0. -1.
        -11    1    1    2    0    0  0.57299220596E+00  0.32838647890E+01  0.16647255916E+03  0.16650593095E+03  0.00000000000E+00 0.  1.
         11    1    1    2    0    0 -0.30216540205E+01  0.25722731307E+00 -0.18157762913E+03  0.18160295140E+03  0.00000000000E+00 0. -1.
        -15    1    1    2    0    0  0.17516077826E+01 -0.60474529220E+00  0.18069089049E+01  0.31395056113E+01  0.17770000000E+01 0. -1.
         15    1    1    2    0    0  0.69705403197E+00 -0.29363468098E+01  0.13298161063E+02  0.13751612036E+02  0.17770000000E+01 0.  1.
</event>
<event>
 6    1  0.8353910E-003  0.1871443E+03  0.7546771E-02  0.1064817E+00
        -11   -1    0    0    0    0  0.00000000000E+00  0.00000000000E+00  0.18250000000E+03  0.18250000000E+03  0.00000000000E+00 0.  1.
         11   -1    0    0    0    0 -0.00000000000E+00 -0.00000000000E+00 -0.18250000000E+03  0.18250000000E+03  0.00000000000E+00 0.  1.
        -11    1    1    2    0    0  0.24828868935E+01 -0.32775635244E+01  0.17537067712E+03  0.17541887454E+03  0.00000000000E+00 0.  1.
         11    1    1    2    0    0 -0.37957681942E+00  0.34485011207E+01 -0.17782186647E+03  0.17785570677E+03  0.00000000000E+00 0.  1.
        -15    1    1    2    0    0 -0.45858444776E+01  0.30218936278E+01 -0.13151491220E+01  0.59202328403E+01  0.17770000000E+01 0.  1.
         15    1    1    2    0    0  0.24825344036E+01 -0.31928312240E+01  0.37663384687E+01  0.58051858498E+01  0.17770000000E+01 0. -1.
</event>
<event>
 6    1  0.8353910E-003  0.1842105E+03  0.7546771E-02  0.1067101E+00
        -11   -1    0    0    0    0  0.00000000000E+00  0.00000000000E+00  0.18250000000E+03  0.18250000000E+03  0.00000000000E+00 0.  1.
         11   -1    0    0    0    0 -0.00000000000E+00 -0.00000000000E+00 -0.18250000000E+03  0.18250000000E+03  0.00000000000E+00 0.  1.
        -11    1    1    2    0    0 -0.45162500597E+01  0.21875061033E+01  0.12852647141E+03  0.12862439718E+03  0.00000000000E+00 0.  1.
         11    1    1    2    0    0 -0.75969182753E+01  0.44986340662E+01 -0.18057377832E+03  0.18078949165E+03  0.00000000000E+00 0.  1.
        -15    1    1    2    0    0 -0.84537507730E+00 -0.35704471699E+01  0.25542989294E+02  0.25866286612E+02  0.17770000000E+01 0.  1.
         15    1    1    2    0    0  0.12958543412E+02 -0.31156929996E+01  0.26504317620E+02  0.29719824558E+02  0.17770000000E+01 0. -1.
</event>
<event>
 6    1  0.8353910E-003  0.1831766E+03  0.7546771E-02  0.1067917E+00
        -11   -1    0    0    0    0  0.00000000000E+00  0.00000000000E+00  0.18250000000E+03  0.18250000000E+03  0.00000000000E+00 0. -1.
         11   -1    0    0    0    0 -0.00000000000E+00 -0.00000000000E+00 -0.18250000000E+03  0.18250000000E+03  0.00000000000E+00 0.  1.
        -11    1    1    2    0    0  0.17821516297E+01  0.19019918045E+01  0.18180467717E+03  0.18182336010E+03  0.00000000000E+00 0. -1.
         11    1    1    2    0    0 -0.29018480761E+01  0.23936467585E+01 -0.15533927550E+03  0.15538481515E+03  0.00000000000E+00 0.  1.
        -15    1    1    2    0    0  0.46498898579E+00 -0.18534374353E+01 -0.24530804105E+01  0.35814490899E+01  0.17770000000E+01 0.  1.
         15    1    1    2    0    0  0.65470746056E+00 -0.24422011277E+01 -0.24012321261E+02  0.24210375659E+02  0.17770000000E+01 0. -1.
</event>
<event>
 6    1  0.8353910E-003  0.1825782E+03  0.7546771E-02  0.1068393E+00
        -11   -1    0    0    0    0  0.00000000000E+00  0.00000000000E+00  0.18250000000E+03  0.18250000000E+03  0.00000000000E+00 0.  1.
         11   -1    0    0    0    0 -0.00000000000E+00 -0.00000000000E+00 -0.18250000000E+03  0.18250000000E+03  0.00000000000E+00 0. -1.
        -11    1    1    2    0    0  0.12904749789E+01  0.25230548795E+01  0.18239978379E+03  0.18242179765E+03  0.00000000000E+00 0.  1.
         11    1    1    2    0    0  0.13346171911E+01  0.25416080454E+00 -0.46610643524E+02  0.46630439527E+02  0.00000000000E+00 0. -1.
        -15    1    1    2    0    0 -0.10458543371E+01 -0.27134904914E+01 -0.45559987753E+02  0.45687274541E+02  0.17770000000E+01 0. -1.
         15    1    1    2    0    0 -0.15792378329E+01 -0.63725192669E-01 -0.90229152512E+02  0.90260488282E+02  0.17770000000E+01 0. -1.
</event>
<event>
 6    1  0.9840196E-003  0.2297672E+03  0.7546771E-02  0.1036033E+00
        -11   -1    0    0    0    0  0.00000000000E+00  0.00000000000E+00  0.18250000000E+03  0.18250000000E+03  0.00000000000E+00 0.  1.
         11   -1    0    0    0    0 -0.00000000000E+00 -0.00000000000E+00 -0.18250000000E+03  0.18250000000E+03  0.00000000000E+00 0.  1.
        -11    1    1    2    0    0  0.22296903239E+01 -0.47272475833E+00  0.10150843989E+03  0.10153402561E+03  0.00000000000E+00 0.  1.
         11    1    1    2    0    0  0.22098315175E+01  0.45109890825E+01 -0.13513945821E+03  0.13523278279E+03  0.00000000000E+00 0.  1.
        -15    1    1    2    0    0  0.97868320451E+00  0.42524418212E+01  0.80327155167E+02  0.80465214028E+02  0.17770000000E+01 0.  1.
         15    1    1    2    0    0 -0.54182050459E+01 -0.82907061453E+01 -0.46696136856E+02  0.47767977564E+02  0.17770000000E+01 0. -1.
</event>
<event>
 6    1  0.8353910E-003  0.1886458E+03  0.7546771E-02  0.1063665E+00
        -11   -1    0    0    0    0  0.00000000000E+00  0.00000000000E+00  0.18250000000E+03  0.18250000000E+03  0.00000000000E+00 0.  1.
         11   -1    0    0    0    0 -0.00000000000E+00 -0.00000000000E+00 -0.18250000000E+03  0.18250000000E+03  0.00000000000E+00 0. -1.
        -11    1    1    2    0    0  0.59982993515E+01 -0.11756790380E+01  0.16588227832E+03  0.16599485558E+03  0.00000000000E+00 0.  1.
         11    1    1    2    0    0 -0.10567075517E+02 -0.44275268714E+01 -0.17598164945E+03  0.17635420897E+03  0.00000000000E+00 0. -1.
        -15    1    1    2    0    0  0.86266492986E+01  0.83574564335E+01  0.10261357721E+01  0.12185107295E+02  0.17770000000E+01 0.  1.
         15    1    1    2    0    0 -0.40578731332E+01 -0.27542505241E+01  0.90732353533E+01  0.10465828161E+02  0.17770000000E+01 0. -1.
</event>
<event>
 6    1  0.8353910E-003  0.1825674E+03  0.7546771E-02  0.1068401E+00
        -11   -1    0    0    0    0  0.00000000000E+00  0.00000000000E+00  0.18250000000E+03  0.18250000000E+03  0.00000000000E+00 0.  1.
         11   -1    0    0    0    0 -0.00000000000E+00 -0.00000000000E+00 -0.18250000000E+03  0.18250000000E+03  0.00000000000E+00 0.  1.
        -11    1    1    2    0    0  0.31406085345E+01 -0.13275705550E+01  0.18240070231E+03  0.18243256855E+03  0.00000000000E+00 0.  1.
         11    1    1    2    0    0 -0.20841569320E+01  0.74881189338E-01 -0.77218667870E+02  0.77246825080E+02  0.00000000000E+00 0.  1.
        -15    1    1    2    0    0 -0.20663859105E+01  0.88753655521E+00 -0.38628736592E+02  0.38734928573E+02  0.17770000000E+01 0.  1.
         15    1    1    2    0    0  0.10099343079E+01  0.36515281049E+00 -0.66553297849E+02  0.66585677795E+02  0.17770000000E+01 0. -1.
</event>
<event>
 6    1  0.8353910E-003  0.1838043E+03  0.7546771E-02  0.1067421E+00
        -11   -1    0    0    0    0  0.00000000000E+00  0.00000000000E+00  0.18250000000E+03  0.18250000000E+03  0.00000000000E+00 0.  1.
         11   -1    0    0    0    0 -0.00000000000E+00 -0.00000000000E+00 -0.18250000000E+03  0.18250000000E+03  0.00000000000E+00 0. -1.
        -11    1    1    2    0    0 -0.79715112835E+00 -0.43039083334E+01  0.97654641835E+02  0.97752688704E+02  0.00000000000E+00 0.  1.
         11    1    1    2    0    0 -0.10159628991E+02  0.39234784081E+01 -0.18086807927E+03  0.18119567832E+03  0.00000000000E+00 0. -1.
        -15    1    1    2    0    0  0.11321222227E+02 -0.19610138286E+01  0.23058152029E+02  0.25823472887E+02  0.17770000000E+01 0.  1.
         15    1    1    2    0    0 -0.36444210819E+00  0.23414437539E+01  0.60155285403E+02  0.60228160090E+02  0.17770000000E+01 0.  1.
</event>
<event>
 6    1  0.8353910E-003  0.1845274E+03  0.7546771E-02  0.1066852E+00
        -11   -1    0    0    0    0  0.00000000000E+00  0.00000000000E+00  0.18250000000E+03  0.18250000000E+03  0.00000000000E+00 0. -1.
         11   -1    0    0    0    0 -0.00000000000E+00 -0.00000000000E+00 -0.18250000000E+03  0.18250000000E+03  0.00000000000E+00 0.  1.
        -11    1    1    2    0    0 -0.46960919431E+01 -0.24243461670E+01  0.15808247037E+03  0.15817078798E+03  0.00000000000E+00 0. -1.
         11    1    1    2    0    0  0.31079396009E+01  0.24098297277E+01 -0.18042976836E+03  0.18047262363E+03  0.00000000000E+00 0.  1.
        -15    1    1    2    0    0  0.56509524448E+01  0.21839702717E+01  0.19838728948E+02  0.20819123059E+02  0.17770000000E+01 0. -1.
         15    1    1    2    0    0 -0.40628001027E+01 -0.21694538324E+01  0.25085690479E+01  0.55374653293E+01  0.17770000000E+01 0.  1.
</event>
<event>
 6    1  0.8353910E-003  0.1829704E+03  0.7546771E-02  0.1068081E+00
        -11   -1    0    0    0    0  0.00000000000E+00  0.00000000000E+00  0.18250000000E+03  0.18250000000E+03  0.00000000000E+00 0. -1.
         11   -1    0    0    0    0 -0.00000000000E+00 -0.00000000000E+00 -0.18250000000E+03  0.18250000000E+03  0.00000000000E+00 0.  1.
        -11    1    1    2    0    0 -0.24557611650E+01  0.56088603539E+00  0.18201216122E+03  0.18202959152E+03  0.00000000000E+00 0. -1.
         11    1    1    2    0    0 -0.31832879523E+01 -0.44318304140E+01 -0.11112183509E+03  0.11125572649E+03  0.00000000000E+00 0.  1.
        -15    1    1    2    0    0  0.73933444557E+01  0.31877219789E+01 -0.55132463311E+02  0.55745576985E+02  0.17770000000E+01 0. -1.
         15    1    1    2    0    0 -0.17542953385E+01  0.68322239964E+00 -0.15757862823E+02  0.15969105007E+02  0.17770000000E+01 0.  1.
</event>
<event>
 6    1  0.8353910E-003  0.1779696E+03  0.7546771E-02  0.1072119E+00
        -11   -1    0    0    0    0  0.00000000000E+00  0.00000000000E+00  0.18250000000E+03  0.18250000000E+03  0.00000000000E+00 0. -1.
         11   -1    0    0    0    0 -0.00000000000E+00 -0.00000000000E+00 -0.18250000000E+03  0.18250000000E+03  0.00000000000E+00 0. -1.
        -11    1    1    2    0    0  0.22428338219E+01 -0.94736029532E+00  0.17660335977E+03  0.17662014176E+03  0.00000000000E+00 0. -1.
         11    1    1    2    0    0  0.32185737081E+01 -0.65963125470E-01 -0.17934403080E+03  0.17937292146E+03  0.00000000000E+00 0. -1.
        -15    1    1    2    0    0 -0.46150453610E+01  0.12548349146E+01 -0.58442431235E+00  0.51354196638E+01  0.17770000000E+01 0.  1.
         15    1    1    2    0    0 -0.84636216904E+00 -0.24151149378E+00  0.33250953451E+01  0.38715171156E+01  0.17770000000E+01 0. -1.
</event>
<event>
 6    1  0.8353910E-003  0.1826395E+03  0.7546771E-02  0.1068344E+00
        -11   -1    0    0    0    0  0.00000000000E+00  0.00000000000E+00  0.18250000000E+03  0.18250000000E+03  0.00000000000E+00 0. -1.
         11   -1    0    0    0    0 -0.00000000000E+00 -0.00000000000E+00 -0.18250000000E+03  0.18250000000E+03  0.00000000000E+00 0.  1.
        -11    1    1    2    0    0 -0.10702379276E+01  0.10167957819E+01  0.71359959319E+02  0.71375227333E+02  0.00000000000E+00 0. -1.
         11    1    1    2    0    0 -0.25626598217E+01  0.16004112401E+01 -0.18233542702E+03  0.18236045758E+03  0.00000000000E+00 0.  1.
        -15    1    1    2    0    0  0.32866304753E+01 -0.40422508572E-01  0.87350412108E+02  0.87430291080E+02  0.17770000000E+01 0. -1.
         15    1    1    2    0    0  0.34626727402E+00 -0.25767845133E+01  0.23625055596E+02  0.23834024007E+02  0.17770000000E+01 0.  1.
</event>
<event>
 6    1  0.8353910E-003  0.1806114E+03  0.7546771E-02  0.1069968E+00
        -11   -1    0    0    0    0  0.00000000000E+00  0.00000000000E+00  0.18250000000E+03  0.18250000000E+03  0.00000000000E+00 0. -1.
         11   -1    0    0    0    0 -0.00000000000E+00 -0.00000000000E+00 -0.18250000000E+03  0.18250000000E+03  0.00000000000E+00 0.  1.
        -11    1    1    2    0    0 -0.13112106566E+01  0.23844754972E+00  0.43557749759E+01  0.45550967345E+01  0.00000000000E+00 0. -1.
         11    1    1    2    0    0  0.10793387040E+01  0.28585912801E+01 -0.18196567389E+03  0.18199132669E+03  0.00000000000E+00 0.  1.
        -15    1    1    2    0    0 -0.65733708467E+01 -0.32537605632E+01  0.13921909957E+03  0.13942349722E+03  0.17770000000E+01 0. -1.
         15    1    1    2    0    0  0.68052427993E+01  0.15672173334E+00  0.38390799342E+02  0.39030079354E+02  0.17770000000E+01 0.  1.
</event>
<event>
 6    1  0.8353910E-003  0.1842600E+03  0.7546771E-02  0.1067062E+00
        -11   -1    0    0    0    0  0.00000000000E+00  0.00000000000E+00  0.18250000000E+03  0.18250000000E+03  0.00000000000E+00 0.  1.
         11   -1    0    0    0    0 -0.00000000000E+00 -0.00000000000E+00 -0.18250000000E+03  0.18250000000E+03  0.00000000000E+00 0. -1.
        -11    1    1    2    0    0 -0.20418837264E+01  0.33082634351E+01  0.16895000442E+03  0.16899472741E+03  0.00000000000E+00 0.  1.
         11    1    1    2    0    0 -0.24512576286E+01  0.64554908932E+00 -0.18072222900E+03  0.18074000512E+03  0.00000000000E+00 0. -1.
        -15    1    1    2    0    0  0.31936028865E+01 -0.52811491413E+00  0.11161705894E+01  0.38576638713E+01  0.17770000000E+01 0.  1.
         15    1    1    2    0    0  0.12995384685E+01 -0.34256976103E+01  0.10656053985E+02  0.11407603600E+02  0.17770000000E+01 0.  1.
</event>
<event>
 6    1  0.8353910E-003  0.1858010E+03  0.7546771E-02  0.1065857E+00
        -11   -1    0    0    0    0  0.00000000000E+00  0.00000000000E+00  0.18250000000E+03  0.18250000000E+03  0.00000000000E+00 0.  1.
         11   -1    0    0    0    0 -0.00000000000E+00 -0.00000000000E+00 -0.18250000000E+03  0.18250000000E+03  0.00000000000E+00 0. -1.
        -11    1    1    2    0    0  0.28459655836E+01  0.93637380159E+00  0.13392148328E+03  0.13395499245E+03  0.00000000000E+00 0.  1.
         11    1    1    2    0    0 -0.28724162825E+01 -0.61946607567E+00 -0.17917487872E+03  0.17919897231E+03  0.00000000000E+00 0. -1.
        -15    1    1    2    0    0 -0.70377920520E+01  0.21343435412E+01  0.43245542523E+02  0.43902398755E+02  0.17770000000E+01 0.  1.
         15    1    1    2    0    0  0.70642427509E+01 -0.24512512672E+01  0.20078529081E+01  0.79436364921E+01  0.17770000000E+01 0. -1.
</event>
<event>
 6    1  0.8353910E-003  0.1960804E+03  0.7546771E-02  0.1058131E+00
        -11   -1    0    0    0    0  0.00000000000E+00  0.00000000000E+00  0.18250000000E+03  0.18250000000E+03  0.00000000000E+00 0. -1.
         11   -1    0    0    0    0 -0.00000000000E+00 -0.00000000000E+00 -0.18250000000E+03  0.18250000000E+03  0.00000000000E+00 0.  1.
        -11    1    1    2    0    0  0.10407575002E+02 -0.85280369092E+01  0.16838283469E+03  0.16891957865E+03  0.00000000000E+00 0. -1.
         11    1    1    2    0    0  0.38012178497E+01  0.14250538666E+01 -0.41083901762E+02  0.41283980182E+02  0.00000000000E+00 0.  1.
        -15    1    1    2    0    0  0.11565396719E+01 -0.22319772004E+02  0.82029053364E+00  0.22435249317E+02  0.17770000000E+01 0. -1.
         15    1    1    2    0    0 -0.15365332524E+02  0.29422755047E+02 -0.12811922347E+03  0.13236119185E+03  0.17770000000E+01 0.  1.
</event>
<event>
 6    1  0.8353910E-003  0.1666513E+03  0.7546771E-02  0.1081821E+00
        -11   -1    0    0    0    0  0.00000000000E+00  0.00000000000E+00  0.18250000000E+03  0.18250000000E+03  0.00000000000E+00 0. -1.
         11   -1    0    0    0    0 -0.00000000000E+00 -0.00000000000E+00 -0.18250000000E+03  0.18250000000E+03  0.00000000000E+00 0. -1.
        -11    1    1    2    0    0 -0.36516092695E+01 -0.49996215935E+01  0.16485390611E+03  0.16497012101E+03  0.00000000000E+00 0. -1.
         11    1    1    2    0    0 -0.69175366268E+00 -0.40128255772E+01 -0.16845270941E+03  0.16850191868E+03  0.00000000000E+00 0. -1.
        -15    1    1    2    0    0  0.15522703743E+01  0.50677200583E+01 -0.12998953072E+02  0.14149976674E+02  0.17770000000E+01 0. -1.
         15    1    1    2    0    0  0.27910925579E+01  0.39447271124E+01  0.16597756371E+02  0.17377983635E+02  0.17770000000E+01 0. -1.
</event>
<event>
 6    1  0.8353910E-003  0.1828570E+03  0.7546771E-02  0.1068171E+00
        -11   -1    0    0    0    0  0.00000000000E+00  0.00000000000E+00  0.18250000000E+03  0.18250000000E+03  0.00000000000E+00 0. -1.
         11   -1    0    0    0    0 -0.00000000000E+00 -0.00000000000E+00 -0.18250000000E+03  0.18250000000E+03  0.00000000000E+00 0. -1.
        -11    1    1    2    0    0 -0.31786544581E+01 -0.30030337808E+01  0.18209051415E+03  0.18214301359E+03  0.00000000000E+00 0. -1.
         11    1    1    2    0    0  0.66072048157E+00  0.25023415952E+01 -0.15950805656E+03  0.15952905181E+03  0.00000000000E+00 0. -1.
        -15    1    1    2    0    0  0.31728154055E+00 -0.12065475496E+01 -0.13277482507E+02  0.13453835709E+02  0.17770000000E+01 0. -1.
         15    1    1    2    0    0  0.22006524360E+01  0.17072397352E+01 -0.93049750800E+01  0.98740988904E+01  0.17770000000E+01 0.  1.
</event>
<event>
 6    1  0.8353910E-003  0.1900912E+03  0.7546771E-02  0.1062568E+00
        -11   -1    0    0    0    0  0.00000000000E+00  0.00000000000E+00  0.18250000000E+03  0.18250000000E+03  0.00000000000E+00 0. -1.
         11   -1    0    0    0    0 -0.00000000000E+00 -0.00000000000E+00 -0.18250000000E+03  0.18250000000E+03  0.00000000000E+00 0. -1.
        -11    1    1    2    0    0  0.13492391988E+02 -0.52354581980E+01  0.15198658997E+03  0.15267409143E+03  0.00000000000E+00 0. -1.
         11    1    1    2    0    0  0.14098844817E+02  0.89123301803E+01 -0.17411169812E+03  0.17490880617E+03  0.00000000000E+00 0. -1.
        -15    1    1    2    0    0 -0.20304156216E+02  0.20709207512E+01  0.17261475678E+02  0.26789246798E+02  0.17770000000E+01 0. -1.
         15    1    1    2    0    0 -0.72870805876E+01 -0.57477927335E+01  0.48636324721E+01  0.10627855598E+02  0.17770000000E+01 0.  1.
</event>
<event>
 6    1  0.8353910E-003  0.1833450E+03  0.7546771E-02  0.1067784E+00
        -11   -1    0    0    0    0  0.00000000000E+00  0.00000000000E+00  0.18250000000E+03  0.18250000000E+03  0.00000000000E+00 0. -1.
         11   -1    0    0    0    0 -0.00000000000E+00 -0.00000000000E+00 -0.18250000000E+03  0.18250000000E+03  0.00000000000E+00 0.  1.
        -11    1    1    2    0    0 -0.22172858384E+01 -0.20355032437E+01  0.14447387334E+03  0.14450522380E+03  0.00000000000E+00 0. -1.
         11    1    1    2    0    0  0.16562025909E+01  0.33186246607E+01 -0.18161711840E+03  0.18165498609E+03  0.00000000000E+00 0.  1.
        -15    1    1    2    0    0 -0.98024738659E+00 -0.30426493609E+01  0.34794204262E+01  0.50480387850E+01  0.17770000000E+01 0. -1.
         15    1    1    2    0    0  0.15413306342E+01  0.17595279440E+01  0.33663824639E+02  0.33791751316E+02  0.17770000000E+01 0.  1.
</event>
<event>
 6    1  0.8353910E-003  0.1839160E+03  0.7546771E-02  0.1067333E+00
        -11   -1    0    0    0    0  0.00000000000E+00  0.00000000000E+00  0.18250000000E+03  0.18250000000E+03  0.00000000000E+00 0. -1.
         11   -1    0    0    0    0 -0.00000000000E+00 -0.00000000000E+00 -0.18250000000E+03  0.18250000000E+03  0.00000000000E+00 0. -1.
        -11    1    1    2    0    0  0.32303908645E+01 -0.16127672498E+00  0.18105514505E+03  0.18108403293E+03  0.00000000000E+00 0. -1.
         11    1    1    2    0    0  0.20315325165E+00  0.25798968621E+01 -0.16582060905E+03  0.16584080175E+03  0.00000000000E+00 0. -1.
        -15    1    1    2    0    0 -0.43453771353E+01  0.46466772768E+00 -0.36311830202E+01  0.59532711740E+01  0.17770000000E+01 0. -1.
         15    1    1    2    0    0  0.91183301918E+00 -0.28832878648E+01 -0.11603352974E+02  0.12121894142E+02  0.17770000000E+01 0. -1.
</event>
<event>
 6    1  0.8353910E-003  0.1885555E+03  0.7546771E-02  0.1063734E+00
        -11   -1    0    0    0    0  0.00000000000E+00  0.00000000000E+00  0.18250000000E+03  0.18250000000E+03  0.00000000000E+00 0. -1.
         11   -1    0    0    0    0 -0.00000000000E+00 -0.00000000000E+00 -0.18250000000E+03  0.18250000000E+03  0.00000000000E+00 0.  1.
        -11    1    1    2    0    0  0.29649180140E+01  0.30120726442E+01  0.17639388365E+03  0.17644451114E+03  0.00000000000E+00 0. -1.
         11    1    1    2    0    0 -0.21415698921E+01  0.19897616685E+01 -0.17237271319E+03  0.17239749918E+03  0.00000000000E+00 0.  1.
        -15    1    1    2    0    0 -0.35718306775E+00 -0.33369920791E+01  0.52958977230E+01  0.65166983644E+01  0.17770000000E+01 0. -1.
         15    1    1    2    0    0 -0.46616505422E+00 -0.16648422336E+01 -0.93170681896E+01  0.96412913124E+01  0.17770000000E+01 0.  1.
</event>
<event>
 6    1  0.8353910E-003  0.1894739E+03  0.7546771E-02  0.1063035E+00
        -11   -1    0    0    0    0  0.00000000000E+00  0.00000000000E+00  0.18250000000E+03  0.18250000000E+03  0.00000000000E+00 0.  1.
         11   -1    0    0    0    0 -0.00000000000E+00 -0.00000000000E+00 -0.18250000000E+03  0.18250000000E+03  0.00000000000E+00 0. -1.
        -11    1    1    2    0    0 -0.40319613171E+01 -0.40437431362E+01  0.17543321110E+03  0.17552612378E+03  0.00000000000E+00 0.  1.
         11    1    1    2    0    0  0.64570366680E+00  0.50744013138E+01 -0.15093773018E+03  0.15102438503E+03  0.00000000000E+00 0. -1.
        -15    1    1    2    0    0 -0.31496702708E+01 -0.53754250869E+01 -0.28663936580E+02  0.29386980228E+02  0.17770000000E+01 0.  1.
         15    1    1    2    0    0  0.65359279211E+01  0.43447669093E+01  0.41684556600E+01  0.90625109586E+01  0.17770000000E+01 0. -1.
</event>
<event>
 6    1  0.8353910E-003  0.1835620E+03  0.7546771E-02  0.1067613E+00
        -11   -1    0    0    0    0  0.00000000000E+00  0.00000000000E+00  0.18250000000E+03  0.18250000000E+03  0.00000000000E+00 0.  1.
         11   -1    0    0    0    0 -0.00000000000E+00 -0.00000000000E+00 -0.18250000000E+03  0.18250000000E+03  0.00000000000E+00 0. -1.
        -11    1    1    2    0    0 -0.41037524918E+01  0.57083849170E+01  0.18130169253E+03  0.18143795126E+03  0.00000000000E+00 0.  1.
         11    1    1    2    0    0 -0.19732210191E+01  0.57288173868E+00 -0.14813387463E+03  0.14814812387E+03  0.00000000000E+00 0. -1.
        -15    1    1    2    0    0  0.70474465050E+01 -0.63515682412E+01 -0.21442057077E+02  0.23514430932E+02  0.17770000000E+01 0. -1.
         15    1    1    2    0    0 -0.97047299405E+00  0.70301585532E-01 -0.11725760822E+02  0.11899493939E+02  0.17770000000E+01 0.  1.
</event>
<event>
 6    1  0.8353910E-003  0.1777296E+03  0.7546771E-02  0.1072317E+00
        -11   -1    0    0    0    0  0.00000000000E+00  0.00000000000E+00  0.18250000000E+03  0.18250000000E+03  0.00000000000E+00 0. -1.
         11   -1    0    0    0    0 -0.00000000000E+00 -0.00000000000E+00 -0.18250000000E+03  0.18250000000E+03  0.00000000000E+00 0. -1.
        -11    1    1    2    0    0 -0.31089149829E+01 -0.22697671436E+01  0.17657005493E+03  0.17661200835E+03  0.00000000000E+00 0. -1.
         11    1    1    2    0    0 -0.17400105431E+01  0.24047852425E+01 -0.17886301506E+03  0.17888764291E+03  0.00000000000E+00 0. -1.
        -15    1    1    2    0    0  0.52355415203E+01  0.24474500954E+01  0.17586234489E+01  0.62969351604E+01  0.17770000000E+01 0. -1.
         15    1    1    2    0    0 -0.38661599423E+00 -0.25824681943E+01  0.53433667930E+00  0.32034135837E+01  0.17770000000E+01 0.  1.
</event>
<event>
 6    1  0.8353910E-003  0.1836109E+03  0.7546771E-02  0.1067574E+00
        -11   -1    0    0    0    0  0.00000000000E+00  0.00000000000E+00  0.18250000000E+03  0.18250000000E+03  0.00000000000E+00 0. -1.
         11   -1    0    0    0    0 -0.00000000000E+00 -0.00000000000E+00 -0.18250000000E+03  0.18250000000E+03  0.00000000000E+00 0. -1.
        -11    1    1    2    0    0  0.24805577342E+01 -0.28971587480E+00  0.18137186572E+03  0.18138905914E+03  0.00000000000E+00 0. -1.
         11    1    1    2    0    0 -0.59065455851E+00  0.36482586115E+01 -0.14182166728E+03  0.14186981347E+03  0.00000000000E+00 0. -1.
        -15    1    1    2    0    0  0.97391414423E+00  0.26611767609E+01 -0.28626441204E+02  0.28821194207E+02  0.17770000000E+01 0. -1.
         15    1    1    2    0    0 -0.28638173200E+01 -0.60197194975E+01 -0.10923757229E+02  0.12919933184E+02  0.17770000000E+01 0.  1.
</event>
<event>
 6    1  0.8353910E-003  0.1851682E+03  0.7546771E-02  0.1066351E+00
        -11   -1    0    0    0    0  0.00000000000E+00  0.00000000000E+00  0.18250000000E+03  0.18250000000E+03  0.00000000000E+00 0. -1.
         11   -1    0    0    0    0 -0.00000000000E+00 -0.00000000000E+00 -0.18250000000E+03  0.18250000000E+03  0.00000000000E+00 0.  1.
        -11    1    1    2    0    0 -0.22333663653E+01  0.37676258959E+01  0.17977849087E+03  0.17983183453E+03  0.00000000000E+00 0. -1.
         11    1    1    2    0    0  0.71991094754E+00  0.30375801875E+01 -0.15355599041E+03  0.15358771876E+03  0.00000000000E+00 0.  1.
        -15    1    1    2    0    0  0.60500264738E+01 -0.97074840888E+01 -0.14463497080E+02  0.18525348700E+02  0.17770000000E+01 0. -1.
         15    1    1    2    0    0 -0.45365710561E+01  0.29022780054E+01 -0.11759003381E+02  0.13055098011E+02  0.17770000000E+01 0.  1.
</event>
<event>
 6    1  0.8353910E-003  0.1916601E+03  0.7546771E-02  0.1061388E+00
        -11   -1    0    0    0    0  0.00000000000E+00  0.00000000000E+00  0.18250000000E+03  0.18250000000E+03  0.00000000000E+00 0.  1.
         11   -1    0    0    0    0 -0.00000000000E+00 -0.00000000000E+00 -0.18250000000E+03  0.18250000000E+03  0.00000000000E+00 0. -1.
        -11    1    1    2    0    0  0.52943533854E+01  0.11908084517E+01  0.17325491923E+03  0.17333988358E+03  0.00000000000E+00 0.  1.
         11    1    1    2    0    0  0.22573494927E+01  0.89598751050E+01 -0.15724013312E+03  0.15751137880E+03  0.00000000000E+00 0. -1.
        -15    1    1    2    0    0 -0.10040176624E+01  0.28892126563E+01  0.64184018698E+01  0.73286569576E+01  0.17770000000E+01 0.  1.
         15    1    1    2    0    0 -0.65476852157E+01 -0.13039896213E+02 -0.22433187978E+02  0.26820080663E+02  0.17770000000E+01 0. -1.
</event>
<event>
 6    1  0.8353910E-003  0.1850587E+03  0.7546771E-02  0.1066436E+00
        -11   -1    0    0    0    0  0.00000000000E+00  0.00000000000E+00  0.18250000000E+03  0.18250000000E+03  0.00000000000E+00 0. -1.
         11   -1    0    0    0    0 -0.00000000000E+00 -0.00000000000E+00 -0.18250000000E+03  0.18250000000E+03  0.00000000000E+00 0. -1.
        -11    1    1    2    0    0  0.27881037029E+01  0.11911750964E+01  0.17383303497E+03  0.17385947333E+03  0.00000000000E+00 0. -1.
         11    1    1    2    0    0 -0.25656997998E+01  0.91256999488E+00 -0.17992067972E+03  0.17994128651E+03  0.00000000000E+00 0. -1.
        -15    1    1    2    0    0 -0.42639076699E+01 -0.55974326494E+00  0.37177639979E+01  0.59559818069E+01  0.17770000000E+01 0.  1.
         15    1    1    2    0    0  0.40415037668E+01 -0.15440018263E+01  0.23698807523E+01  0.52432583492E+01  0.17770000000E+01 0. -1.
</event>
<event>
 6    1  0.8353910E-003  0.1837873E+03  0.7546771E-02  0.1067435E+00
        -11   -1    0    0    0    0  0.00000000000E+00  0.00000000000E+00  0.18250000000E+03  0.18250000000E+03  0.00000000000E+00 0.  1.
         11   -1    0    0    0    0 -0.00000000000E+00 -0.00000000000E+00 -0.18250000000E+03  0.18250000000E+03  0.00000000000E+00 0.  1.
        -11    1    1    2    0    0  0.21531611091E+01 -0.13484077120E+01  0.18119493849E+03  0.18121274801E+03  0.00000000000E+00 0.  1.
         11    1    1    2    0    0  0.38670358561E+01  0.23525982308E+01 -0.17117298168E+03  0.17123281911E+03  0.00000000000E+00 0.  1.
        -15    1    1    2    0    0 -0.21255382270E+01 -0.15823542964E+01 -0.49878053951E+01  0.59209534311E+01  0.17770000000E+01 0. -1.
         15    1    1    2    0    0 -0.38946587381E+01  0.57816377757E+00 -0.50341514174E+01  0.66334794440E+01  0.17770000000E+01 0.  1.
</event>
<event>
 6    1  0.8353910E-003  0.1871783E+03  0.7546771E-02  0.1064791E+00
        -11   -1    0    0    0    0  0.00000000000E+00  0.00000000000E+00  0.18250000000E+03  0.18250000000E+03  0.00000000000E+00 0.  1.
         11   -1    0    0    0    0 -0.00000000000E+00 -0.00000000000E+00 -0.18250000000E+03  0.18250000000E+03  0.00000000000E+00 0.  1.
        -11    1    1    2    0    0  0.10559203822E+02  0.82943516564E+01  0.17731402081E+03  0.17782169449E+03  0.00000000000E+00 0.  1.
         11    1    1    2    0    0  0.23139037058E+01 -0.17194368321E+00 -0.13096193266E+03  0.13098248555E+03  0.00000000000E+00 0.  1.
        -15    1    1    2    0    0 -0.22671599981E+01 -0.61993194912E+01  0.15953840254E+01  0.70195837341E+01  0.17770000000E+01 0. -1.
         15    1    1    2    0    0 -0.10605947530E+02 -0.19230884820E+01 -0.47947472178E+02  0.49176236228E+02  0.17770000000E+01 0.  1.
</event>
<event>
 6    1  0.8353910E-003  0.1868998E+03  0.7546771E-02  0.1065006E+00
        -11   -1    0    0    0    0  0.00000000000E+00  0.00000000000E+00  0.18250000000E+03  0.18250000000E+03  0.00000000000E+00 0.  1.
         11   -1    0    0    0    0 -0.00000000000E+00 -0.00000000000E+00 -0.18250000000E+03  0.18250000000E+03  0.00000000000E+00 0. -1.
        -11    1    1    2    0    0  0.30818842909E+01 -0.68072383025E-01  0.17807354033E+03  0.17810022013E+03  0.00000000000E+00 0.  1.
         11    1    1    2    0    0 -0.96896792383E+01  0.44559975927E+01 -0.16122385139E+03  0.16157622367E+03  0.00000000000E+00 0. -1.
        -15    1    1    2    0    0 -0.21793968350E+01 -0.35280405218E+00  0.23966626833E+01  0.37115983459E+01  0.17770000000E+01 0. -1.
         15    1    1    2    0    0  0.87871917824E+01 -0.40351211575E+01 -0.19246351627E+02  0.21611957850E+02  0.17770000000E+01 0. -1.
</event>
<event>
 6    1  0.8353910E-003  0.1984399E+03  0.7546771E-02  0.1056430E+00
        -11   -1    0    0    0    0  0.00000000000E+00  0.00000000000E+00  0.18250000000E+03  0.18250000000E+03  0.00000000000E+00 0.  1.
         11   -1    0    0    0    0 -0.00000000000E+00 -0.00000000000E+00 -0.18250000000E+03  0.18250000000E+03  0.00000000000E+00 0. -1.
        -11    1    1    2    0    0 -0.50962149513E+01  0.31428637260E+01  0.13604650431E+03  0.13617819332E+03  0.00000000000E+00 0.  1.
         11    1    1    2    0    0 -0.22896922872E+02 -0.28656082647E+02 -0.16247103705E+03  0.16656013337E+03  0.00000000000E+00 0. -1.
        -15    1    1    2    0    0  0.15341629688E+02  0.35835824082E+02  0.23577387753E+02  0.45591916294E+02  0.17770000000E+01 0.  1.
         15    1    1    2    0    0  0.12651508136E+02 -0.10322605162E+02  0.28471449823E+01  0.16669757017E+02  0.17770000000E+01 0. -1.
</event>
<event>
 6    1  0.8353910E-003  0.1874023E+03  0.7546771E-02  0.1064618E+00
        -11   -1    0    0    0    0  0.00000000000E+00  0.00000000000E+00  0.18250000000E+03  0.18250000000E+03  0.00000000000E+00 0. -1.
         11   -1    0    0    0    0 -0.00000000000E+00 -0.00000000000E+00 -0.18250000000E+03  0.18250000000E+03  0.00000000000E+00 0.  1.
        -11    1    1    2    0    0 -0.10286186398E+01 -0.25816074965E+01  0.61643586002E+02  0.61706194574E+02  0.00000000000E+00 0. -1.
         11    1    1    2    0    0 -0.21523675335E+01  0.26849672460E+01 -0.17756433120E+03  0.17759767298E+03  0.00000000000E+00 0.  1.
        -15    1    1    2    0    0  0.10940882612E+02 -0.16582292319E+02  0.20750470286E+02  0.28782200698E+02  0.17770000000E+01 0.  1.
         15    1    1    2    0    0 -0.77598964390E+01  0.16478932570E+02  0.95170274909E+02  0.96913931747E+02  0.17770000000E+01 0. -1.
</event>
<event>
 6    1  0.8353910E-003  0.1975043E+03  0.7546771E-02  0.1057101E+00
        -11   -1    0    0    0    0  0.00000000000E+00  0.00000000000E+00  0.18250000000E+03  0.18250000000E+03  0.00000000000E+00 0. -1.
         11   -1    0    0    0    0 -0.00000000000E+00 -0.00000000000E+00 -0.18250000000E+03  0.18250000000E+03  0.00000000000E+00 0. -1.
        -11    1    1    2    0    0 -0.94065063687E+01  0.85617196480E+01  0.11130213347E+03  0.11202656078E+03  0.00000000000E+00 0. -1.
         11    1    1    2    0    0 -0.11874542106E+02  0.19073440336E+02 -0.16598195385E+03  0.16749570108E+03  0.00000000000E+00 0. -1.
        -15    1    1    2    0    0 -0.76354727261E+01 -0.43023850755E+01 -0.83854753109E+01  0.12259073631E+02  0.17770000000E+01 0.  1.
         15    1    1    2    0    0  0.28916521201E+02 -0.23332774909E+02  0.63065295689E+02  0.73218664510E+02  0.17770000000E+01 0. -1.
</event>
<event>
 6    1  0.8353910E-003  0.1831500E+03  0.7546771E-02  0.1067939E+00
        -11   -1    0    0    0    0  0.00000000000E+00  0.00000000000E+00  0.18250000000E+03  0.18250000000E+03  0.00000000000E+00 0.  1.
         11   -1    0    0    0    0 -0.00000000000E+00 -0.00000000000E+00 -0.18250000000E+03  0.18250000000E+03  0.00000000000E+00 0.  1.
        -11    1    1    2    0    0  0.38318736053E+01 -0.11868592689E+01  0.18180572535E+03  0.18184997569E+03  0.00000000000E+00 0.  1.
         11    1    1    2    0    0 -0.14139353019E+01 -0.27961388940E+01 -0.12702052556E+03  0.12705916543E+03  0.00000000000E+00 0.  1.
        -15    1    1    2    0    0 -0.17573359755E+01  0.44682862174E+00 -0.48912757122E+02  0.48978601694E+02  0.17770000000E+01 0.  1.
         15    1    1    2    0    0 -0.66060232795E+00  0.35361695413E+01 -0.58724426588E+01  0.71122571832E+01  0.17770000000E+01 0. -1.
</event>
<event>
 6    1  0.8353910E-003  0.1834599E+03  0.7546771E-02  0.1067693E+00
        -11   -1    0    0    0    0  0.00000000000E+00  0.00000000000E+00  0.18250000000E+03  0.18250000000E+03  0.00000000000E+00 0.  1.
         11   -1    0    0    0    0 -0.00000000000E+00 -0.00000000000E+00 -0.18250000000E+03  0.18250000000E+03  0.00000000000E+00 0.  1.
        -11    1    1    2    0    0 -0.19484469390E+01 -0.20358713806E+01  0.18151819422E+03  0.18154006734E+03  0.00000000000E+00 0.  1.
         11    1    1    2    0    0  0.35552012172E+01 -0.35061082389E+01 -0.14313953397E+03  0.14322659821E+03  0.00000000000E+00 0.  1.
        -15    1    1    2    0    0 -0.37262887235E+00  0.35806699049E+00 -0.46814000183E+00  0.19089128601E+01  0.17770000000E+01 0. -1.
         15    1    1    2    0    0 -0.12341254059E+01  0.51839126290E+01 -0.37910520244E+02  0.38324421585E+02  0.17770000000E+01 0.  1.
</event>
<event>
 6    1  0.8353910E-003  0.1970865E+03  0.7546771E-02  0.1057403E+00
        -11   -1    0    0    0    0  0.00000000000E+00  0.00000000000E+00  0.18250000000E+03  0.18250000000E+03  0.00000000000E+00 0.  1.
         11   -1    0    0    0    0 -0.00000000000E+00 -0.00000000000E+00 -0.18250000000E+03  0.18250000000E+03  0.00000000000E+00 0.  1.
        -11    1    1    2    0    0  0.12289464471E+00  0.25088833677E+01  0.14455272347E+03  0.14457454638E+03  0.00000000000E+00 0.  1.
         11    1    1    2    0    0 -0.57931694511E+01 -0.14988155128E+02 -0.16714286519E+03  0.16791349854E+03  0.00000000000E+00 0.  1.
        -15    1    1    2    0    0 -0.51970948426E+01  0.15313884837E+02 -0.92413273727E+01  0.18710551147E+02  0.17770000000E+01 0. -1.
         15    1    1    2    0    0  0.10867369649E+02 -0.28346130764E+01  0.31831469091E+02  0.33801403934E+02  0.17770000000E+01 0.  1.
</event>
<event>
 6    1  0.8353910E-003  0.2041195E+03  0.7546771E-02  0.1052440E+00
        -11   -1    0    0    0    0  0.00000000000E+00  0.00000000000E+00  0.18250000000E+03  0.18250000000E+03  0.00000000000E+00 0. -1.
         11   -1    0    0    0    0 -0.00000000000E+00 -0.00000000000E+00 -0.18250000000E+03  0.18250000000E+03  0.00000000000E+00 0. -1.
        -11    1    1    2    0    0  0.12970986988E+02  0.87084405123E+01  0.16012009514E+03  0.16088047832E+03  0.00000000000E+00 0. -1.
         11    1    1    2    0    0 -0.14966425272E+02 -0.79335619859E+01 -0.64620240617E+02  0.66803523773E+02  0.00000000000E+00 0. -1.
        -15    1    1    2    0    0 -0.30852922443E+02 -0.99109050246E+01  0.34542274359E+01  0.32637681870E+02  0.17770000000E+01 0.  1.
         15    1    1    2    0    0  0.32848360727E+02  0.91360264982E+01 -0.98954081956E+02  0.10467831603E+03  0.17770000000E+01 0. -1.
</event>
<event>
 6    1  0.8353910E-003  0.1830797E+03  0.7546771E-02  0.1067994E+00
        -11   -1    0    0    0    0  0.00000000000E+00  0.00000000000E+00  0.18250000000E+03  0.18250000000E+03  0.00000000000E+00 0.  1.
         11   -1    0    0    0    0 -0.00000000000E+00 -0.00000000000E+00 -0.18250000000E+03  0.18250000000E+03  0.00000000000E+00 0.  1.
        -11    1    1    2    0    0 -0.29110101769E+01  0.38045689861E+01  0.18185725980E+03  0.18192034430E+03  0.00000000000E+00 0.  1.
         11    1    1    2    0    0  0.31695187981E+01 -0.38198829665E+00 -0.14528699210E+03  0.14532206246E+03  0.00000000000E+00 0.  1.
        -15    1    1    2    0    0 -0.37000324187E+00 -0.91453873472E+00 -0.32926666484E+02  0.32989337341E+02  0.17770000000E+01 0.  1.
         15    1    1    2    0    0  0.11149462065E+00 -0.25080419547E+01 -0.36436012223E+01  0.47682559038E+01  0.17770000000E+01 0. -1.
</event>
<event>
 6    1  0.8353910E-003  0.1835875E+03  0.7546771E-02  0.1067592E+00
        -11   -1    0    0    0    0  0.00000000000E+00  0.00000000000E+00  0.18250000000E+03  0.18250000000E+03  0.00000000000E+00 0.  1.
         11   -1    0    0    0    0 -0.00000000000E+00 -0.00000000000E+00 -0.18250000000E+03  0.18250000000E+03  0.00000000000E+00 0.  1.
        -11    1    1    2    0    0  0.35861250056E+01 -0.82420504298E+00  0.18137517108E+03  0.18141249210E+03  0.00000000000E+00 0.  1.
         11    1    1    2    0    0 -0.23914469119E+01  0.68202827505E+00 -0.16218534236E+03  0.16220440641E+03  0.00000000000E+00 0.  1.
        -15    1    1    2    0    0 -0.28221583017E+01  0.19691824699E+01 -0.29616619604E+01  0.48755951070E+01  0.17770000000E+01 0. -1.
         15    1    1    2    0    0  0.16274802080E+01 -0.18270057020E+01 -0.16228166759E+02  0.16507506385E+02  0.17770000000E+01 0.  1.
</event>
<event>
 6    1  0.8353910E-003  0.1844603E+03  0.7546771E-02  0.1066905E+00
        -11   -1    0    0    0    0  0.00000000000E+00  0.00000000000E+00  0.18250000000E+03  0.18250000000E+03  0.00000000000E+00 0. -1.
         11   -1    0    0    0    0 -0.00000000000E+00 -0.00000000000E+00 -0.18250000000E+03  0.18250000000E+03  0.00000000000E+00 0. -1.
        -11    1    1    2    0    0 -0.16440824577E+01  0.21578126382E+01  0.18051936046E+03  0.18053974262E+03  0.00000000000E+00 0. -1.
         11    1    1    2    0    0 -0.54635108638E+01 -0.58605672296E+01 -0.13986277554E+03  0.14009208464E+03  0.00000000000E+00 0. -1.
        -15    1    1    2    0    0  0.35504478431E+01  0.10706649362E+01 -0.75280877533E+00  0.41804848217E+01  0.17770000000E+01 0.  1.
         15    1    1    2    0    0  0.35571454784E+01  0.26320896553E+01 -0.39903776151E+02  0.40187687916E+02  0.17770000000E+01 0. -1.
</event>
<event>
 6    1  0.8353910E-003  0.1603864E+03  0.7546771E-02  0.1087561E+00
        -11   -1    0    0    0    0  0.00000000000E+00  0.00000000000E+00  0.18250000000E+03  0.18250000000E+03  0.00000000000E+00 0. -1.
         11   -1    0    0    0    0 -0.00000000000E+00 -0.00000000000E+00 -0.18250000000E+03  0.18250000000E+03  0.00000000000E+00 0. -1.
        -11    1    1    2    0    0  0.36324099683E+01  0.95417502445E+00  0.16438813050E+03  0.16443102597E+03  0.00000000000E+00 0. -1.
         11    1    1    2    0    0  0.15484373912E+02  0.20230806840E+02 -0.15565566544E+03  0.15772678138E+03  0.00000000000E+00 0. -1.
        -15    1    1    2    0    0 -0.62165737572E+01  0.45910919884E+01  0.64445048255E+01  0.10218281968E+02  0.17770000000E+01 0.  1.
         15    1    1    2    0    0 -0.12900210123E+02 -0.25776073853E+02 -0.15176969890E+02  0.32623910687E+02  0.17770000000E+01 0. -1.
</event>
<event>
 6    1  0.8353910E-003  0.1764125E+03  0.7546771E-02  0.1073406E+00
        -11   -1    0    0    0    0  0.00000000000E+00  0.00000000000E+00  0.18250000000E+03  0.18250000000E+03  0.00000000000E+00 0.  1.
         11   -1    0    0    0    0 -0.00000000000E+00 -0.00000000000E+00 -0.18250000000E+03  0.18250000000E+03  0.00000000000E+00 0. -1.
        -11    1    1    2    0    0  0.11397509214E+01 -0.27532901437E+01  0.17737944261E+03  0.17740447091E+03  0.00000000000E+00 0.  1.
         11    1    1    2    0    0  0.60203039804E+01  0.42222799274E+01 -0.17534790015E+03  0.17550201650E+03  0.00000000000E+00 0. -1.
        -15    1    1    2    0    0 -0.43225503585E+01 -0.17235229906E+01 -0.53936263146E+01  0.73419280112E+01  0.17770000000E+01 0.  1.
         15    1    1    2    0    0 -0.28375045433E+01  0.25453320689E+00  0.33620838553E+01  0.47515845816E+01  0.17770000000E+01 0.  1.
</event>
<event>
 6    1  0.8353910E-003  0.1895912E+03  0.7546771E-02  0.1062946E+00
        -11   -1    0    0    0    0  0.00000000000E+00  0.00000000000E+00  0.18250000000E+03  0.18250000000E+03  0.00000000000E+00 0. -1.
         11   -1    0    0    0    0 -0.00000000000E+00 -0.00000000000E+00 -0.18250000000E+03  0.18250000000E+03  0.00000000000E+00 0.  1.
        -11    1    1    2    0    0 -0.12087846718E+02  0.81047912073E+01  0.16024562636E+03  0.16090514115E+03  0.00000000000E+00 0. -1.
         11    1    1    2    0    0  0.17293187161E+02 -0.29679987255E+01 -0.17452901994E+03  0.17540878581E+03  0.00000000000E+00 0.  1.
        -15    1    1    2    0    0  0.17816626058E+01 -0.37031589363E+01 -0.57842422894E+01  0.73145673564E+01  0.17770000000E+01 0. -1.
         15    1    1    2    0    0 -0.69870030484E+01 -0.14336335455E+01  0.20067635869E+02  0.21371505682E+02  0.17770000000E+01 0.  1.
</event>
<event>
 6    1  0.8353910E-003  0.1843124E+03  0.7546771E-02  0.1067021E+00
        -11   -1    0    0    0    0  0.00000000000E+00  0.00000000000E+00  0.18250000000E+03  0.18250000000E+03  0.00000000000E+00 0.  1.
         11   -1    0    0    0    0 -0.00000000000E+00 -0.00000000000E+00 -0.18250000000E+03  0.18250000000E+03  0.00000000000E+00 0.  1.
        -11    1    1    2    0    0 -0.34319767041E+01 -0.99276356878E+00  0.18065225911E+03  0.18068758332E+03  0.00000000000E+00 0.  1.
         11    1    1    2    0    0 -0.50719596934E+01  0.15582332593E+01 -0.16835029585E+03  0.16843388905E+03  0.00000000000E+00 0.  1.
        -15    1    1    2    0    0  0.16273216842E+01 -0.96669272588E+00 -0.16728173108E+01  0.30884814142E+01  0.17770000000E+01 0.  1.
         15    1    1    2    0    0  0.68766147133E+01  0.40122303536E+00 -0.10629145943E+02  0.12790046221E+02  0.17770000000E+01 0. -1.
</event>
<event>
 6    1  0.8353910E-003  0.1829293E+03  0.7546771E-02  0.1068114E+00
        -11   -1    0    0    0    0  0.00000000000E+00  0.00000000000E+00  0.18250000000E+03  0.18250000000E+03  0.00000000000E+00 0.  1.
         11   -1    0    0    0    0 -0.00000000000E+00 -0.00000000000E+00 -0.18250000000E+03  0.18250000000E+03  0.00000000000E+00 0. -1.
        -11    1    1    2    0    0 -0.74205666697E+01 -0.73987427674E+00  0.18191793069E+03  0.18207071629E+03  0.00000000000E+00 0.  1.
         11    1    1    2    0    0  0.35163502656E+01 -0.20433477876E+01 -0.97154687794E+02  0.97239772469E+02  0.00000000000E+00 0. -1.
        -15    1    1    2    0    0 -0.34017591560E+01  0.30936906396E+01 -0.39244750348E+02  0.39553142050E+02  0.17770000000E+01 0. -1.
         15    1    1    2    0    0  0.73059755600E+01 -0.31046857526E+00 -0.45518492546E+02  0.46136369193E+02  0.17770000000E+01 0. -1.
</event>
<event>
 6    1  0.8353910E-003  0.1827029E+03  0.7546771E-02  0.1068293E+00
        -11   -1    0    0    0    0  0.00000000000E+00  0.00000000000E+00  0.18250000000E+03  0.18250000000E+03  0.00000000000E+00 0.  1.
         11   -1    0    0    0    0 -0.00000000000E+00 -0.00000000000E+00 -0.18250000000E+03  0.18250000000E+03  0.00000000000E+00 0.  1.
        -11    1    1    2    0    0  0.34913433827E+01 -0.27152338264E+01  0.18224342445E+03  0.18229708645E+03  0.00000000000E+00 0.  1.
         11    1    1    2    0    0 -0.35887326101E+00  0.56755980130E+01 -0.89410864939E+02  0.89591539622E+02  0.00000000000E+00 0.  1.
        -15    1    1    2    0    0  0.10909986773E+00 -0.17725553024E+01 -0.59570251716E+02  0.59623204154E+02  0.17770000000E+01 0.  1.
         15    1    1    2    0    0 -0.32415699894E+01 -0.11878088841E+01 -0.33262307795E+02  0.33488169774E+02  0.17770000000E+01 0.  1.
</event>
<event>
 6    1  0.8353910E-003  0.1855684E+03  0.7546771E-02  0.1066038E+00
        -11   -1    0    0    0    0  0.00000000000E+00  0.00000000000E+00  0.18250000000E+03  0.18250000000E+03  0.00000000000E+00 0.  1.
         11   -1    0    0    0    0 -0.00000000000E+00 -0.00000000000E+00 -0.18250000000E+03  0.18250000000E+03  0.00000000000E+00 0. -1.
        -11    1    1    2    0    0 -0.39390010883E+01 -0.10203624965E+01  0.16577486564E+03  0.16582479594E+03  0.00000000000E+00 0.  1.
         11    1    1    2    0    0  0.57006887635E+00 -0.82437300457E+01 -0.17924120752E+03  0.17943158735E+03  0.00000000000E+00 0. -1.
        -15    1    1    2    0    0  0.62809297632E+00  0.72289778652E+01  0.21248651590E+01  0.77669429447E+01  0.17770000000E+01 0.  1.
         15    1    1    2    0    0  0.27408392356E+01  0.20351146770E+01  0.11341476721E+02  0.11976673773E+02  0.17770000000E+01 0.  1.
</event>
<event>
 6    1  0.8353910E-003  0.1839726E+03  0.7546771E-02  0.1067289E+00
        -11   -1    0    0    0    0  0.00000000000E+00  0.00000000000E+00  0.18250000000E+03  0.18250000000E+03  0.00000000000E+00 0.  1.
         11   -1    0    0    0    0 -0.00000000000E+00 -0.00000000000E+00 -0.18250000000E+03  0.18250000000E+03  0.00000000000E+00 0.  1.
        -11    1    1    2    0    0  0.75417914937E+00  0.40756680878E+01  0.10566911025E+03  0.10575036982E+03  0.00000000000E+00 0.  1.
         11    1    1    2    0    0 -0.20144809861E+01  0.15017135530E+01 -0.18100998835E+03  0.18102742654E+03  0.00000000000E+00 0.  1.
        -15    1    1    2    0    0  0.57040024950E+00 -0.43904323877E+01  0.25741107992E+01  0.54207959196E+01  0.17770000000E+01 0. -1.
         15    1    1    2    0    0  0.68990158719E+00 -0.11869492531E+01  0.72766767301E+02  0.72801407715E+02  0.17770000000E+01 0.  1.
</event>
<event>
 6    1  0.8353910E-003  0.1749418E+03  0.7546771E-02  0.1074636E+00
        -11   -1    0    0    0    0  0.00000000000E+00  0.00000000000E+00  0.18250000000E+03  0.18250000000E+03  0.00000000000E+00 0.  1.
         11   -1    0    0    0    0 -0.00000000000E+00 -0.00000000000E+00 -0.18250000000E+03  0.18250000000E+03  0.00000000000E+00 0.  1.
        -11    1    1    2    0    0 -0.36044457852E+01 -0.24795230768E+00  0.17705667299E+03  0.17709353168E+03  0.00000000000E+00 0.  1.
         11    1    1    2    0    0 -0.54634688395E+01 -0.88773445710E+00 -0.17284610269E+03  0.17293470669E+03  0.00000000000E+00 0.  1.
        -15    1    1    2    0    0  0.34041020862E+01  0.40307354865E+00  0.35013888992E+01  0.52122770957E+01  0.17770000000E+01 0.  1.
         15    1    1    2    0    0  0.56638125386E+01  0.73261321613E+00 -0.77119592032E+01  0.97594845329E+01  0.17770000000E+01 0.  1.
</event>
<event>
 6    1  0.8353910E-003  0.1830887E+03  0.7546771E-02  0.1067987E+00
        -11   -1    0    0    0    0  0.00000000000E+00  0.00000000000E+00  0.18250000000E+03  0.18250000000E+03  0.00000000000E+00 0. -1.
         11   -1    0    0    0    0 -0.00000000000E+00 -0.00000000000E+00 -0.18250000000E+03  0.18250000000E+03  0.00000000000E+00 0. -1.
        -11    1    1    2    0    0  0.20415784004E+01 -0.13410649462E+01  0.15686989559E+03  0.15688891178E+03  0.00000000000E+00 0. -1.
         11    1    1    2    0    0  0.62953982750E+00 -0.32634329674E+01 -0.18188094400E+03  0.18191130834E+03  0.00000000000E+00 0. -1.
        -15    1    1    2    0    0  0.69568565464E+00  0.16600030376E+01  0.48230111257E+01  0.54459851206E+01  0.17770000000E+01 0.  1.
         15    1    1    2    0    0 -0.33668038825E+01  0.29444948760E+01  0.20188037282E+02  0.20753794755E+02  0.17770000000E+01 0. -1.
</event>
<event>
 6    1  0.8353910E-003  0.1829254E+03  0.7546771E-02  0.1068117E+00
        -11   -1    0    0    0    0  0.00000000000E+00  0.00000000000E+00  0.18250000000E+03  0.18250000000E+03  0.00000000000E+00 0. -1.
         11   -1    0    0    0    0 -0.00000000000E+00 -0.00000000000E+00 -0.18250000000E+03  0.18250000000E+03  0.00000000000E+00 0.  1.
        -11    1    1    2    0    0  0.38354497343E+01  0.27994972592E+01  0.45900046167E+02  0.46145011623E+02  0.00000000000E+00 0. -1.
         11    1    1    2    0    0  0.31833143714E+01  0.56511810373E+01 -0.18195906096E+03  0.18207462537E+03  0.00000000000E+00 0.  1.
        -15    1    1    2    0    0 -0.12382205864E+01 -0.24875793198E+01  0.12436366154E+02  0.12866319334E+02  0.17770000000E+01 0.  1.
         15    1    1    2    0    0 -0.57805435193E+01 -0.59630989767E+01  0.12362264864E+03  0.12391404367E+03  0.17770000000E+01 0. -1.
</event>
<event>
 6    1  0.8353910E-003  0.1845330E+03  0.7546771E-02  0.1066848E+00
        -11   -1    0    0    0    0  0.00000000000E+00  0.00000000000E+00  0.18250000000E+03  0.18250000000E+03  0.00000000000E+00 0. -1.
         11   -1    0    0    0    0 -0.00000000000E+00 -0.00000000000E+00 -0.18250000000E+03  0.18250000000E+03  0.00000000000E+00 0. -1.
        -11    1    1    2    0    0 -0.42214283748E+01  0.33277192773E+01  0.16804213590E+03  0.16812808692E+03  0.00000000000E+00 0. -1.
         11    1    1    2    0    0  0.23857264599E+00 -0.27232297739E+01 -0.18044626986E+03  0.18046697539E+03  0.00000000000E+00 0. -1.
        -15    1    1    2    0    0 -0.29935660341E+01  0.19194189693E+00  0.37710655948E+01  0.51358489086E+01  0.17770000000E+01 0.  1.
         15    1    1    2    0    0  0.69764217629E+01 -0.79643140035E+00  0.86330683650E+01  0.11269088782E+02  0.17770000000E+01 0. -1.
</event>
<event>
 6    1  0.8353910E-003  0.1879443E+03  0.7546771E-02  0.1064202E+00
        -11   -1    0    0    0    0  0.00000000000E+00  0.00000000000E+00  0.18250000000E+03  0.18250000000E+03  0.00000000000E+00 0.  1.
         11   -1    0    0    0    0 -0.00000000000E+00 -0.00000000000E+00 -0.18250000000E+03  0.18250000000E+03  0.00000000000E+00 0.  1.
        -11    1    1    2    0    0 -0.24607014623E+01 -0.10926173808E+01  0.15124392251E+03  0.15126788477E+03  0.00000000000E+00 0.  1.
         11    1    1    2    0    0  0.46144396410E+01 -0.60002626798E+01 -0.17689382589E+03  0.17705570266E+03  0.00000000000E+00 0.  1.
        -15    1    1    2    0    0 -0.12583286689E+02  0.20395789206E+00  0.17577903136E+02  0.21691498574E+02  0.17770000000E+01 0.  1.
         15    1    1    2    0    0  0.10429548511E+02  0.68889221686E+01  0.80720002422E+01  0.14984914003E+02  0.17770000000E+01 0. -1.
</event>
<event>
 6    1  0.8353910E-003  0.1125883E+03  0.7546771E-02  0.1143667E+00
        -11   -1    0    0    0    0  0.00000000000E+00  0.00000000000E+00  0.18250000000E+03  0.18250000000E+03  0.00000000000E+00 0. -1.
         11   -1    0    0    0    0 -0.00000000000E+00 -0.00000000000E+00 -0.18250000000E+03  0.18250000000E+03  0.00000000000E+00 0. -1.
        -11    1    1    2    0    0  0.30567164707E+01  0.20215609847E+01  0.13509128253E+03  0.13514098135E+03  0.00000000000E+00 0. -1.
         11    1    1    2    0    0  0.54074446819E+01 -0.31856064243E+01 -0.86217716539E+02  0.86445839642E+02  0.00000000000E+00 0. -1.
        -15    1    1    2    0    0 -0.29493449336E+02  0.63077004222E+01 -0.91071684132E+02  0.95952384118E+02  0.17770000000E+01 0.  1.
         15    1    1    2    0    0  0.21029288183E+02 -0.51436549826E+01  0.42198118143E+02  0.47460794893E+02  0.17770000000E+01 0. -1.
</event>
<event>
 6    1  0.8353910E-003  0.2010584E+03  0.7546771E-02  0.1054573E+00
        -11   -1    0    0    0    0  0.00000000000E+00  0.00000000000E+00  0.18250000000E+03  0.18250000000E+03  0.00000000000E+00 0. -1.
         11   -1    0    0    0    0 -0.00000000000E+00 -0.00000000000E+00 -0.18250000000E+03  0.18250000000E+03  0.00000000000E+00 0. -1.
        -11    1    1    2    0    0  0.66688132288E+01  0.21850955513E+01  0.14179323992E+03  0.14196679400E+03  0.00000000000E+00 0. -1.
         11    1    1    2    0    0 -0.33391910034E+01  0.18599799698E+00 -0.16390744824E+03  0.16394156391E+03  0.00000000000E+00 0. -1.
        -15    1    1    2    0    0 -0.92825387400E+01 -0.30377414801E+01  0.39441808849E+02  0.40671948724E+02  0.17770000000E+01 0. -1.
         15    1    1    2    0    0  0.59529165147E+01  0.66664793183E+00 -0.17327600529E+02  0.18419693363E+02  0.17770000000E+01 0. -1.
</event>
<event>
 6    1  0.8353910E-003  0.1918394E+03  0.7546771E-02  0.1061255E+00
        -11   -1    0    0    0    0  0.00000000000E+00  0.00000000000E+00  0.18250000000E+03  0.18250000000E+03  0.00000000000E+00 0. -1.
         11   -1    0    0    0    0 -0.00000000000E+00 -0.00000000000E+00 -0.18250000000E+03  0.18250000000E+03  0.00000000000E+00 0.  1.
        -11    1    1    2    0    0  0.65753870918E+01 -0.18275187973E+01  0.17302610131E+03  0.17316064009E+03  0.00000000000E+00 0. -1.
         11    1    1    2    0    0  0.21081760237E+01  0.70003948459E+01 -0.15593907475E+03  0.15611036150E+03  0.00000000000E+00 0.  1.
        -15    1    1    2    0    0 -0.15174311662E+02 -0.94906533832E+00  0.16313690565E+01  0.15394140230E+02  0.17770000000E+01 0. -1.
         15    1    1    2    0    0  0.64907485466E+01 -0.42238107103E+01 -0.18718395623E+02  0.20334858183E+02  0.17770000000E+01 0.  1.
</event>
<event>
 6    1  0.8353910E-003  0.1760842E+03  0.7546771E-02  0.1073680E+00
        -11   -1    0    0    0    0  0.00000000000E+00  0.00000000000E+00  0.18250000000E+03  0.18250000000E+03  0.00000000000E+00 0. -1.
         11   -1    0    0    0    0 -0.00000000000E+00 -0.00000000000E+00 -0.18250000000E+03  0.18250000000E+03  0.00000000000E+00 0. -1.
        -11    1    1    2    0    0 -0.83276001255E+00  0.88800423128E+01  0.17597572673E+03  0.17620160339E+03  0.00000000000E+00 0. -1.
         11    1    1    2    0    0 -0.43757996205E+00 -0.83492787461E+01 -0.17577078027E+03  0.17596951193E+03  0.00000000000E+00 0. -1.
        -15    1    1    2    0    0 -0.16530626040E+01  0.44079294157E+01 -0.33524822959E+01  0.60464307034E+01  0.17770000000E+01 0. -1.
         15    1    1    2    0    0  0.29234025786E+01 -0.49386929824E+01  0.31475358379E+01  0.67824539705E+01  0.17770000000E+01 0.  1.
</event>
<event>
 6    1  0.8353910E-003  0.1828745E+03  0.7546771E-02  0.1068157E+00
        -11   -1    0    0    0    0  0.00000000000E+00  0.00000000000E+00  0.18250000000E+03  0.18250000000E+03  0.00000000000E+00 0. -1.
         11   -1    0    0    0    0 -0.00000000000E+00 -0.00000000000E+00 -0.18250000000E+03  0.18250000000E+03  0.00000000000E+00 0. -1.
        -11    1    1    2    0    0 -0.65199357691E+00 -0.52253057538E+01 -0.98614037328E+00  0.53573677007E+01  0.00000000000E+00 0. -1.
         11    1    1    2    0    0 -0.32597785449E+01  0.79783713044E+01 -0.17612497557E+03  0.17633572408E+03  0.00000000000E+00 0. -1.
        -15    1    1    2    0    0 -0.18138900927E+02  0.28526041085E+01  0.36940082821E+02  0.41290247333E+02  0.17770000000E+01 0.  1.
         15    1    1    2    0    0  0.22050673049E+02 -0.56056696591E+01  0.14017103313E+03  0.14201666089E+03  0.17770000000E+01 0. -1.
</event>
<event>
 6    1  0.8353910E-003  0.1828269E+03  0.7546771E-02  0.1068195E+00
        -11   -1    0    0    0    0  0.00000000000E+00  0.00000000000E+00  0.18250000000E+03  0.18250000000E+03  0.00000000000E+00 0.  1.
         11   -1    0    0    0    0 -0.00000000000E+00 -0.00000000000E+00 -0.18250000000E+03  0.18250000000E+03  0.00000000000E+00 0. -1.
        -11    1    1    2    0    0  0.28474467913E+01 -0.14554572927E+01  0.18214501382E+03  0.18217308355E+03  0.00000000000E+00 0.  1.
         11    1    1    2    0    0  0.98121009849E-03 -0.83292321628E+00 -0.45264887893E+02  0.45272550602E+02  0.00000000000E+00 0. -1.
        -15    1    1    2    0    0 -0.21343113273E+01 -0.31484920400E+01 -0.16152195990E+02  0.16688902039E+02  0.17770000000E+01 0.  1.
         15    1    1    2    0    0 -0.71411667415E+00  0.54368725490E+01 -0.12072792994E+03  0.12086546381E+03  0.17770000000E+01 0. -1.
</event>
<event>
 6    1  0.8353910E-003  0.1843950E+03  0.7546771E-02  0.1066956E+00
        -11   -1    0    0    0    0  0.00000000000E+00  0.00000000000E+00  0.18250000000E+03  0.18250000000E+03  0.00000000000E+00 0.  1.
         11   -1    0    0    0    0 -0.00000000000E+00 -0.00000000000E+00 -0.18250000000E+03  0.18250000000E+03  0.00000000000E+00 0.  1.
        -11    1    1    2    0    0  0.14784397488E+00 -0.39077715735E+01  0.10084578948E+02  0.10816250231E+02  0.00000000000E+00 0.  1.
         11    1    1    2    0    0 -0.20121222785E+01 -0.15141464213E+01 -0.18058747743E+03  0.18060503392E+03  0.00000000000E+00 0.  1.
        -15    1    1    2    0    0 -0.60998210832E+00  0.52681417164E+01  0.36078599633E+01  0.66558078271E+01  0.17770000000E+01 0.  1.
         15    1    1    2    0    0  0.24742604119E+01  0.15377627842E+00  0.16689503851E+03  0.16692290802E+03  0.17770000000E+01 0.  1.
</event>
<event>
 6    1  0.8353910E-003  0.1836292E+03  0.7546771E-02  0.1067560E+00
        -11   -1    0    0    0    0  0.00000000000E+00  0.00000000000E+00  0.18250000000E+03  0.18250000000E+03  0.00000000000E+00 0. -1.
         11   -1    0    0    0    0 -0.00000000000E+00 -0.00000000000E+00 -0.18250000000E+03  0.18250000000E+03  0.00000000000E+00 0. -1.
        -11    1    1    2    0    0 -0.37308381414E+01  0.20605922075E+01  0.16644298966E+03  0.16649754953E+03  0.00000000000E+00 0. -1.
         11    1    1    2    0    0 -0.18517804839E+01 -0.44211406712E+01 -0.18130745164E+03  0.18137080139E+03  0.00000000000E+00 0. -1.
        -15    1    1    2    0    0  0.40437830379E+01 -0.18585252715E+00  0.11418564668E+02  0.12244511852E+02  0.17770000000E+01 0.  1.
         15    1    1    2    0    0  0.15388355874E+01  0.25464009909E+01  0.34458973134E+01  0.48871372260E+01  0.17770000000E+01 0. -1.
</event>
<event>
 6    1  0.8353910E-003  0.1897643E+03  0.7546771E-02  0.1062815E+00
        -11   -1    0    0    0    0  0.00000000000E+00  0.00000000000E+00  0.18250000000E+03  0.18250000000E+03  0.00000000000E+00 0.  1.
         11   -1    0    0    0    0 -0.00000000000E+00 -0.00000000000E+00 -0.18250000000E+03  0.18250000000E+03  0.00000000000E+00 0.  1.
        -11    1    1    2    0    0 -0.29189730541E+01 -0.26351340603E+01  0.16926110745E+03  0.16930678318E+03  0.00000000000E+00 0.  1.
         11    1    1    2    0    0 -0.38968482422E+01 -0.42138682383E+00 -0.17519190388E+03  0.17523574458E+03  0.00000000000E+00 0.  1.
        -15    1    1    2    0    0  0.66549235093E+01 -0.76218394461E+00 -0.51290233730E+01  0.86216901499E+01  0.17770000000E+01 0.  1.
         15    1    1    2    0    0  0.16089778696E+00  0.38187048287E+01  0.11059819798E+02  0.11835782088E+02  0.17770000000E+01 0.  1.
</event>
<event>
 6    1  0.8353910E-003  0.1850430E+03  0.7546771E-02  0.1066448E+00
        -11   -1    0    0    0    0  0.00000000000E+00  0.00000000000E+00  0.18250000000E+03  0.18250000000E+03  0.00000000000E+00 0. -1.
         11   -1    0    0    0    0 -0.00000000000E+00 -0.00000000000E+00 -0.18250000000E+03  0.18250000000E+03  0.00000000000E+00 0.  1.
        -11    1    1    2    0    0  0.40601940828E+00 -0.48371071729E+01  0.17989153364E+03  0.17995701246E+03  0.00000000000E+00 0. -1.
         11    1    1    2    0    0 -0.18278418425E+01 -0.32201526167E+01 -0.17328467939E+03  0.17332423517E+03  0.00000000000E+00 0.  1.
        -15    1    1    2    0    0  0.39896579420E+00  0.27207023010E+01 -0.46281496394E+01  0.56691174622E+01  0.17770000000E+01 0.  1.
         15    1    1    2    0    0  0.10228566400E+01  0.53365574886E+01 -0.19787046144E+01  0.60496349052E+01  0.17770000000E+01 0. -1.
</event>
<event>
 6    1  0.8353910E-003  0.1845539E+03  0.7546771E-02  0.1066832E+00
        -11   -1    0    0    0    0  0.00000000000E+00  0.00000000000E+00  0.18250000000E+03  0.18250000000E+03  0.00000000000E+00 0.  1.
         11   -1    0    0    0    0 -0.00000000000E+00 -0.00000000000E+00 -0.18250000000E+03  0.18250000000E+03  0.00000000000E+00 0. -1.
        -11    1    1    2    0    0 -0.24195338344E+01 -0.34201070361E+01  0.82430454516E+02  0.82536846970E+02  0.00000000000E+00 0.  1.
         11    1    1    2    0    0  0.54768772226E+01  0.41445690731E+01 -0.18031535043E+03  0.18044611173E+03  0.00000000000E+00 0. -1.
        -15    1    1    2    0    0  0.16692887803E+01  0.35283600664E+01  0.94501266676E+02  0.94598535835E+02  0.17770000000E+01 0.  1.
         15    1    1    2    0    0 -0.47266321685E+01 -0.42528221034E+01  0.33836292410E+01  0.74185054654E+01  0.17770000000E+01 0. -1.
</event>
<event>
 6    1  0.8353910E-003  0.1857165E+03  0.7546771E-02  0.1065923E+00
        -11   -1    0    0    0    0  0.00000000000E+00  0.00000000000E+00  0.18250000000E+03  0.18250000000E+03  0.00000000000E+00 0. -1.
         11   -1    0    0    0    0 -0.00000000000E+00 -0.00000000000E+00 -0.18250000000E+03  0.18250000000E+03  0.00000000000E+00 0.  1.
        -11    1    1    2    0    0 -0.73612770867E+00 -0.11603985267E+01  0.82390014016E+02  0.82401473399E+02  0.00000000000E+00 0. -1.
         11    1    1    2    0    0 -0.46323501051E+01 -0.94769667887E+00 -0.17922115179E+03  0.17928351304E+03  0.00000000000E+00 0.  1.
        -15    1    1    2    0    0  0.44862846719E+01 -0.12343368633E+00 -0.14098518909E+01  0.50286576128E+01  0.17770000000E+01 0. -1.
         15    1    1    2    0    0  0.88219314193E+00  0.22315288919E+01  0.98240989669E+02  0.98286355951E+02  0.17770000000E+01 0. -1.
</event>
<event>
 6    1  0.8353910E-003  0.1863826E+03  0.7546771E-02  0.1065406E+00
        -11   -1    0    0    0    0  0.00000000000E+00  0.00000000000E+00  0.18250000000E+03  0.18250000000E+03  0.00000000000E+00 0. -1.
         11   -1    0    0    0    0 -0.00000000000E+00 -0.00000000000E+00 -0.18250000000E+03  0.18250000000E+03  0.00000000000E+00 0.  1.
        -11    1    1    2    0    0 -0.41695990042E+00 -0.66953130662E+01  0.17849139014E+03  0.17861740516E+03  0.00000000000E+00 0. -1.
         11    1    1    2    0    0 -0.14801218928E+01  0.29700909284E+01 -0.16512834415E+03  0.16516168515E+03  0.00000000000E+00 0.  1.
        -15    1    1    2    0    0 -0.22272857771E+01  0.20444094527E+01  0.27201097020E+01  0.44381457540E+01  0.17770000000E+01 0.  1.
         15    1    1    2    0    0  0.41243675703E+01  0.16808126851E+01 -0.16083155693E+02  0.16782763931E+02  0.17770000000E+01 0. -1.
</event>
<event>
 6    1  0.8353910E-003  0.1836509E+03  0.7546771E-02  0.1067542E+00
        -11   -1    0    0    0    0  0.00000000000E+00  0.00000000000E+00  0.18250000000E+03  0.18250000000E+03  0.00000000000E+00 0. -1.
         11   -1    0    0    0    0 -0.00000000000E+00 -0.00000000000E+00 -0.18250000000E+03  0.18250000000E+03  0.00000000000E+00 0. -1.
        -11    1    1    2    0    0  0.22162107878E+01  0.51000579233E+01  0.13276995340E+03  0.13288635260E+03  0.00000000000E+00 0. -1.
         11    1    1    2    0    0 -0.75395939828E+01 -0.28124846440E+01 -0.18117049388E+03  0.18134912021E+03  0.00000000000E+00 0. -1.
        -15    1    1    2    0    0  0.67612789320E+00 -0.27584611965E+01  0.43934777993E+02  0.44062327485E+02  0.17770000000E+01 0. -1.
         15    1    1    2    0    0  0.46472553018E+01  0.47088791727E+00  0.44657624903E+01  0.67021997054E+01  0.17770000000E+01 0.  1.
</event>
<event>
 6    1  0.8353910E-003  0.1829631E+03  0.7546771E-02  0.1068087E+00
        -11   -1    0    0    0    0  0.00000000000E+00  0.00000000000E+00  0.18250000000E+03  0.18250000000E+03  0.00000000000E+00 0. -1.
         11   -1    0    0    0    0 -0.00000000000E+00 -0.00000000000E+00 -0.18250000000E+03  0.18250000000E+03  0.00000000000E+00 0.  1.
        -11    1    1    2    0    0  0.31721444986E+01 -0.39965375221E+01  0.18196541346E+03  0.18203693721E+03  0.00000000000E+00 0. -1.
         11    1    1    2    0    0  0.18458442858E+00  0.32642038376E+01 -0.41125973298E+02  0.41255724182E+02  0.00000000000E+00 0.  1.
        -15    1    1    2    0    0  0.81586791652E-01 -0.42559061946E+01 -0.14627172141E+02  0.15337251637E+02  0.17770000000E+01 0.  1.
         15    1    1    2    0    0 -0.34383157188E+01  0.49882398792E+01 -0.12621226802E+03  0.12637008697E+03  0.17770000000E+01 0.  1.
</event>
<event>
 6    1  0.8353910E-003  0.1751232E+03  0.7546771E-02  0.1074483E+00
        -11   -1    0    0    0    0  0.00000000000E+00  0.00000000000E+00  0.18250000000E+03  0.18250000000E+03  0.00000000000E+00 0.  1.
         11   -1    0    0    0    0 -0.00000000000E+00 -0.00000000000E+00 -0.18250000000E+03  0.18250000000E+03  0.00000000000E+00 0.  1.
        -11    1    1    2    0    0 -0.45195071635E+01  0.23492219203E+01  0.17642442655E+03  0.17649794070E+03  0.00000000000E+00 0.  1.
         11    1    1    2    0    0 -0.22151036556E+01 -0.77315479444E+00 -0.17381063453E+03  0.17382646843E+03  0.00000000000E+00 0.  1.
        -15    1    1    2    0    0  0.89367361438E+01  0.17455942241E+01  0.53773435284E+00  0.92929671975E+01  0.17770000000E+01 0. -1.
         15    1    1    2    0    0 -0.22021253247E+01 -0.33216613500E+01 -0.31515263737E+01  0.53826236682E+01  0.17770000000E+01 0.  1.
</event>
<event>
 6    1  0.8353910E-003  0.1767713E+03  0.7546771E-02  0.1073109E+00
        -11   -1    0    0    0    0  0.00000000000E+00  0.00000000000E+00  0.18250000000E+03  0.18250000000E+03  0.00000000000E+00 0. -1.
         11   -1    0    0    0    0 -0.00000000000E+00 -0.00000000000E+00 -0.18250000000E+03  0.18250000000E+03  0.00000000000E+00 0. -1.
        -11    1    1    2    0    0 -0.50077447161E+01 -0.30778838341E+01  0.17719417534E+03  0.17729164292E+03  0.00000000000E+00 0. -1.
         11    1    1    2    0    0 -0.32235419536E+01  0.24272583387E+01 -0.17630225368E+03  0.17634842630E+03  0.00000000000E+00 0. -1.
        -15    1    1    2    0    0  0.80856513481E+01  0.25137223936E+01 -0.65880728529E-01  0.86520880292E+01  0.17770000000E+01 0.  1.
         15    1    1    2    0    0  0.14563532163E+00 -0.18630968983E+01 -0.82604092824E+00  0.27078427418E+01  0.17770000000E+01 0. -1.
</event>
<event>
 6    1  0.8353910E-003  0.1872294E+03  0.7546771E-02  0.1064751E+00
        -11   -1    0    0    0    0  0.00000000000E+00  0.00000000000E+00  0.18250000000E+03  0.18250000000E+03  0.00000000000E+00 0.  1.
         11   -1    0    0    0    0 -0.00000000000E+00 -0.00000000000E+00 -0.18250000000E+03  0.18250000000E+03  0.00000000000E+00 0. -1.
        -11    1    1    2    0    0  0.61757054148E+01 -0.19256859461E+01  0.17765282726E+03  0.17777056740E+03  0.00000000000E+00 0.  1.
         11    1    1    2    0    0  0.20841320033E+01 -0.33850091374E+01 -0.13346032917E+03  0.13351951675E+03  0.00000000000E+00 0. -1.
        -15    1    1    2    0    0 -0.13020660953E+02  0.18322663926E+01 -0.52272048901E+01  0.14261003182E+02  0.17770000000E+01 0. -1.
         15    1    1    2    0    0  0.47608235354E+01  0.34784286910E+01 -0.38965293199E+02  0.39448912659E+02  0.17770000000E+01 0.  1.
</event>
<event>
 6    1  0.8353910E-003  0.1828263E+03  0.7546771E-02  0.1068195E+00
        -11   -1    0    0    0    0  0.00000000000E+00  0.00000000000E+00  0.18250000000E+03  0.18250000000E+03  0.00000000000E+00 0. -1.
         11   -1    0    0    0    0 -0.00000000000E+00 -0.00000000000E+00 -0.18250000000E+03  0.18250000000E+03  0.00000000000E+00 0. -1.
        -11    1    1    2    0    0 -0.30445870955E+01 -0.60643511962E+00  0.18214728976E+03  0.18217374246E+03  0.00000000000E+00 0. -1.
         11    1    1    2    0    0  0.31023975586E+01  0.26605088729E+01 -0.13157779543E+03  0.13164125276E+03  0.00000000000E+00 0. -1.
        -15    1    1    2    0    0 -0.18061731470E+01 -0.14907363632E+01 -0.44530950014E+02  0.44627881358E+02  0.17770000000E+01 0. -1.
         15    1    1    2    0    0  0.17483626838E+01 -0.56333739011E+00 -0.60385443138E+01  0.65571234180E+01  0.17770000000E+01 0.  1.
</event>
<event>
 6    1  0.8353910E-003  0.1856710E+03  0.7546771E-02  0.1065958E+00
        -11   -1    0    0    0    0  0.00000000000E+00  0.00000000000E+00  0.18250000000E+03  0.18250000000E+03  0.00000000000E+00 0.  1.
         11   -1    0    0    0    0 -0.00000000000E+00 -0.00000000000E+00 -0.18250000000E+03  0.18250000000E+03  0.00000000000E+00 0. -1.
        -11    1    1    2    0    0 -0.26088201724E+01 -0.10398387536E+01  0.15933211552E+03  0.15935686444E+03  0.00000000000E+00 0.  1.
         11    1    1    2    0    0  0.30097290780E+00 -0.54633417463E+01 -0.17924549514E+03  0.17932898878E+03  0.00000000000E+00 0. -1.
        -15    1    1    2    0    0  0.16068377116E+01 -0.24922841578E+01  0.15915547241E+02  0.16286674944E+02  0.17770000000E+01 0.  1.
         15    1    1    2    0    0  0.70100955299E+00  0.89954646577E+01  0.39978323798E+01  0.10027471842E+02  0.17770000000E+01 0.  1.
</event>
<event>
 6    1  0.8353910E-003  0.1834774E+03  0.7546771E-02  0.1067679E+00
        -11   -1    0    0    0    0  0.00000000000E+00  0.00000000000E+00  0.18250000000E+03  0.18250000000E+03  0.00000000000E+00 0.  1.
         11   -1    0    0    0    0 -0.00000000000E+00 -0.00000000000E+00 -0.18250000000E+03  0.18250000000E+03  0.00000000000E+00 0. -1.
        -11    1    1    2    0    0 -0.26741187884E+01  0.11781296057E+01  0.18149910156E+03  0.18152262329E+03  0.00000000000E+00 0.  1.
         11    1    1    2    0    0  0.36930083009E+01 -0.64773688570E-01 -0.14859615417E+03  0.14864205172E+03  0.00000000000E+00 0. -1.
        -15    1    1    2    0    0  0.35366865615E+01  0.75686685080E+00 -0.25209396659E+02  0.25529441987E+02  0.17770000000E+01 0.  1.
         15    1    1    2    0    0 -0.45555760740E+01 -0.18702227680E+01 -0.76935507310E+01  0.93058830004E+01  0.17770000000E+01 0. -1.
</event>
<event>
 6    1  0.8353910E-003  0.1828598E+03  0.7546771E-02  0.1068169E+00
        -11   -1    0    0    0    0  0.00000000000E+00  0.00000000000E+00  0.18250000000E+03  0.18250000000E+03  0.00000000000E+00 0. -1.
         11   -1    0    0    0    0 -0.00000000000E+00 -0.00000000000E+00 -0.18250000000E+03  0.18250000000E+03  0.00000000000E+00 0. -1.
        -11    1    1    2    0    0 -0.49023745822E+01 -0.20698498800E+01  0.18206246295E+03  0.18214021514E+03  0.00000000000E+00 0. -1.
         11    1    1    2    0    0 -0.16837791162E+01  0.50653203614E+01 -0.94542559789E+02  0.94693126435E+02  0.00000000000E+00 0. -1.
        -15    1    1    2    0    0  0.26252231988E+01  0.19589268471E+01 -0.43124220755E+02  0.43284931974E+02  0.17770000000E+01 0. -1.
         15    1    1    2    0    0  0.39609304996E+01 -0.49543973285E+01 -0.44395682410E+02  0.44881726448E+02  0.17770000000E+01 0.  1.
</event>
<event>
 6    1  0.8353910E-003  0.1859002E+03  0.7546771E-02  0.1065780E+00
        -11   -1    0    0    0    0  0.00000000000E+00  0.00000000000E+00  0.18250000000E+03  0.18250000000E+03  0.00000000000E+00 0. -1.
         11   -1    0    0    0    0 -0.00000000000E+00 -0.00000000000E+00 -0.18250000000E+03  0.18250000000E+03  0.00000000000E+00 0.  1.
        -11    1    1    2    0    0  0.52019111206E+01  0.18228341072E+02  0.17809381767E+03  0.17909980511E+03  0.00000000000E+00 0. -1.
         11    1    1    2    0    0  0.22250097093E+01 -0.46856548306E+01 -0.10622445827E+03  0.10635102991E+03  0.00000000000E+00 0.  1.
        -15    1    1    2    0    0  0.24671445281E+01  0.33312490989E+01 -0.49806184978E+02  0.50009977142E+02  0.17770000000E+01 0.  1.
         15    1    1    2    0    0 -0.98940653580E+01 -0.16873935341E+02 -0.22063174427E+02  0.29539187835E+02  0.17770000000E+01 0. -1.
</event>
<event>
 6    1  0.8353910E-003  0.1772446E+03  0.7546771E-02  0.1072717E+00
        -11   -1    0    0    0    0  0.00000000000E+00  0.00000000000E+00  0.18250000000E+03  0.18250000000E+03  0.00000000000E+00 0. -1.
         11   -1    0    0    0    0 -0.00000000000E+00 -0.00000000000E+00 -0.18250000000E+03  0.18250000000E+03  0.00000000000E+00 0.  1.
        -11    1    1    2    0    0  0.32460666270E+01 -0.74317472438E+00  0.17647025248E+03  0.17650166931E+03  0.00000000000E+00 0. -1.
         11    1    1    2    0    0 -0.11413477595E+00 -0.33462646787E+01 -0.17799665912E+03  0.17802814714E+03  0.00000000000E+00 0.  1.
        -15    1    1    2    0    0  0.70766400415E-01  0.14206856115E+01 -0.31968920383E+01  0.39244366723E+01  0.17770000000E+01 0. -1.
         15    1    1    2    0    0 -0.32026982515E+01  0.26687537916E+01  0.47232986780E+01  0.65457468857E+01  0.17770000000E+01 0.  1.
</event>
<event>
 6    1  0.8353910E-003  0.1740838E+03  0.7546771E-02  0.1075359E+00
        -11   -1    0    0    0    0  0.00000000000E+00  0.00000000000E+00  0.18250000000E+03  0.18250000000E+03  0.00000000000E+00 0. -1.
         11   -1    0    0    0    0 -0.00000000000E+00 -0.00000000000E+00 -0.18250000000E+03  0.18250000000E+03  0.00000000000E+00 0.  1.
        -11    1    1    2    0    0 -0.51802787380E+01  0.14511410550E+02  0.17620355229E+03  0.17687596831E+03  0.00000000000E+00 0. -1.
         11    1    1    2    0    0 -0.29546932866E+01 -0.71984114889E+01 -0.17132109423E+03  0.17149771039E+03  0.00000000000E+00 0.  1.
        -15    1    1    2    0    0  0.64168409932E+01 -0.10131024455E+02 -0.40944401690E+01  0.12795924122E+02  0.17770000000E+01 0. -1.
         15    1    1    2    0    0  0.17181310314E+01  0.28180253938E+01 -0.78801789316E+00  0.38303971806E+01  0.17770000000E+01 0.  1.
</event>
<event>
 6    1  0.9654732E-003  0.1852670E+03  0.7546771E-02  0.1066273E+00
        -11   -1    0    0    0    0  0.00000000000E+00  0.00000000000E+00  0.18250000000E+03  0.18250000000E+03  0.00000000000E+00 0.  1.
         11   -1    0    0    0    0 -0.00000000000E+00 -0.00000000000E+00 -0.18250000000E+03  0.18250000000E+03  0.00000000000E+00 0. -1.
        -11    1    1    2    0    0 -0.39185914286E+01 -0.29084231618E+01  0.17966671597E+03  0.17973297725E+03  0.00000000000E+00 0.  1.
         11    1    1    2    0    0  0.22243323301E+01  0.54281466088E+01 -0.16115654771E+03  0.16126327945E+03  0.00000000000E+00 0. -1.
        -15    1    1    2    0    0 -0.13583301003E+01 -0.19273193520E+01 -0.19932638599E+02  0.20150122359E+02  0.17770000000E+01 0.  1.
         15    1    1    2    0    0  0.30525891988E+01 -0.59240409497E+00  0.14224703378E+01  0.38536209324E+01  0.17770000000E+01 0. -1.
</event>
<event>
 6    1  0.8353910E-003  0.1829264E+03  0.7546771E-02  0.1068116E+00
        -11   -1    0    0    0    0  0.00000000000E+00  0.00000000000E+00  0.18250000000E+03  0.18250000000E+03  0.00000000000E+00 0. -1.
         11   -1    0    0    0    0 -0.00000000000E+00 -0.00000000000E+00 -0.18250000000E+03  0.18250000000E+03  0.00000000000E+00 0.  1.
        -11    1    1    2    0    0  0.31793234425E+01 -0.12911609402E+01  0.93621083092E+02  0.93683949498E+02  0.00000000000E+00 0. -1.
         11    1    1    2    0    0  0.14661362393E+01 -0.79283147860E+01 -0.18189503565E+03  0.18207364369E+03  0.00000000000E+00 0.  1.
        -15    1    1    2    0    0 -0.34370968760E+01  0.92379511712E+00  0.17217807042E+02  0.17671379139E+02  0.17770000000E+01 0.  1.
         15    1    1    2    0    0 -0.12083628058E+01  0.82956806090E+01  0.71056145519E+02  0.71571027675E+02  0.17770000000E+01 0. -1.
</event>
<event>
 6    1  0.8353910E-003  0.1926383E+03  0.7546771E-02  0.1060659E+00
        -11   -1    0    0    0    0  0.00000000000E+00  0.00000000000E+00  0.18250000000E+03  0.18250000000E+03  0.00000000000E+00 0. -1.
         11   -1    0    0    0    0 -0.00000000000E+00 -0.00000000000E+00 -0.18250000000E+03  0.18250000000E+03  0.00000000000E+00 0.  1.
        -11    1    1    2    0    0  0.45724049224E+01 -0.78194962366E+00  0.16480201687E+03  0.16486728934E+03  0.00000000000E+00 0. -1.
         11    1    1    2    0    0  0.65022288202E+00  0.27776659543E+01 -0.17233806311E+03  0.17236167270E+03  0.00000000000E+00 0.  1.
        -15    1    1    2    0    0 -0.26802613028E+01  0.10069220138E+02  0.10571251753E+02  0.14949317291E+02  0.17770000000E+01 0. -1.
         15    1    1    2    0    0 -0.25423665016E+01 -0.12064936469E+02 -0.30352055091E+01  0.12821720669E+02  0.17770000000E+01 0.  1.
</event>
<event>
 6    1  0.8353910E-003  0.1889392E+03  0.7546771E-02  0.1063442E+00
        -11   -1    0    0    0    0  0.00000000000E+00  0.00000000000E+00  0.18250000000E+03  0.18250000000E+03  0.00000000000E+00 0. -1.
         11   -1    0    0    0    0 -0.00000000000E+00 -0.00000000000E+00 -0.18250000000E+03  0.18250000000E+03  0.00000000000E+00 0. -1.
        -11    1    1    2    0    0  0.59630276923E+00 -0.90298541878E+01  0.17582802766E+03  0.17606075416E+03  0.00000000000E+00 0. -1.
         11    1    1    2    0    0  0.60937558238E+00 -0.61585283255E+01 -0.14952471023E+03  0.14965272393E+03  0.00000000000E+00 0. -1.
        -15    1    1    2    0    0  0.30025612980E+01  0.99041674167E+01 -0.29712872242E+02  0.31513813041E+02  0.17770000000E+01 0. -1.
         15    1    1    2    0    0 -0.42082396497E+01  0.52842150966E+01  0.34095548090E+01  0.77727088670E+01  0.17770000000E+01 0.  1.
</event>
<event>
 6    1  0.8353910E-003  0.1835257E+03  0.7546771E-02  0.1067641E+00
        -11   -1    0    0    0    0  0.00000000000E+00  0.00000000000E+00  0.18250000000E+03  0.18250000000E+03  0.00000000000E+00 0. -1.
         11   -1    0    0    0    0 -0.00000000000E+00 -0.00000000000E+00 -0.18250000000E+03  0.18250000000E+03  0.00000000000E+00 0.  1.
        -11    1    1    2    0    0 -0.19663561491E+01 -0.18258129360E+01  0.12062405212E+03  0.12065389384E+03  0.00000000000E+00 0. -1.
         11    1    1    2    0    0 -0.47334419877E+01  0.31644104230E+01 -0.18138492422E+03  0.18147426732E+03  0.00000000000E+00 0.  1.
        -15    1    1    2    0    0  0.21253000553E+01  0.49984405705E+01  0.10307045985E+02  0.11785339808E+02  0.17770000000E+01 0.  1.
         15    1    1    2    0    0  0.45744980815E+01 -0.63370380576E+01  0.50453826115E+02  0.51086499026E+02  0.17770000000E+01 0. -1.
</event>
<event>
 6    1  0.8353910E-003  0.1865414E+03  0.7546771E-02  0.1065283E+00
        -11   -1    0    0    0    0  0.00000000000E+00  0.00000000000E+00  0.18250000000E+03  0.18250000000E+03  0.00000000000E+00 0.  1.
         11   -1    0    0    0    0 -0.00000000000E+00 -0.00000000000E+00 -0.18250000000E+03  0.18250000000E+03  0.00000000000E+00 0.  1.
        -11    1    1    2    0    0 -0.23676392946E+01 -0.71157013982E+01  0.11546821127E+03  0.11571148057E+03  0.00000000000E+00 0.  1.
         11    1    1    2    0    0  0.64037111686E+01 -0.20033912248E+00 -0.17834358687E+03  0.17845863002E+03  0.00000000000E+00 0.  1.
        -15    1    1    2    0    0  0.44889859291E+01  0.15210183366E+02  0.53396757864E+02  0.55730352162E+02  0.17770000000E+01 0.  1.
         15    1    1    2    0    0 -0.85250578031E+01 -0.78941428456E+01  0.94786177336E+01  0.15099537243E+02  0.17770000000E+01 0. -1.
</event>
<event>
 6    1  0.8353910E-003  0.1825907E+03  0.7546771E-02  0.1068383E+00
        -11   -1    0    0    0    0  0.00000000000E+00  0.00000000000E+00  0.18250000000E+03  0.18250000000E+03  0.00000000000E+00 0.  1.
         11   -1    0    0    0    0 -0.00000000000E+00 -0.00000000000E+00 -0.18250000000E+03  0.18250000000E+03  0.00000000000E+00 0. -1.
        -11    1    1    2    0    0 -0.57393262432E+00  0.10099275998E+01  0.67646007452E+02  0.67655980346E+02  0.00000000000E+00 0.  1.
         11    1    1    2    0    0 -0.11947550935E+01  0.32431063705E+01 -0.18237654699E+03  0.18240929272E+03  0.00000000000E+00 0. -1.
        -15    1    1    2    0    0  0.19485888352E+01 -0.23239170052E+01  0.89190129849E+02  0.89259366904E+02  0.17770000000E+01 0.  1.
         15    1    1    2    0    0 -0.17990111732E+00 -0.19291169651E+01  0.25540409688E+02  0.25675360031E+02  0.17770000000E+01 0. -1.
</event>
<event>
 6    1  0.8353910E-003  0.1887388E+03  0.7546771E-02  0.1063594E+00
        -11   -1    0    0    0    0  0.00000000000E+00  0.00000000000E+00  0.18250000000E+03  0.18250000000E+03  0.00000000000E+00 0.  1.
         11   -1    0    0    0    0 -0.00000000000E+00 -0.00000000000E+00 -0.18250000000E+03  0.18250000000E+03  0.00000000000E+00 0.  1.
        -11    1    1    2    0    0 -0.17456401854E+01 -0.66257366835E+00  0.29214521422E+02  0.29274127236E+02  0.00000000000E+00 0.  1.
         11    1    1    2    0    0  0.14863147043E+02  0.20854426025E+01 -0.17562107626E+03  0.17626123975E+03  0.00000000000E+00 0.  1.
        -15    1    1    2    0    0 -0.89275603139E+01 -0.67299122359E+01 -0.14766401585E+01  0.11416271152E+02  0.17770000000E+01 0. -1.
         15    1    1    2    0    0 -0.41899465433E+01  0.53070433018E+01  0.14788319499E+03  0.14804836187E+03  0.17770000000E+01 0.  1.
</event>
<event>
 6    1  0.8353910E-003  0.1843762E+03  0.7546771E-02  0.1066971E+00
        -11   -1    0    0    0    0  0.00000000000E+00  0.00000000000E+00  0.18250000000E+03  0.18250000000E+03  0.00000000000E+00 0. -1.
         11   -1    0    0    0    0 -0.00000000000E+00 -0.00000000000E+00 -0.18250000000E+03  0.18250000000E+03  0.00000000000E+00 0. -1.
        -11    1    1    2    0    0 -0.15256146525E+00 -0.19434700612E+01  0.14145066530E+03  0.14146409814E+03  0.00000000000E+00 0. -1.
         11    1    1    2    0    0  0.27484697857E+01 -0.38130921536E+01 -0.18056260435E+03  0.18062377432E+03  0.00000000000E+00 0. -1.
        -15    1    1    2    0    0 -0.45395795315E+01 -0.42838370298E+00  0.21523479008E+01  0.53461785797E+01  0.17770000000E+01 0.  1.
         15    1    1    2    0    0  0.19436712111E+01  0.61849459178E+01  0.36959591156E+02  0.37565948959E+02  0.17770000000E+01 0. -1.
</event>
<event>
 6    1  0.8353910E-003  0.1849635E+03  0.7546771E-02  0.1066511E+00
        -11   -1    0    0    0    0  0.00000000000E+00  0.00000000000E+00  0.18250000000E+03  0.18250000000E+03  0.00000000000E+00 0.  1.
         11   -1    0    0    0    0 -0.00000000000E+00 -0.00000000000E+00 -0.18250000000E+03  0.18250000000E+03  0.00000000000E+00 0.  1.
        -11    1    1    2    0    0  0.31304110571E+01 -0.35491469611E+01  0.16614272878E+03  0.16621011474E+03  0.00000000000E+00 0.  1.
         11    1    1    2    0    0 -0.27905233549E+01 -0.28619170742E+00 -0.18001463870E+03  0.18003649372E+03  0.00000000000E+00 0.  1.
        -15    1    1    2    0    0 -0.16161589364E+01  0.52134094548E+00  0.14522823899E+02  0.14729355352E+02  0.17770000000E+01 0.  1.
         15    1    1    2    0    0  0.12762712342E+01  0.33139977230E+01 -0.65091397979E+00  0.40240361803E+01  0.17770000000E+01 0. -1.
</event>
<event>
 6    1  0.8353910E-003  0.1828038E+03  0.7546771E-02  0.1068213E+00
        -11   -1    0    0    0    0  0.00000000000E+00  0.00000000000E+00  0.18250000000E+03  0.18250000000E+03  0.00000000000E+00 0. -1.
         11   -1    0    0    0    0 -0.00000000000E+00 -0.00000000000E+00 -0.18250000000E+03  0.18250000000E+03  0.00000000000E+00 0. -1.
        -11    1    1    2    0    0 -0.44099801888E+00 -0.58882342674E+01  0.18210051169E+03  0.18219621879E+03  0.00000000000E+00 0. -1.
         11    1    1    2    0    0  0.68606474705E+00  0.96020196072E+00 -0.58633023255E+02  0.58644898232E+02  0.00000000000E+00 0. -1.
        -15    1    1    2    0    0 -0.18392968857E+01 -0.85575974065E+00 -0.93798732237E+02  0.93837493764E+02  0.17770000000E+01 0.  1.
         15    1    1    2    0    0  0.15942301575E+01  0.57837920473E+01 -0.29668756202E+02  0.30321389213E+02  0.17770000000E+01 0.  1.
</event>
<event>
 6    1  0.8353910E-003  0.1836546E+03  0.7546771E-02  0.1067539E+00
        -11   -1    0    0    0    0  0.00000000000E+00  0.00000000000E+00  0.18250000000E+03  0.18250000000E+03  0.00000000000E+00 0.  1.
         11   -1    0    0    0    0 -0.00000000000E+00 -0.00000000000E+00 -0.18250000000E+03  0.18250000000E+03  0.00000000000E+00 0.  1.
        -11    1    1    2    0    0 -0.33597025148E+01 -0.10977897484E+01  0.16346837071E+03  0.16350657774E+03  0.00000000000E+00 0.  1.
         11    1    1    2    0    0 -0.70254255703E+00 -0.31933624491E+01 -0.18131595275E+03  0.18134543240E+03  0.00000000000E+00 0.  1.
        -15    1    1    2    0    0 -0.71634418775E+00  0.19057658269E+00  0.86438133891E+01  0.88556596217E+01  0.17770000000E+01 0.  1.
         15    1    1    2    0    0  0.47785892596E+01  0.41005756148E+01  0.92037686560E+01  0.11292330236E+02  0.17770000000E+01 0.  1.
</event>
<event>
 6    1  0.8353910E-003  0.1831519E+03  0.7546771E-02  0.1067937E+00
        -11   -1    0    0    0    0  0.00000000000E+00  0.00000000000E+00  0.18250000000E+03  0.18250000000E+03  0.00000000000E+00 0. -1.
         11   -1    0    0    0    0 -0.00000000000E+00 -0.00000000000E+00 -0.18250000000E+03  0.18250000000E+03  0.00000000000E+00 0.  1.
        -11    1    1    2    0    0  0.61624652089E+00 -0.31338822273E+01  0.18182001639E+03  0.18184806663E+03  0.00000000000E+00 0. -1.
         11    1    1    2    0    0  0.43911683580E+01 -0.10730899157E+01 -0.13415387720E+03  0.13423001396E+03  0.00000000000E+00 0.  1.
        -15    1    1    2    0    0 -0.44501707223E+01  0.10105554681E+01 -0.10657227049E+02  0.11728574474E+02  0.17770000000E+01 0.  1.
         15    1    1    2    0    0 -0.55724415653E+00  0.31964166749E+01 -0.37008912141E+02  0.37193344935E+02  0.17770000000E+01 0. -1.
</event>
<event>
 6    1  0.8353910E-003  0.1826456E+03  0.7546771E-02  0.1068339E+00
        -11   -1    0    0    0    0  0.00000000000E+00  0.00000000000E+00  0.18250000000E+03  0.18250000000E+03  0.00000000000E+00 0. -1.
         11   -1    0    0    0    0 -0.00000000000E+00 -0.00000000000E+00 -0.18250000000E+03  0.18250000000E+03  0.00000000000E+00 0.  1.
        -11    1    1    2    0    0  0.11457983532E+00 -0.18265929036E+01  0.10530495170E+03  0.10532085464E+03  0.00000000000E+00 0. -1.
         11    1    1    2    0    0 -0.27174681611E+01 -0.19964996767E+01 -0.18232321720E+03  0.18235439719E+03  0.00000000000E+00 0.  1.
        -15    1    1    2    0    0  0.20235830495E+01  0.63980600998E+00  0.46810682037E+02  0.46892450585E+02  0.17770000000E+01 0. -1.
         15    1    1    2    0    0  0.57930527627E+00  0.31832865703E+01  0.30207583470E+02  0.30432297581E+02  0.17770000000E+01 0.  1.
</event>
<event>
 6    1  0.8353910E-003  0.1829941E+03  0.7546771E-02  0.1068062E+00
        -11   -1    0    0    0    0  0.00000000000E+00  0.00000000000E+00  0.18250000000E+03  0.18250000000E+03  0.00000000000E+00 0. -1.
         11   -1    0    0    0    0 -0.00000000000E+00 -0.00000000000E+00 -0.18250000000E+03  0.18250000000E+03  0.00000000000E+00 0.  1.
        -11    1    1    2    0    0 -0.22990366279E+01  0.38792907351E+01  0.18195001174E+03  0.18200588243E+03  0.00000000000E+00 0. -1.
         11    1    1    2    0    0  0.12594710420E+01  0.32232935906E+01 -0.12930278530E+03  0.12934908649E+03  0.00000000000E+00 0.  1.
        -15    1    1    2    0    0  0.82421192204E+00 -0.21997320698E+01 -0.37659105198E+02  0.37774119180E+02  0.17770000000E+01 0. -1.
         15    1    1    2    0    0  0.21535366395E+00 -0.49028522559E+01 -0.14988121236E+02  0.15870911903E+02  0.17770000000E+01 0.  1.
</event>
<event>
 6    1  0.8353910E-003  0.1838452E+03  0.7546771E-02  0.1067389E+00
        -11   -1    0    0    0    0  0.00000000000E+00  0.00000000000E+00  0.18250000000E+03  0.18250000000E+03  0.00000000000E+00 0.  1.
         11   -1    0    0    0    0 -0.00000000000E+00 -0.00000000000E+00 -0.18250000000E+03  0.18250000000E+03  0.00000000000E+00 0.  1.
        -11    1    1    2    0    0  0.83394361004E+00 -0.85081617441E+00  0.66752433594E+02  0.66763064196E+02  0.00000000000E+00 0.  1.
         11    1    1    2    0    0  0.25308834344E+01  0.35211207617E+01 -0.18110287407E+03  0.18115478095E+03  0.00000000000E+00 0.  1.
        -15    1    1    2    0    0 -0.14763077991E+01 -0.21903469842E+00  0.11335340040E+03  0.11337715190E+03  0.17770000000E+01 0.  1.
         15    1    1    2    0    0 -0.18885192453E+01 -0.24512698889E+01  0.99704007917E+00  0.37050029592E+01  0.17770000000E+01 0. -1.
</event>
<event>
 6    1  0.8353910E-003  0.1846631E+03  0.7546771E-02  0.1066746E+00
        -11   -1    0    0    0    0  0.00000000000E+00  0.00000000000E+00  0.18250000000E+03  0.18250000000E+03  0.00000000000E+00 0.  1.
         11   -1    0    0    0    0 -0.00000000000E+00 -0.00000000000E+00 -0.18250000000E+03  0.18250000000E+03  0.00000000000E+00 0. -1.
        -11    1    1    2    0    0  0.23217046351E+01  0.53418025325E+00  0.17485443151E+03  0.17487066043E+03  0.00000000000E+00 0.  1.
         11    1    1    2    0    0  0.33230884289E+01 -0.11088855695E+01 -0.18030287690E+03  0.18033690682E+03  0.00000000000E+00 0. -1.
        -15    1    1    2    0    0 -0.46876969321E+01  0.11173462529E+01  0.15431261711E+01  0.53630152486E+01  0.17770000000E+01 0. -1.
         15    1    1    2    0    0 -0.95709613190E+00 -0.54264093667E+00  0.39053192135E+01  0.44294174957E+01  0.17770000000E+01 0. -1.
</event>
<event>
 6    1  0.8353910E-003  0.1854049E+03  0.7546771E-02  0.1066166E+00
        -11   -1    0    0    0    0  0.00000000000E+00  0.00000000000E+00  0.18250000000E+03  0.18250000000E+03  0.00000000000E+00 0.  1.
         11   -1    0    0    0    0 -0.00000000000E+00 -0.00000000000E+00 -0.18250000000E+03  0.18250000000E+03  0.00000000000E+00 0.  1.
        -11    1    1    2    0    0  0.89631400443E+01 -0.27429258439E+01  0.17935027584E+03  0.17959505273E+03  0.00000000000E+00 0.  1.
         11    1    1    2    0    0  0.17279065674E+01 -0.24907298158E+01 -0.88962034815E+02  0.89013667684E+02  0.00000000000E+00 0.  1.
        -15    1    1    2    0    0  0.51421999142E+01  0.47197180392E+01 -0.70666693525E+02  0.71032790041E+02  0.17770000000E+01 0.  1.
         15    1    1    2    0    0 -0.15833246526E+02  0.51393762051E+00 -0.19721547497E+02  0.25358489547E+02  0.17770000000E+01 0. -1.
</event>
<event>
 6    1  0.8353910E-003  0.1871564E+03  0.7546771E-02  0.1064808E+00
        -11   -1    0    0    0    0  0.00000000000E+00  0.00000000000E+00  0.18250000000E+03  0.18250000000E+03  0.00000000000E+00 0. -1.
         11   -1    0    0    0    0 -0.00000000000E+00 -0.00000000000E+00 -0.18250000000E+03  0.18250000000E+03  0.00000000000E+00 0. -1.
        -11    1    1    2    0    0  0.46061201823E+01 -0.42376220048E+01  0.16892202711E+03  0.16903793961E+03  0.00000000000E+00 0. -1.
         11    1    1    2    0    0 -0.27852223469E+01 -0.10059025174E+01 -0.17781892448E+03  0.17784358073E+03  0.00000000000E+00 0. -1.
        -15    1    1    2    0    0 -0.23337746070E+01 -0.20627642544E+01  0.98867639318E+01  0.10517001965E+02  0.17770000000E+01 0. -1.
         15    1    1    2    0    0  0.51287677160E+00  0.73062887766E+01 -0.98986656293E+00  0.76014776907E+01  0.17770000000E+01 0.  1.
</event>
<event>
 6    1  0.8353910E-003  0.1896271E+03  0.7546771E-02  0.1062919E+00
        -11   -1    0    0    0    0  0.00000000000E+00  0.00000000000E+00  0.18250000000E+03  0.18250000000E+03  0.00000000000E+00 0.  1.
         11   -1    0    0    0    0 -0.00000000000E+00 -0.00000000000E+00 -0.18250000000E+03  0.18250000000E+03  0.00000000000E+00 0. -1.
        -11    1    1    2    0    0 -0.34719774224E+01  0.12064459082E+01  0.17533442359E+03  0.17537294613E+03  0.00000000000E+00 0.  1.
         11    1    1    2    0    0  0.17250654795E+01  0.34069125898E+01 -0.49575039323E+02  0.49721900891E+02  0.00000000000E+00 0. -1.
        -15    1    1    2    0    0  0.46694816736E+01 -0.87136443840E+01 -0.13160509475E+03  0.13198784168E+03  0.17770000000E+01 0. -1.
         15    1    1    2    0    0 -0.29225697306E+01  0.41002858861E+01  0.58457104794E+01  0.79173112979E+01  0.17770000000E+01 0.  1.
</event>
<event>
 6    1  0.8353910E-003  0.1856554E+03  0.7546771E-02  0.1065971E+00
        -11   -1    0    0    0    0  0.00000000000E+00  0.00000000000E+00  0.18250000000E+03  0.18250000000E+03  0.00000000000E+00 0.  1.
         11   -1    0    0    0    0 -0.00000000000E+00 -0.00000000000E+00 -0.18250000000E+03  0.18250000000E+03  0.00000000000E+00 0. -1.
        -11    1    1    2    0    0 -0.15228733494E+01 -0.47184886428E+01  0.17927609969E+03  0.17934464921E+03  0.00000000000E+00 0.  1.
         11    1    1    2    0    0  0.14173210924E+01  0.72062573423E+01 -0.17500259410E+03  0.17515663529E+03  0.00000000000E+00 0. -1.
        -15    1    1    2    0    0  0.15991134904E+01  0.15573522055E+00  0.21214462654E+01  0.31999501044E+01  0.17770000000E+01 0.  1.
         15    1    1    2    0    0 -0.14935612334E+01 -0.26435039201E+01 -0.63949518542E+01  0.72987653991E+01  0.17770000000E+01 0.  1.
</event>
<event>
 6    1  0.8353910E-003  0.1664978E+03  0.7546771E-02  0.1081958E+00
        -11   -1    0    0    0    0  0.00000000000E+00  0.00000000000E+00  0.18250000000E+03  0.18250000000E+03  0.00000000000E+00 0.  1.
         11   -1    0    0    0    0 -0.00000000000E+00 -0.00000000000E+00 -0.18250000000E+03  0.18250000000E+03  0.00000000000E+00 0.  1.
        -11    1    1    2    0    0  0.34696663566E+01  0.34138052591E+01  0.16572280594E+03  0.16579427330E+03  0.00000000000E+00 0.  1.
         11    1    1    2    0    0 -0.59191559970E+01 -0.10695407479E+02 -0.16684469765E+03  0.16729190441E+03  0.00000000000E+00 0.  1.
        -15    1    1    2    0    0 -0.10979762618E+01 -0.68105057475E+01  0.11806774479E+02  0.13789350710E+02  0.17770000000E+01 0. -1.
         15    1    1    2    0    0  0.35474659022E+01  0.14092107967E+02 -0.10684882768E+02  0.18124471580E+02  0.17770000000E+01 0.  1.
</event>
<event>
 6    1  0.8353910E-003  0.1827444E+03  0.7546771E-02  0.1068260E+00
        -11   -1    0    0    0    0  0.00000000000E+00  0.00000000000E+00  0.18250000000E+03  0.18250000000E+03  0.00000000000E+00 0.  1.
         11   -1    0    0    0    0 -0.00000000000E+00 -0.00000000000E+00 -0.18250000000E+03  0.18250000000E+03  0.00000000000E+00 0. -1.
        -11    1    1    2    0    0  0.48019967112E+01 -0.12601297920E+02  0.18175597465E+03  0.18225555191E+03  0.00000000000E+00 0.  1.
         11    1    1    2    0    0 -0.89827399089E+00 -0.80524733249E+00 -0.52126447841E+02  0.52140405483E+02  0.00000000000E+00 0. -1.
        -15    1    1    2    0    0 -0.16698698392E+01  0.48412828747E+00 -0.13928880443E+02  0.14149002964E+02  0.17770000000E+01 0.  1.
         15    1    1    2    0    0 -0.22338528811E+01  0.12922416965E+02 -0.11570064637E+03  0.11645503964E+03  0.17770000000E+01 0. -1.
</event>
<event>
 6    1  0.8353910E-003  0.1838116E+03  0.7546771E-02  0.1067416E+00
        -11   -1    0    0    0    0  0.00000000000E+00  0.00000000000E+00  0.18250000000E+03  0.18250000000E+03  0.00000000000E+00 0.  1.
         11   -1    0    0    0    0 -0.00000000000E+00 -0.00000000000E+00 -0.18250000000E+03  0.18250000000E+03  0.00000000000E+00 0. -1.
        -11    1    1    2    0    0  0.54132500135E+00  0.24760859640E+01  0.18117066101E+03  0.18118838938E+03  0.00000000000E+00 0.  1.
         11    1    1    2    0    0 -0.79391352532E+00 -0.29791170278E+01 -0.17272964152E+03  0.17275715469E+03  0.00000000000E+00 0. -1.
        -15    1    1    2    0    0 -0.10461300967E+01 -0.23743269380E+01 -0.21988987723E+01  0.38372778631E+01  0.17770000000E+01 0.  1.
         15    1    1    2    0    0  0.12987186207E+01  0.28773580018E+01 -0.62421207260E+01  0.72171780693E+01  0.17770000000E+01 0. -1.
</event>
<event>
 6    1  0.8353910E-003  0.1880871E+03  0.7546771E-02  0.1064092E+00
        -11   -1    0    0    0    0  0.00000000000E+00  0.00000000000E+00  0.18250000000E+03  0.18250000000E+03  0.00000000000E+00 0. -1.
         11   -1    0    0    0    0 -0.00000000000E+00 -0.00000000000E+00 -0.18250000000E+03  0.18250000000E+03  0.00000000000E+00 0.  1.
        -11    1    1    2    0    0  0.36640391984E+01 -0.87028881955E+00  0.17687284634E+03  0.17691293441E+03  0.00000000000E+00 0. -1.
         11    1    1    2    0    0  0.30222972669E+01  0.12537842407E+01 -0.15356830779E+03  0.15360316212E+03  0.00000000000E+00 0.  1.
        -15    1    1    2    0    0 -0.81038601348E+00  0.16324093521E+00 -0.27149273349E+02  0.27219921849E+02  0.17770000000E+01 0. -1.
         15    1    1    2    0    0 -0.58759504518E+01 -0.54673635640E+00  0.38447347976E+01  0.72639816230E+01  0.17770000000E+01 0.  1.
</event>
<event>
 6    1  0.8353910E-003  0.1846905E+03  0.7546771E-02  0.1066724E+00
        -11   -1    0    0    0    0  0.00000000000E+00  0.00000000000E+00  0.18250000000E+03  0.18250000000E+03  0.00000000000E+00 0.  1.
         11   -1    0    0    0    0 -0.00000000000E+00 -0.00000000000E+00 -0.18250000000E+03  0.18250000000E+03  0.00000000000E+00 0. -1.
        -11    1    1    2    0    0  0.12149994645E+01  0.46695297248E+01  0.18024495987E+03  0.18030952912E+03  0.00000000000E+00 0.  1.
         11    1    1    2    0    0 -0.18388579982E+01  0.51791628728E+01 -0.16811660299E+03  0.16820641286E+03  0.00000000000E+00 0. -1.
        -15    1    1    2    0    0  0.38763664466E+00 -0.11931711173E+01 -0.14151359880E+01  0.25950449607E+01  0.17770000000E+01 0.  1.
         15    1    1    2    0    0  0.23622188910E+00 -0.86555214802E+01 -0.10713220893E+02  0.13889013060E+02  0.17770000000E+01 0. -1.
</event>
<event>
 6    1  0.8353910E-003  0.1868293E+03  0.7546771E-02  0.1065060E+00
        -11   -1    0    0    0    0  0.00000000000E+00  0.00000000000E+00  0.18250000000E+03  0.18250000000E+03  0.00000000000E+00 0.  1.
         11   -1    0    0    0    0 -0.00000000000E+00 -0.00000000000E+00 -0.18250000000E+03  0.18250000000E+03  0.00000000000E+00 0. -1.
        -11    1    1    2    0    0 -0.11591118342E+01 -0.13852044573E+02  0.14539473783E+03  0.14605770253E+03  0.00000000000E+00 0.  1.
         11    1    1    2    0    0  0.12399283632E+01  0.80244785627E+01 -0.17798554955E+03  0.17817066405E+03  0.00000000000E+00 0. -1.
        -15    1    1    2    0    0  0.11810804653E+01  0.17690730614E+01  0.35312440877E+02  0.35421049960E+02  0.17770000000E+01 0. -1.
         15    1    1    2    0    0 -0.12618969943E+01  0.40584929494E+01 -0.27216291585E+01  0.53505834561E+01  0.17770000000E+01 0.  1.
</event>
<event>
 6    1  0.8353910E-003  0.1856746E+03  0.7546771E-02  0.1065956E+00
        -11   -1    0    0    0    0  0.00000000000E+00  0.00000000000E+00  0.18250000000E+03  0.18250000000E+03  0.00000000000E+00 0. -1.
         11   -1    0    0    0    0 -0.00000000000E+00 -0.00000000000E+00 -0.18250000000E+03  0.18250000000E+03  0.00000000000E+00 0.  1.
        -11    1    1    2    0    0  0.53271943382E+01  0.83706956752E+01  0.17905071982E+03  0.17932542433E+03  0.00000000000E+00 0. -1.
         11    1    1    2    0    0 -0.23631264020E+01 -0.35600528092E+01 -0.17077519969E+03  0.17082864857E+03  0.00000000000E+00 0.  1.
        -15    1    1    2    0    0 -0.11888248800E+00 -0.13303251158E+01  0.23118925049E+01  0.32072533286E+01  0.17770000000E+01 0. -1.
         15    1    1    2    0    0 -0.28451854482E+01 -0.34803177502E+01 -0.10587412627E+02  0.11638673765E+02  0.17770000000E+01 0.  1.
</event>
<event>
 6    1  0.8353910E-003  0.1972622E+03  0.7546771E-02  0.1057276E+00
        -11   -1    0    0    0    0  0.00000000000E+00  0.00000000000E+00  0.18250000000E+03  0.18250000000E+03  0.00000000000E+00 0.  1.
         11   -1    0    0    0    0 -0.00000000000E+00 -0.00000000000E+00 -0.18250000000E+03  0.18250000000E+03  0.00000000000E+00 0.  1.
        -11    1    1    2    0    0 -0.20843262672E+00 -0.40299104720E+01  0.10996821590E+03  0.11004222885E+03  0.00000000000E+00 0.  1.
         11    1    1    2    0    0 -0.76057644530E+00 -0.68131485106E+01 -0.16759767369E+03  0.16773782428E+03  0.00000000000E+00 0.  1.
        -15    1    1    2    0    0  0.61621481363E+01  0.12598348314E+02  0.71140404367E+02  0.72531409144E+02  0.17770000000E+01 0.  1.
         15    1    1    2    0    0 -0.51931390643E+01 -0.17552893319E+01 -0.13510946578E+02  0.14688537722E+02  0.17770000000E+01 0. -1.
</event>
<event>
 6    1  0.8353910E-003  0.1839307E+03  0.7546771E-02  0.1067322E+00
        -11   -1    0    0    0    0  0.00000000000E+00  0.00000000000E+00  0.18250000000E+03  0.18250000000E+03  0.00000000000E+00 0. -1.
         11   -1    0    0    0    0 -0.00000000000E+00 -0.00000000000E+00 -0.18250000000E+03  0.18250000000E+03  0.00000000000E+00 0. -1.
        -11    1    1    2    0    0  0.85399745790E+00 -0.34022892529E+01  0.18103530817E+03  0.18106928974E+03  0.00000000000E+00 0. -1.
         11    1    1    2    0    0 -0.17030012786E-01  0.39204441657E+01 -0.17290861924E+03  0.17295305947E+03  0.00000000000E+00 0. -1.
        -15    1    1    2    0    0 -0.22109904288E+01  0.19130078933E+01 -0.18693010714E+01  0.38987297126E+01  0.17770000000E+01 0. -1.
         15    1    1    2    0    0  0.13740229837E+01 -0.24311628061E+01 -0.62573878615E+01  0.70789210759E+01  0.17770000000E+01 0.  1.
</event>
<event>
 6    1  0.8353910E-003  0.1853373E+03  0.7546771E-02  0.1066219E+00
        -11   -1    0    0    0    0  0.00000000000E+00  0.00000000000E+00  0.18250000000E+03  0.18250000000E+03  0.00000000000E+00 0.  1.
         11   -1    0    0    0    0 -0.00000000000E+00 -0.00000000000E+00 -0.18250000000E+03  0.18250000000E+03  0.00000000000E+00 0.  1.
        -11    1    1    2    0    0 -0.10117892223E+01 -0.85591891835E+01  0.15220871448E+03  0.15245253754E+03  0.00000000000E+00 0.  1.
         11    1    1    2    0    0  0.39737182015E+01 -0.29847491516E+01 -0.17959398472E+03  0.17966273546E+03  0.00000000000E+00 0.  1.
        -15    1    1    2    0    0 -0.68122118010E+01  0.37730869740E+01  0.19331942750E+02  0.20917078057E+02  0.17770000000E+01 0. -1.
         15    1    1    2    0    0  0.38502828218E+01  0.77708513611E+01  0.80533274904E+01  0.11967648948E+02  0.17770000000E+01 0.  1.
</event>
<event>
 6    1  0.8353910E-003  0.1896499E+03  0.7546771E-02  0.1062902E+00
        -11   -1    0    0    0    0  0.00000000000E+00  0.00000000000E+00  0.18250000000E+03  0.18250000000E+03  0.00000000000E+00 0.  1.
         11   -1    0    0    0    0 -0.00000000000E+00 -0.00000000000E+00 -0.18250000000E+03  0.18250000000E+03  0.00000000000E+00 0.  1.
        -11    1    1    2    0    0 -0.30597719989E+01 -0.16295415184E+01  0.16949595669E+03  0.16953140401E+03  0.00000000000E+00 0.  1.
         11    1    1    2    0    0  0.48635908479E+01  0.27709680711E+01 -0.17526071585E+03  0.17535008212E+03  0.00000000000E+00 0.  1.
        -15    1    1    2    0    0  0.33374048123E+01 -0.32343259043E+01 -0.55114088764E+01  0.74251257053E+01  0.17770000000E+01 0.  1.
         15    1    1    2    0    0 -0.51412236612E+01  0.20928993516E+01  0.11276168036E+02  0.12693388161E+02  0.17770000000E+01 0. -1.
</event>
<event>
 6    1  0.8353910E-003  0.1830276E+03  0.7546771E-02  0.1068036E+00
        -11   -1    0    0    0    0  0.00000000000E+00  0.00000000000E+00  0.18250000000E+03  0.18250000000E+03  0.00000000000E+00 0. -1.
         11   -1    0    0    0    0 -0.00000000000E+00 -0.00000000000E+00 -0.18250000000E+03  0.18250000000E+03  0.00000000000E+00 0.  1.
        -11    1    1    2    0    0  0.16672814218E+01  0.27560091164E+01  0.18194390082E+03  0.18197241126E+03  0.00000000000E+00 0. -1.
         11    1    1    2    0    0 -0.43029841891E+01 -0.20690908745E+01 -0.16687244427E+03  0.16694073639E+03  0.00000000000E+00 0.  1.
        -15    1    1    2    0    0  0.21637680218E+01  0.16152532845E+00 -0.12516022547E+02  0.12826399802E+02  0.17770000000E+01 0.  1.
         15    1    1    2    0    0  0.47193474556E+00 -0.84844357032E+00 -0.25554340044E+01  0.32604525525E+01  0.17770000000E+01 0. -1.
</event>
<event>
 6    1  0.8353910E-003  0.1827178E+03  0.7546771E-02  0.1068282E+00
        -11   -1    0    0    0    0  0.00000000000E+00  0.00000000000E+00  0.18250000000E+03  0.18250000000E+03  0.00000000000E+00 0.  1.
         11   -1    0    0    0    0 -0.00000000000E+00 -0.00000000000E+00 -0.18250000000E+03  0.18250000000E+03  0.00000000000E+00 0. -1.
        -11    1    1    2    0    0 -0.16590851200E+01  0.94635768061E+00  0.12960725839E+03  0.12962133152E+03  0.00000000000E+00 0.  1.
         11    1    1    2    0    0 -0.49824464961E+00  0.33715310455E+01 -0.18225032518E+03  0.18228218920E+03  0.00000000000E+00 0. -1.
        -15    1    1    2    0    0 -0.19379582002E+00 -0.15069585030E+01  0.29928787224E+02  0.30019968595E+02  0.17770000000E+01 0.  1.
         15    1    1    2    0    0  0.23511255897E+01 -0.28109302231E+01  0.22714279567E+02  0.23076510688E+02  0.17770000000E+01 0.  1.
</event>
<event>
 6    1  0.8353910E-003  0.1532490E+03  0.7546771E-02  0.1094462E+00
        -11   -1    0    0    0    0  0.00000000000E+00  0.00000000000E+00  0.18250000000E+03  0.18250000000E+03  0.00000000000E+00 0.  1.
         11   -1    0    0    0    0 -0.00000000000E+00 -0.00000000000E+00 -0.18250000000E+03  0.18250000000E+03  0.00000000000E+00 0. -1.
        -11    1    1    2    0    0 -0.19359394747E+01  0.24258212820E+02  0.91469421062E+02  0.94651274373E+02  0.00000000000E+00 0.  1.
         11    1    1    2    0    0 -0.13869498459E+02  0.23168447010E+02 -0.13419675616E+03  0.13688648321E+03  0.00000000000E+00 0. -1.
        -15    1    1    2    0    0 -0.59651331338E+01  0.92625086346E+01 -0.33891067212E+02  0.35681074049E+02  0.17770000000E+01 0. -1.
         15    1    1    2    0    0  0.21770571067E+02 -0.56689168465E+02  0.76618402305E+02  0.97781168364E+02  0.17770000000E+01 0.  1.
</event>
<event>
 6    1  0.8353910E-003  0.1827826E+03  0.7546771E-02  0.1068230E+00
        -11   -1    0    0    0    0  0.00000000000E+00  0.00000000000E+00  0.18250000000E+03  0.18250000000E+03  0.00000000000E+00 0. -1.
         11   -1    0    0    0    0 -0.00000000000E+00 -0.00000000000E+00 -0.18250000000E+03  0.18250000000E+03  0.00000000000E+00 0. -1.
        -11    1    1    2    0    0 -0.75710897982E+00  0.16133428818E+01  0.77686435927E+02  0.77706874962E+02  0.00000000000E+00 0. -1.
         11    1    1    2    0    0  0.19074211868E+01  0.58824321227E+01 -0.18211246578E+03  0.18221742907E+03  0.00000000000E+00 0. -1.
        -15    1    1    2    0    0 -0.32293221119E+01 -0.76568461595E+00  0.53741775056E+02  0.53873471296E+02  0.17770000000E+01 0.  1.
         15    1    1    2    0    0  0.20790099049E+01 -0.67300903885E+01  0.50684254795E+02  0.51202224678E+02  0.17770000000E+01 0. -1.
</event>
<event>
 6    1  0.8353910E-003  0.1759003E+03  0.7546771E-02  0.1073833E+00
        -11   -1    0    0    0    0  0.00000000000E+00  0.00000000000E+00  0.18250000000E+03  0.18250000000E+03  0.00000000000E+00 0. -1.
         11   -1    0    0    0    0 -0.00000000000E+00 -0.00000000000E+00 -0.18250000000E+03  0.18250000000E+03  0.00000000000E+00 0. -1.
        -11    1    1    2    0    0  0.23231967891E+01 -0.95868096044E+00  0.17478105004E+03  0.17479911832E+03  0.00000000000E+00 0. -1.
         11    1    1    2    0    0  0.13143807184E+01  0.26273992578E+01 -0.17700694468E+03  0.17703132290E+03  0.00000000000E+00 0. -1.
        -15    1    1    2    0    0 -0.17937928700E+00 -0.25193436193E+01  0.65811325067E+01  0.72696838495E+01  0.17770000000E+01 0.  1.
         15    1    1    2    0    0 -0.34581982206E+01  0.85062532199E+00 -0.43552378631E+01  0.58998749322E+01  0.17770000000E+01 0. -1.
</event>
<event>
 6    1  0.8353910E-003  0.1886307E+03  0.7546771E-02  0.1063677E+00
        -11   -1    0    0    0    0  0.00000000000E+00  0.00000000000E+00  0.18250000000E+03  0.18250000000E+03  0.00000000000E+00 0.  1.
         11   -1    0    0    0    0 -0.00000000000E+00 -0.00000000000E+00 -0.18250000000E+03  0.18250000000E+03  0.00000000000E+00 0.  1.
        -11    1    1    2    0    0 -0.85439849894E+01  0.14861636425E+01  0.17615593033E+03  0.17636927213E+03  0.00000000000E+00 0.  1.
         11    1    1    2    0    0 -0.13824062587E+01  0.18971701276E+01 -0.16258010008E+03  0.16259704562E+03  0.00000000000E+00 0.  1.
        -15    1    1    2    0    0  0.15231894132E+02 -0.23899307186E+01 -0.61769054754E+01  0.16704318541E+02  0.17770000000E+01 0. -1.
         15    1    1    2    0    0 -0.53055028836E+01 -0.99340305159E+00 -0.73989247753E+01  0.93293637137E+01  0.17770000000E+01 0.  1.
</event>
<event>
 6    1  0.8353910E-003  0.1830458E+03  0.7546771E-02  0.1068021E+00
        -11   -1    0    0    0    0  0.00000000000E+00  0.00000000000E+00  0.18250000000E+03  0.18250000000E+03  0.00000000000E+00 0.  1.
         11   -1    0    0    0    0 -0.00000000000E+00 -0.00000000000E+00 -0.18250000000E+03  0.18250000000E+03  0.00000000000E+00 0.  1.
        -11    1    1    2    0    0 -0.74708304682E+00  0.25111124618E+01  0.18193528889E+03  0.18195415127E+03  0.00000000000E+00 0.  1.
         11    1    1    2    0    0 -0.55517276908E+01  0.39689001697E+01 -0.48118330310E+02  0.48599872024E+02  0.00000000000E+00 0.  1.
        -15    1    1    2    0    0  0.71875347494E+01 -0.65042519466E+01 -0.12583844552E+03  0.12622376183E+03  0.17770000000E+01 0.  1.
         15    1    1    2    0    0 -0.88872401182E+00  0.24239315050E-01 -0.79785130587E+01  0.82222148805E+01  0.17770000000E+01 0. -1.
</event>
<event>
 6    1  0.8353910E-003  0.1847070E+03  0.7546771E-02  0.1066712E+00
        -11   -1    0    0    0    0  0.00000000000E+00  0.00000000000E+00  0.18250000000E+03  0.18250000000E+03  0.00000000000E+00 0.  1.
         11   -1    0    0    0    0 -0.00000000000E+00 -0.00000000000E+00 -0.18250000000E+03  0.18250000000E+03  0.00000000000E+00 0.  1.
        -11    1    1    2    0    0 -0.54208571509E+02  0.17102425761E+02  0.17109797496E+03  0.18029303710E+03  0.00000000000E+00 0.  1.
         11    1    1    2    0    0  0.13701806716E+01  0.55819290507E+00 -0.33464499403E+02  0.33497189355E+02  0.00000000000E+00 0.  1.
        -15    1    1    2    0    0  0.53062136892E+02 -0.15707343286E+02 -0.13784752826E+03  0.14855103427E+03  0.17770000000E+01 0.  1.
         15    1    1    2    0    0 -0.22374605472E+00 -0.19532753802E+01  0.21405270901E+00  0.26587392821E+01  0.17770000000E+01 0. -1.
</event>
<event>
 6    1  0.8353910E-003  0.1859172E+03  0.7546771E-02  0.1065767E+00
        -11   -1    0    0    0    0  0.00000000000E+00  0.00000000000E+00  0.18250000000E+03  0.18250000000E+03  0.00000000000E+00 0. -1.
         11   -1    0    0    0    0 -0.00000000000E+00 -0.00000000000E+00 -0.18250000000E+03  0.18250000000E+03  0.00000000000E+00 0. -1.
        -11    1    1    2    0    0 -0.13703172699E+01 -0.59706416468E+00  0.36559473973E+02  0.36590017658E+02  0.00000000000E+00 0. -1.
         11    1    1    2    0    0 -0.13178669058E+02 -0.93451601633E+01 -0.17835252800E+03  0.17908275623E+03  0.00000000000E+00 0. -1.
        -15    1    1    2    0    0  0.29101171855E+00  0.33834301008E+01  0.12884986437E+03  0.12890685616E+03  0.17770000000E+01 0. -1.
         15    1    1    2    0    0  0.14257974609E+02  0.65587942272E+01  0.12943189655E+02  0.20420369956E+02  0.17770000000E+01 0.  1.
</event>
<event>
 6    1  0.8353910E-003  0.1854816E+03  0.7546771E-02  0.1066106E+00
        -11   -1    0    0    0    0  0.00000000000E+00  0.00000000000E+00  0.18250000000E+03  0.18250000000E+03  0.00000000000E+00 0.  1.
         11   -1    0    0    0    0 -0.00000000000E+00 -0.00000000000E+00 -0.18250000000E+03  0.18250000000E+03  0.00000000000E+00 0.  1.
        -11    1    1    2    0    0 -0.43507810745E+01 -0.20154727270E+01  0.16000002228E+03  0.16007185435E+03  0.00000000000E+00 0.  1.
         11    1    1    2    0    0  0.88489579186E+00  0.26200242015E+01 -0.17949706797E+03  0.17951836947E+03  0.00000000000E+00 0.  1.
        -15    1    1    2    0    0  0.20777870261E+01 -0.68926125898E+01  0.37605791783E+01  0.83141440928E+01  0.17770000000E+01 0. -1.
         15    1    1    2    0    0  0.13880982566E+01  0.62880611153E+01  0.15736466512E+02  0.17095632093E+02  0.17770000000E+01 0.  1.
</event>
<event>
 6    1  0.8353910E-003  0.1038520E+03  0.7546771E-02  0.1157314E+00
        -11   -1    0    0    0    0  0.00000000000E+00  0.00000000000E+00  0.18250000000E+03  0.18250000000E+03  0.00000000000E+00 0. -1.
         11   -1    0    0    0    0 -0.00000000000E+00 -0.00000000000E+00 -0.18250000000E+03  0.18250000000E+03  0.00000000000E+00 0. -1.
        -11    1    1    2    0    0 -0.80785689956E+01  0.62296687369E+01  0.95089688638E+02  0.95635354000E+02  0.00000000000E+00 0. -1.
         11    1    1    2    0    0  0.13188581612E+02 -0.13271641315E+02 -0.67059617083E+02  0.69620883300E+02  0.00000000000E+00 0. -1.
        -15    1    1    2    0    0  0.16699296753E+01  0.15823098454E+02 -0.11295242428E+03  0.11408140510E+03  0.17770000000E+01 0. -1.
         15    1    1    2    0    0 -0.67799422913E+01 -0.87811258758E+01  0.84922352723E+02  0.85662357603E+02  0.17770000000E+01 0.  1.
</event>
<event>
 6    1  0.8353910E-003  0.1853001E+03  0.7546771E-02  0.1066248E+00
        -11   -1    0    0    0    0  0.00000000000E+00  0.00000000000E+00  0.18250000000E+03  0.18250000000E+03  0.00000000000E+00 0. -1.
         11   -1    0    0    0    0 -0.00000000000E+00 -0.00000000000E+00 -0.18250000000E+03  0.18250000000E+03  0.00000000000E+00 0.  1.
        -11    1    1    2    0    0  0.49238472053E+01  0.99958425233E+00  0.17962961818E+03  0.17969986969E+03  0.00000000000E+00 0. -1.
         11    1    1    2    0    0  0.18276771889E+01  0.15124419671E+01 -0.17376348191E+03  0.17377967525E+03  0.00000000000E+00 0.  1.
        -15    1    1    2    0    0 -0.56430642441E+01 -0.30592769597E+01 -0.17765147077E+01  0.68932636019E+01  0.17770000000E+01 0. -1.
         15    1    1    2    0    0 -0.11084601500E+01  0.54725074027E+00 -0.40896215649E+01  0.46271914615E+01  0.17770000000E+01 0.  1.
</event>
<event>
 6    1  0.8353910E-003  0.1733542E+03  0.7546771E-02  0.1075977E+00
        -11   -1    0    0    0    0  0.00000000000E+00  0.00000000000E+00  0.18250000000E+03  0.18250000000E+03  0.00000000000E+00 0.  1.
         11   -1    0    0    0    0 -0.00000000000E+00 -0.00000000000E+00 -0.18250000000E+03  0.18250000000E+03  0.00000000000E+00 0.  1.
        -11    1    1    2    0    0 -0.79989866633E+01 -0.40185729705E+01  0.17381813030E+03  0.17404848502E+03  0.00000000000E+00 0.  1.
         11    1    1    2    0    0 -0.19791244029E+01 -0.39034446562E+01 -0.17283986402E+03  0.17289526427E+03  0.00000000000E+00 0.  1.
        -15    1    1    2    0    0  0.10676292129E+02  0.84236861592E+01 -0.41423714770E+01  0.14326851454E+02  0.17770000000E+01 0. -1.
         15    1    1    2    0    0 -0.69818106286E+00 -0.50166853251E+00  0.31641051960E+01  0.37293992552E+01  0.17770000000E+01 0.  1.
</event>
<event>
 6    1  0.8353910E-003  0.1869215E+03  0.7546771E-02  0.1064989E+00
        -11   -1    0    0    0    0  0.00000000000E+00  0.00000000000E+00  0.18250000000E+03  0.18250000000E+03  0.00000000000E+00 0. -1.
         11   -1    0    0    0    0 -0.00000000000E+00 -0.00000000000E+00 -0.18250000000E+03  0.18250000000E+03  0.00000000000E+00 0. -1.
        -11    1    1    2    0    0 -0.11826058456E+00  0.37002178202E+01  0.17804003278E+03  0.17807851884E+03  0.00000000000E+00 0. -1.
         11    1    1    2    0    0  0.72399426419E+01  0.17683350967E+01 -0.17038581938E+03  0.17054873562E+03  0.00000000000E+00 0. -1.
        -15    1    1    2    0    0 -0.81886321745E+01 -0.25514190720E+01 -0.99821874941E+00  0.88157589487E+01  0.17770000000E+01 0.  1.
         15    1    1    2    0    0  0.10669501172E+01 -0.29171338449E+01 -0.66559946591E+01  0.75569865902E+01  0.17770000000E+01 0. -1.
</event>
<event>
 6    1  0.8353910E-003  0.1840550E+03  0.7546771E-02  0.1067224E+00
        -11   -1    0    0    0    0  0.00000000000E+00  0.00000000000E+00  0.18250000000E+03  0.18250000000E+03  0.00000000000E+00 0.  1.
         11   -1    0    0    0    0 -0.00000000000E+00 -0.00000000000E+00 -0.18250000000E+03  0.18250000000E+03  0.00000000000E+00 0.  1.
        -11    1    1    2    0    0 -0.84212562830E+01  0.16115953300E+01  0.11847965285E+03  0.11878949001E+03  0.00000000000E+00 0.  1.
         11    1    1    2    0    0  0.20392506304E+01 -0.29000714214E+01 -0.18091029067E+03  0.18094502543E+03  0.00000000000E+00 0.  1.
        -15    1    1    2    0    0  0.70897587249E+01  0.55964283813E+01  0.14987995152E+02  0.17589269942E+02  0.17770000000E+01 0. -1.
         15    1    1    2    0    0 -0.70775307238E+00 -0.43079522899E+01  0.47442642670E+02  0.47676214613E+02  0.17770000000E+01 0.  1.
</event>
<event>
 6    1  0.8353910E-003  0.1845725E+03  0.7546771E-02  0.1066817E+00
        -11   -1    0    0    0    0  0.00000000000E+00  0.00000000000E+00  0.18250000000E+03  0.18250000000E+03  0.00000000000E+00 0.  1.
         11   -1    0    0    0    0 -0.00000000000E+00 -0.00000000000E+00 -0.18250000000E+03  0.18250000000E+03  0.00000000000E+00 0. -1.
        -11    1    1    2    0    0  0.52855039261E+01  0.55372082697E+01  0.11119795939E+03  0.11146112955E+03  0.00000000000E+00 0.  1.
         11    1    1    2    0    0 -0.47253087016E+01  0.19363017624E+01 -0.18035521716E+03  0.18042749835E+03  0.00000000000E+00 0. -1.
        -15    1    1    2    0    0  0.63689119881E+01  0.41873686438E+01  0.11903842624E+02  0.14246272996E+02  0.17770000000E+01 0.  1.
         15    1    1    2    0    0 -0.69291072126E+01 -0.11660878676E+02  0.57253415137E+02  0.58865099100E+02  0.17770000000E+01 0. -1.
</event>
<event>
 6    1  0.8353910E-003  0.1832081E+03  0.7546771E-02  0.1067893E+00
        -11   -1    0    0    0    0  0.00000000000E+00  0.00000000000E+00  0.18250000000E+03  0.18250000000E+03  0.00000000000E+00 0. -1.
         11   -1    0    0    0    0 -0.00000000000E+00 -0.00000000000E+00 -0.18250000000E+03  0.18250000000E+03  0.00000000000E+00 0. -1.
        -11    1    1    2    0    0  0.23582353393E+00  0.28216491679E+01  0.16233338187E+03  0.16235807398E+03  0.00000000000E+00 0. -1.
         11    1    1    2    0    0  0.67221560277E+00 -0.24141519581E+01 -0.18177465922E+03  0.18179193255E+03  0.00000000000E+00 0. -1.
        -15    1    1    2    0    0 -0.13412742153E+01 -0.19844911703E+01  0.17497607133E+02  0.17749963552E+02  0.17770000000E+01 0. -1.
         15    1    1    2    0    0  0.43323507863E+00  0.15769939605E+01  0.19436702220E+01  0.31000299219E+01  0.17770000000E+01 0.  1.
</event>
<event>
 6    1  0.8353910E-003  0.1455013E+03  0.7546771E-02  0.1102437E+00
        -11   -1    0    0    0    0  0.00000000000E+00  0.00000000000E+00  0.18250000000E+03  0.18250000000E+03  0.00000000000E+00 0.  1.
         11   -1    0    0    0    0 -0.00000000000E+00 -0.00000000000E+00 -0.18250000000E+03  0.18250000000E+03  0.00000000000E+00 0.  1.
        -11    1    1    2    0    0  0.31663363642E+01 -0.19072311218E+00  0.14154461878E+03  0.14158015810E+03  0.00000000000E+00 0.  1.
         11    1    1    2    0    0 -0.20871559096E+01  0.59505889348E+01 -0.28800526898E+02  0.29482809874E+02  0.00000000000E+00 0.  1.
        -15    1    1    2    0    0 -0.13887319537E+02 -0.26949718996E+02 -0.14785244062E+03  0.15093921599E+03  0.17770000000E+01 0.  1.
         15    1    1    2    0    0  0.12808139082E+02  0.21189853173E+02  0.35108348734E+02  0.42997816038E+02  0.17770000000E+01 0. -1.
</event>
<event>
 6    1  0.8353910E-003  0.1865501E+03  0.7546771E-02  0.1065276E+00
        -11   -1    0    0    0    0  0.00000000000E+00  0.00000000000E+00  0.18250000000E+03  0.18250000000E+03  0.00000000000E+00 0. -1.
         11   -1    0    0    0    0 -0.00000000000E+00 -0.00000000000E+00 -0.18250000000E+03  0.18250000000E+03  0.00000000000E+00 0.  1.
        -11    1    1    2    0    0 -0.53749275305E+01  0.11342356033E+01  0.16092930466E+03  0.16102303387E+03  0.00000000000E+00 0. -1.
         11    1    1    2    0    0 -0.73364350226E+00  0.79778539725E+01 -0.17826999200E+03  0.17844992137E+03  0.00000000000E+00 0.  1.
        -15    1    1    2    0    0  0.65539823359E+01  0.21793730923E+01  0.83254048943E+01  0.10962410647E+02  0.17770000000E+01 0. -1.
         15    1    1    2    0    0 -0.44541130320E+00 -0.11291462668E+02  0.90152824485E+01  0.14564634120E+02  0.17770000000E+01 0.  1.
</event>
<event>
 6    1  0.8353910E-003  0.1848946E+03  0.7546771E-02  0.1066565E+00
        -11   -1    0    0    0    0  0.00000000000E+00  0.00000000000E+00  0.18250000000E+03  0.18250000000E+03  0.00000000000E+00 0. -1.
         11   -1    0    0    0    0 -0.00000000000E+00 -0.00000000000E+00 -0.18250000000E+03  0.18250000000E+03  0.00000000000E+00 0. -1.
        -11    1    1    2    0    0 -0.15303285731E+01  0.26172772912E+01  0.17061351963E+03  0.17064045571E+03  0.00000000000E+00 0. -1.
         11    1    1    2    0    0  0.38885641188E+01 -0.32146305460E+01 -0.18003468886E+03  0.18010536908E+03  0.00000000000E+00 0. -1.
        -15    1    1    2    0    0  0.17256454173E+01 -0.25235744984E+01  0.78242142550E+01  0.85861713273E+01  0.17770000000E+01 0.  1.
         15    1    1    2    0    0 -0.40838809630E+01  0.31209277532E+01  0.15969549719E+01  0.56680038764E+01  0.17770000000E+01 0. -1.
</event>
<event>
 6    1  0.1505353E-002  0.1827962E+03  0.7546771E-02  0.1068219E+00
        -11   -1    0    0    0    0  0.00000000000E+00  0.00000000000E+00  0.18250000000E+03  0.18250000000E+03  0.00000000000E+00 0.  1.
         11   -1    0    0    0    0 -0.00000000000E+00 -0.00000000000E+00 -0.18250000000E+03  0.18250000000E+03  0.00000000000E+00 0. -1.
        -11    1    1    2    0    0 -0.24567772246E+01  0.40854901143E+00  0.18218673991E+03  0.18220376195E+03  0.00000000000E+00 0.  1.
         11    1    1    2    0    0 -0.50837299702E+00  0.19159907747E+01 -0.14480228596E+03  0.14481585370E+03  0.00000000000E+00 0. -1.
        -15    1    1    2    0    0  0.38199520313E+01 -0.19234542340E+01 -0.23638954057E+02  0.24088370381E+02  0.17770000000E+01 0. -1.
         15    1    1    2    0    0 -0.85480180971E+00 -0.40108555207E+00 -0.13745499901E+02  0.13892013975E+02  0.17770000000E+01 0. -1.
</event>
<event>
 6    1  0.8353910E-003  0.1946522E+03  0.7546771E-02  0.1059173E+00
        -11   -1    0    0    0    0  0.00000000000E+00  0.00000000000E+00  0.18250000000E+03  0.18250000000E+03  0.00000000000E+00 0. -1.
         11   -1    0    0    0    0 -0.00000000000E+00 -0.00000000000E+00 -0.18250000000E+03  0.18250000000E+03  0.00000000000E+00 0.  1.
        -11    1    1    2    0    0 -0.44974002458E+01 -0.12286295886E+01  0.13515758273E+03  0.13523796919E+03  0.00000000000E+00 0. -1.
         11    1    1    2    0    0 -0.49973636945E+01 -0.20688941524E+01 -0.17026195745E+03  0.17034784449E+03  0.00000000000E+00 0.  1.
        -15    1    1    2    0    0 -0.18818333852E+02  0.42894266873E+01  0.11841689723E+02  0.22713701037E+02  0.17770000000E+01 0.  1.
         15    1    1    2    0    0  0.28313097792E+02 -0.99190294629E+00  0.23262684995E+02  0.36700485286E+02  0.17770000000E+01 0. -1.
</event>
<event>
 6    1  0.8353910E-003  0.1867243E+03  0.7546771E-02  0.1065141E+00
        -11   -1    0    0    0    0  0.00000000000E+00  0.00000000000E+00  0.18250000000E+03  0.18250000000E+03  0.00000000000E+00 0.  1.
         11   -1    0    0    0    0 -0.00000000000E+00 -0.00000000000E+00 -0.18250000000E+03  0.18250000000E+03  0.00000000000E+00 0.  1.
        -11    1    1    2    0    0  0.40726150597E+01 -0.26809971089E+01  0.17820905646E+03  0.17827574637E+03  0.00000000000E+00 0.  1.
         11    1    1    2    0    0 -0.23923225604E+01  0.83297242245E+00 -0.11557863369E+03  0.11560639089E+03  0.00000000000E+00 0.  1.
        -15    1    1    2    0    0  0.12916509729E+02 -0.46215376013E-01 -0.99788923033E+01  0.16418720415E+02  0.17770000000E+01 0.  1.
         15    1    1    2    0    0 -0.14596802229E+02  0.18942400624E+01 -0.52651530471E+02  0.54699142321E+02  0.17770000000E+01 0. -1.
</event>
<event>
 6    1  0.8353910E-003  0.1837077E+03  0.7546771E-02  0.1067498E+00
        -11   -1    0    0    0    0  0.00000000000E+00  0.00000000000E+00  0.18250000000E+03  0.18250000000E+03  0.00000000000E+00 0. -1.
         11   -1    0    0    0    0 -0.00000000000E+00 -0.00000000000E+00 -0.18250000000E+03  0.18250000000E+03  0.00000000000E+00 0.  1.
        -11    1    1    2    0    0  0.42313643271E+01  0.34958881654E+01  0.14040592914E+03  0.14051316883E+03  0.00000000000E+00 0. -1.
         11    1    1    2    0    0 -0.44461206729E+01  0.28303265303E+01 -0.18121565906E+03  0.18129228838E+03  0.00000000000E+00 0.  1.
        -15    1    1    2    0    0  0.94644395815E+00 -0.13590819291E+01  0.35801261209E+02  0.35883574139E+02  0.17770000000E+01 0.  1.
         15    1    1    2    0    0 -0.73168761234E+00 -0.49671327665E+01  0.50084687124E+01  0.73109686448E+01  0.17770000000E+01 0. -1.
</event>
<event>
 6    1  0.8353910E-003  0.1825790E+03  0.7546771E-02  0.1068392E+00
        -11   -1    0    0    0    0  0.00000000000E+00  0.00000000000E+00  0.18250000000E+03  0.18250000000E+03  0.00000000000E+00 0. -1.
         11   -1    0    0    0    0 -0.00000000000E+00 -0.00000000000E+00 -0.18250000000E+03  0.18250000000E+03  0.00000000000E+00 0. -1.
        -11    1    1    2    0    0  0.56989806367E+01 -0.10685329975E+00  0.18233192950E+03  0.18242100294E+03  0.00000000000E+00 0. -1.
         11    1    1    2    0    0 -0.29774510142E+00 -0.75955984694E+00 -0.53656657020E+02  0.53662858905E+02  0.00000000000E+00 0. -1.
        -15    1    1    2    0    0 -0.23653787546E+01  0.26027363633E+01 -0.68260346850E+02  0.68373985801E+02  0.17770000000E+01 0.  1.
         15    1    1    2    0    0 -0.30358567806E+01 -0.17363232166E+01 -0.60414925627E+02  0.60542152359E+02  0.17770000000E+01 0. -1.
</event>
<event>
 6    1  0.8353910E-003  0.1902286E+03  0.7546771E-02  0.1062464E+00
        -11   -1    0    0    0    0  0.00000000000E+00  0.00000000000E+00  0.18250000000E+03  0.18250000000E+03  0.00000000000E+00 0. -1.
         11   -1    0    0    0    0 -0.00000000000E+00 -0.00000000000E+00 -0.18250000000E+03  0.18250000000E+03  0.00000000000E+00 0. -1.
        -11    1    1    2    0    0  0.36655819985E+01 -0.45424597071E+01  0.15193167471E+03  0.15204375756E+03  0.00000000000E+00 0. -1.
         11    1    1    2    0    0  0.30776273048E+01 -0.15516376930E+01 -0.17473740512E+03  0.17477139387E+03  0.00000000000E+00 0. -1.
        -15    1    1    2    0    0 -0.16603313012E+02  0.19293374133E+00  0.59911716343E+01  0.17741451264E+02  0.17770000000E+01 0.  1.
         15    1    1    2    0    0  0.98601037086E+01  0.59011636587E+01  0.16814558771E+02  0.20443397304E+02  0.17770000000E+01 0. -1.
</event>
<event>
 6    1  0.8353910E-003  0.1826512E+03  0.7546771E-02  0.1068334E+00
        -11   -1    0    0    0    0  0.00000000000E+00  0.00000000000E+00  0.18250000000E+03  0.18250000000E+03  0.00000000000E+00 0.  1.
         11   -1    0    0    0    0 -0.00000000000E+00 -0.00000000000E+00 -0.18250000000E+03  0.18250000000E+03  0.00000000000E+00 0.  1.
        -11    1    1    2    0    0 -0.23924147030E+01  0.13480375530E+01  0.18232809525E+03  0.18234877343E+03  0.00000000000E+00 0.  1.
         11    1    1    2    0    0  0.12202823121E+01  0.28685391958E+00 -0.47320676616E+02  0.47337277166E+02  0.00000000000E+00 0.  1.
        -15    1    1    2    0    0 -0.17964829300E+01 -0.10481209070E+01 -0.11261517399E+03  0.11264839569E+03  0.17770000000E+01 0.  1.
         15    1    1    2    0    0  0.29686153208E+01 -0.58677056560E+00 -0.22392244638E+02  0.22665553722E+02  0.17770000000E+01 0.  1.
</event>
<event>
 6    1  0.8353910E-003  0.1826210E+03  0.7546771E-02  0.1068359E+00
        -11   -1    0    0    0    0  0.00000000000E+00  0.00000000000E+00  0.18250000000E+03  0.18250000000E+03  0.00000000000E+00 0. -1.
         11   -1    0    0    0    0 -0.00000000000E+00 -0.00000000000E+00 -0.18250000000E+03  0.18250000000E+03  0.00000000000E+00 0. -1.
        -11    1    1    2    0    0  0.17211441477E+01 -0.13230240711E+01  0.82854121773E+02  0.82882556818E+02  0.00000000000E+00 0. -1.
         11    1    1    2    0    0 -0.66323469533E+00  0.26563451084E+01 -0.18235842341E+03  0.18237897532E+03  0.00000000000E+00 0. -1.
        -15    1    1    2    0    0 -0.13250355024E+01  0.16327973287E+01  0.65487420772E+02  0.65545264928E+02  0.17770000000E+01 0.  1.
         15    1    1    2    0    0  0.26712604998E+00 -0.29661183660E+01  0.34016880863E+02  0.34193202938E+02  0.17770000000E+01 0. -1.
</event>
<event>
 6    1  0.8353910E-003  0.1842451E+03  0.7546771E-02  0.1067074E+00
        -11   -1    0    0    0    0  0.00000000000E+00  0.00000000000E+00  0.18250000000E+03  0.18250000000E+03  0.00000000000E+00 0. -1.
         11   -1    0    0    0    0 -0.00000000000E+00 -0.00000000000E+00 -0.18250000000E+03  0.18250000000E+03  0.00000000000E+00 0. -1.
        -11    1    1    2    0    0 -0.19971225482E+01 -0.14001706286E+01  0.18073842116E+03  0.18075487783E+03  0.00000000000E+00 0. -1.
         11    1    1    2    0    0 -0.30639115424E+01 -0.43722528781E+00 -0.16686803648E+03  0.16689673549E+03  0.00000000000E+00 0. -1.
        -15    1    1    2    0    0 -0.17252219798E+01 -0.11825598759E+01 -0.30363638087E+01  0.40929296254E+01  0.17770000000E+01 0. -1.
         15    1    1    2    0    0  0.67862560704E+01  0.30199557923E+01 -0.10834020870E+02  0.13255457052E+02  0.17770000000E+01 0. -1.
</event>
<event>
 6    1  0.8353910E-003  0.1835829E+03  0.7546771E-02  0.1067596E+00
        -11   -1    0    0    0    0  0.00000000000E+00  0.00000000000E+00  0.18250000000E+03  0.18250000000E+03  0.00000000000E+00 0.  1.
         11   -1    0    0    0    0 -0.00000000000E+00 -0.00000000000E+00 -0.18250000000E+03  0.18250000000E+03  0.00000000000E+00 0. -1.
        -11    1    1    2    0    0 -0.20171780919E+01 -0.10601190797E+01  0.15339963584E+03  0.15341656083E+03  0.00000000000E+00 0.  1.
         11    1    1    2    0    0  0.43223073730E+01 -0.74169753537E+01 -0.18121383392E+03  0.18141705396E+03  0.00000000000E+00 0. -1.
        -15    1    1    2    0    0 -0.24601115537E+01  0.33339535869E+01  0.50911071218E+01  0.68003305877E+01  0.17770000000E+01 0. -1.
         15    1    1    2    0    0  0.15498227260E+00  0.51431408465E+01  0.22723090950E+02  0.23366054622E+02  0.17770000000E+01 0.  1.
</event>
<event>
 6    1  0.8353910E-003  0.1844089E+03  0.7546771E-02  0.1066945E+00
        -11   -1    0    0    0    0  0.00000000000E+00  0.00000000000E+00  0.18250000000E+03  0.18250000000E+03  0.00000000000E+00 0. -1.
         11   -1    0    0    0    0 -0.00000000000E+00 -0.00000000000E+00 -0.18250000000E+03  0.18250000000E+03  0.00000000000E+00 0. -1.
        -11    1    1    2    0    0 -0.10281701047E+01  0.38893303922E+01  0.18054630518E+03  0.18059111922E+03  0.00000000000E+00 0. -1.
         11    1    1    2    0    0  0.15817387164E+01  0.17596075841E+01 -0.15918922986E+03  0.15920681210E+03  0.00000000000E+00 0. -1.
        -15    1    1    2    0    0  0.38460528168E+01  0.16675514934E+01 -0.88856391348E+01  0.99842456945E+01  0.17770000000E+01 0. -1.
         15    1    1    2    0    0 -0.43996214285E+01 -0.73164894697E+01 -0.12471436189E+02  0.15217822988E+02  0.17770000000E+01 0.  1.
</event>
<event>
 6    1  0.8353910E-003  0.1827819E+03  0.7546771E-02  0.1068231E+00
        -11   -1    0    0    0    0  0.00000000000E+00  0.00000000000E+00  0.18250000000E+03  0.18250000000E+03  0.00000000000E+00 0. -1.
         11   -1    0    0    0    0 -0.00000000000E+00 -0.00000000000E+00 -0.18250000000E+03  0.18250000000E+03  0.00000000000E+00 0. -1.
        -11    1    1    2    0    0 -0.40393181768E+00 -0.30942471264E+01  0.12401271431E+03  0.12405196829E+03  0.00000000000E+00 0. -1.
         11    1    1    2    0    0  0.62500499146E+01  0.13173077060E+01 -0.18210610245E+03  0.18221808629E+03  0.00000000000E+00 0. -1.
        -15    1    1    2    0    0 -0.16414051757E+01 -0.10922228635E+01  0.30464292043E+02  0.30579698828E+02  0.17770000000E+01 0.  1.
         15    1    1    2    0    0 -0.42047129212E+01  0.28691622840E+01  0.27629096091E+02  0.28150246585E+02  0.17770000000E+01 0. -1.
</event>
<event>
 6    1  0.8353910E-003  0.1842288E+03  0.7546771E-02  0.1067087E+00
        -11   -1    0    0    0    0  0.00000000000E+00  0.00000000000E+00  0.18250000000E+03  0.18250000000E+03  0.00000000000E+00 0.  1.
         11   -1    0    0    0    0 -0.00000000000E+00 -0.00000000000E+00 -0.18250000000E+03  0.18250000000E+03  0.00000000000E+00 0.  1.
        -11    1    1    2    0    0 -0.29356738041E+01 -0.45515227729E+01  0.14172486902E+03  0.14182832241E+03  0.00000000000E+00 0.  1.
         11    1    1    2    0    0  0.31466208392E+01  0.56351483282E+00 -0.18074293915E+03  0.18077120574E+03  0.00000000000E+00 0.  1.
        -15    1    1    2    0    0  0.22873288950E+01  0.32293511800E+01  0.39001650168E+02  0.39242158801E+02  0.17770000000E+01 0.  1.
         15    1    1    2    0    0 -0.24982759302E+01  0.75865676003E+00  0.16419962770E-01  0.31583130494E+01  0.17770000000E+01 0.  1.
</event>
<event>
 6    1  0.8353910E-003  0.1971698E+03  0.7546771E-02  0.1057342E+00
        -11   -1    0    0    0    0  0.00000000000E+00  0.00000000000E+00  0.18250000000E+03  0.18250000000E+03  0.00000000000E+00 0. -1.
         11   -1    0    0    0    0 -0.00000000000E+00 -0.00000000000E+00 -0.18250000000E+03  0.18250000000E+03  0.00000000000E+00 0. -1.
        -11    1    1    2    0    0 -0.19573938840E+01  0.13257963268E+01  0.16781355177E+03  0.16783020373E+03  0.00000000000E+00 0. -1.
         11    1    1    2    0    0  0.82921986783E+01  0.36034635927E+01 -0.14989474783E+03  0.15016717663E+03  0.00000000000E+00 0. -1.
        -15    1    1    2    0    0 -0.16403442682E+01 -0.26483156505E+01 -0.31833777291E+02  0.32035158978E+02  0.17770000000E+01 0. -1.
         15    1    1    2    0    0 -0.46944605261E+01 -0.22809442690E+01  0.13914973350E+02  0.14967460663E+02  0.17770000000E+01 0.  1.
</event>
<event>
 6    1  0.8353910E-003  0.1910717E+03  0.7546771E-02  0.1061829E+00
        -11   -1    0    0    0    0  0.00000000000E+00  0.00000000000E+00  0.18250000000E+03  0.18250000000E+03  0.00000000000E+00 0. -1.
         11   -1    0    0    0    0 -0.00000000000E+00 -0.00000000000E+00 -0.18250000000E+03  0.18250000000E+03  0.00000000000E+00 0.  1.
        -11    1    1    2    0    0 -0.31597647773E+01 -0.81942629863E+01  0.14457411697E+03  0.14484062053E+03  0.00000000000E+00 0. -1.
         11    1    1    2    0    0 -0.13593579768E+01  0.28658328061E+01 -0.17389936626E+03  0.17392829108E+03  0.00000000000E+00 0.  1.
        -15    1    1    2    0    0  0.78421217966E+01 -0.41184396713E+01 -0.50727051323E+01  0.10361007961E+02  0.17770000000E+01 0.  1.
         15    1    1    2    0    0 -0.33229990424E+01  0.94468698515E+01  0.34397954423E+02  0.35870080431E+02  0.17770000000E+01 0. -1.
</event>
<event>
 6    1  0.8353910E-003  0.1880207E+03  0.7546771E-02  0.1064143E+00
        -11   -1    0    0    0    0  0.00000000000E+00  0.00000000000E+00  0.18250000000E+03  0.18250000000E+03  0.00000000000E+00 0. -1.
         11   -1    0    0    0    0 -0.00000000000E+00 -0.00000000000E+00 -0.18250000000E+03  0.18250000000E+03  0.00000000000E+00 0. -1.
        -11    1    1    2    0    0  0.32852479598E+01  0.92339341568E+00  0.12985543771E+03  0.12990027026E+03  0.00000000000E+00 0. -1.
         11    1    1    2    0    0 -0.16493357830E+01 -0.29319530443E+01 -0.17694736634E+03  0.17697934092E+03  0.00000000000E+00 0. -1.
        -15    1    1    2    0    0  0.87102479219E+01 -0.21489641839E+01 -0.54664749929E+00  0.91620422621E+01  0.17770000000E+01 0. -1.
         15    1    1    2    0    0 -0.10346160099E+02  0.41575238125E+01  0.47638576130E+02  0.48958346558E+02  0.17770000000E+01 0.  1.
</event>
<event>
 6    1  0.8353910E-003  0.1886948E+03  0.7546771E-02  0.1063628E+00
        -11   -1    0    0    0    0  0.00000000000E+00  0.00000000000E+00  0.18250000000E+03  0.18250000000E+03  0.00000000000E+00 0.  1.
         11   -1    0    0    0    0 -0.00000000000E+00 -0.00000000000E+00 -0.18250000000E+03  0.18250000000E+03  0.00000000000E+00 0. -1.
        -11    1    1    2    0    0 -0.51775530055E+01  0.30706947638E+01  0.17320363664E+03  0.17330821090E+03  0.00000000000E+00 0.  1.
         11    1    1    2    0    0  0.10625779991E+01 -0.41295024149E+01 -0.17625366718E+03  0.17630523832E+03  0.00000000000E+00 0. -1.
        -15    1    1    2    0    0 -0.22751126714E+01  0.40235778859E+01  0.57928143016E+01  0.76210067055E+01  0.17770000000E+01 0.  1.
         15    1    1    2    0    0  0.63900876778E+01 -0.29647702347E+01 -0.27427837541E+01  0.77655440760E+01  0.17770000000E+01 0. -1.
</event>
<event>
 6    1  0.8353910E-003  0.1828086E+03  0.7546771E-02  0.1068209E+00
        -11   -1    0    0    0    0  0.00000000000E+00  0.00000000000E+00  0.18250000000E+03  0.18250000000E+03  0.00000000000E+00 0. -1.
         11   -1    0    0    0    0 -0.00000000000E+00 -0.00000000000E+00 -0.18250000000E+03  0.18250000000E+03  0.00000000000E+00 0.  1.
        -11    1    1    2    0    0  0.12779103851E+01 -0.25525175649E+01  0.18216906212E+03  0.18219142569E+03  0.00000000000E+00 0. -1.
         11    1    1    2    0    0  0.20706715149E+01 -0.10508037242E+01 -0.10250172661E+03  0.10252802459E+03  0.00000000000E+00 0.  1.
        -15    1    1    2    0    0 -0.41316523267E+01  0.55409497165E+01 -0.54965691022E+02  0.55427047488E+02  0.17770000000E+01 0. -1.
         15    1    1    2    0    0  0.78307042663E+00 -0.19376284274E+01 -0.24701644497E+02  0.24853502229E+02  0.17770000000E+01 0.  1.
</event>
<event>
 6    1  0.8353910E-003  0.1825318E+03  0.7546771E-02  0.1068429E+00
        -11   -1    0    0    0    0  0.00000000000E+00  0.00000000000E+00  0.18250000000E+03  0.18250000000E+03  0.00000000000E+00 0.  1.
         11   -1    0    0    0    0 -0.00000000000E+00 -0.00000000000E+00 -0.18250000000E+03  0.18250000000E+03  0.00000000000E+00 0.  1.
        -11    1    1    2    0    0 -0.41246747484E+01 -0.39411114713E+00  0.18242111346E+03  0.18246816408E+03  0.00000000000E+00 0.  1.
         11    1    1    2    0    0  0.21313417859E+00  0.72284785815E+00 -0.16669459574E+02  0.16686486080E+02  0.00000000000E+00 0.  1.
        -15    1    1    2    0    0  0.25642504003E+01  0.55854614194E+00 -0.90989045427E+02  0.91044228101E+02  0.17770000000E+01 0. -1.
         15    1    1    2    0    0  0.13472901695E+01 -0.88728285296E+00 -0.74762608458E+02  0.74801121744E+02  0.17770000000E+01 0.  1.
</event>
<event>
 6    1  0.8353910E-003  0.1840075E+03  0.7546771E-02  0.1067261E+00
        -11   -1    0    0    0    0  0.00000000000E+00  0.00000000000E+00  0.18250000000E+03  0.18250000000E+03  0.00000000000E+00 0.  1.
         11   -1    0    0    0    0 -0.00000000000E+00 -0.00000000000E+00 -0.18250000000E+03  0.18250000000E+03  0.00000000000E+00 0.  1.
        -11    1    1    2    0    0  0.32803600546E+01  0.23425439801E+01  0.26283149884E+02  0.26590453968E+02  0.00000000000E+00 0.  1.
         11    1    1    2    0    0  0.54452555930E+01  0.39624929606E+00 -0.18091009877E+03  0.18099246299E+03  0.00000000000E+00 0.  1.
        -15    1    1    2    0    0 -0.62286203938E+01  0.11287767328E+02  0.44683073896E+02  0.46539705898E+02  0.17770000000E+01 0. -1.
         15    1    1    2    0    0 -0.24969952538E+01 -0.14026560604E+02  0.10994387499E+03  0.11087737715E+03  0.17770000000E+01 0.  1.
</event>
<event>
 6    1  0.8353910E-003  0.1955216E+03  0.7546771E-02  0.1058538E+00
        -11   -1    0    0    0    0  0.00000000000E+00  0.00000000000E+00  0.18250000000E+03  0.18250000000E+03  0.00000000000E+00 0. -1.
         11   -1    0    0    0    0 -0.00000000000E+00 -0.00000000000E+00 -0.18250000000E+03  0.18250000000E+03  0.00000000000E+00 0. -1.
        -11    1    1    2    0    0 -0.14175196365E+01 -0.36732765678E+00  0.90289237899E+02  0.90301111687E+02  0.00000000000E+00 0. -1.
         11    1    1    2    0    0  0.41495503250E+01 -0.15827901883E+01 -0.16942018845E+03  0.16947838873E+03  0.00000000000E+00 0. -1.
        -15    1    1    2    0    0 -0.43637285620E+01 -0.11238844199E+01 -0.12552054835E+02  0.13454257792E+02  0.17770000000E+01 0.  1.
         15    1    1    2    0    0  0.16316978735E+01  0.30740022649E+01  0.91683005382E+02  0.91766241793E+02  0.17770000000E+01 0. -1.
</event>
<event>
 6    1  0.8353910E-003  0.1845468E+03  0.7546771E-02  0.1066837E+00
        -11   -1    0    0    0    0  0.00000000000E+00  0.00000000000E+00  0.18250000000E+03  0.18250000000E+03  0.00000000000E+00 0. -1.
         11   -1    0    0    0    0 -0.00000000000E+00 -0.00000000000E+00 -0.18250000000E+03  0.18250000000E+03  0.00000000000E+00 0. -1.
        -11    1    1    2    0    0 -0.64831143696E+01  0.30272380501E+01  0.18031127005E+03  0.18045317689E+03  0.00000000000E+00 0. -1.
         11    1    1    2    0    0  0.16300204935E+01  0.93784571599E+00 -0.68041461519E+02  0.68067444547E+02  0.00000000000E+00 0. -1.
        -15    1    1    2    0    0  0.72033930449E+01  0.43575161597E+01 -0.10408595692E+03  0.10444099279E+03  0.17770000000E+01 0.  1.
         15    1    1    2    0    0 -0.23502991688E+01 -0.83225999258E+01 -0.81838516143E+01  0.12038385770E+02  0.17770000000E+01 0. -1.
</event>
<event>
 6    1  0.8353910E-003  0.1830256E+03  0.7546771E-02  0.1068037E+00
        -11   -1    0    0    0    0  0.00000000000E+00  0.00000000000E+00  0.18250000000E+03  0.18250000000E+03  0.00000000000E+00 0.  1.
         11   -1    0    0    0    0 -0.00000000000E+00 -0.00000000000E+00 -0.18250000000E+03  0.18250000000E+03  0.00000000000E+00 0.  1.
        -11    1    1    2    0    0  0.33958160565E+01 -0.13831624389E+01  0.12586124827E+03  0.12591464776E+03  0.00000000000E+00 0.  1.
         11    1    1    2    0    0  0.14380654336E+01  0.59248092161E+01 -0.18187225273E+03  0.18197441499E+03  0.00000000000E+00 0.  1.
        -15    1    1    2    0    0 -0.44250236786E+01 -0.27347690280E+01  0.52360237960E+02  0.52648001334E+02  0.17770000000E+01 0.  1.
         15    1    1    2    0    0 -0.40885781148E+00 -0.18068777492E+01  0.36507665009E+01  0.44629359120E+01  0.17770000000E+01 0.  1.
</event>
<event>
 6    1  0.8353910E-003  0.1888579E+03  0.7546771E-02  0.1063504E+00
        -11   -1    0    0    0    0  0.00000000000E+00  0.00000000000E+00  0.18250000000E+03  0.18250000000E+03  0.00000000000E+00 0. -1.
         11   -1    0    0    0    0 -0.00000000000E+00 -0.00000000000E+00 -0.18250000000E+03  0.18250000000E+03  0.00000000000E+00 0. -1.
        -11    1    1    2    0    0  0.11644874439E+01  0.29832359164E+01  0.17611299933E+03  0.17614211382E+03  0.00000000000E+00 0. -1.
         11    1    1    2    0    0 -0.12801173563E+01 -0.28111610088E+01 -0.16971318793E+03  0.16974129575E+03  0.00000000000E+00 0. -1.
        -15    1    1    2    0    0 -0.19631375117E+01 -0.89740243920E+00 -0.12278328453E+02  0.12592629536E+02  0.17770000000E+01 0.  1.
         15    1    1    2    0    0  0.20787674242E+01  0.72532753159E+00  0.58785170542E+01  0.65239608972E+01  0.17770000000E+01 0. -1.
</event>
<event>
 6    1  0.8353910E-003  0.1830525E+03  0.7546771E-02  0.1068016E+00
        -11   -1    0    0    0    0  0.00000000000E+00  0.00000000000E+00  0.18250000000E+03  0.18250000000E+03  0.00000000000E+00 0. -1.
         11   -1    0    0    0    0 -0.00000000000E+00 -0.00000000000E+00 -0.18250000000E+03  0.18250000000E+03  0.00000000000E+00 0. -1.
        -11    1    1    2    0    0  0.22807946004E+01  0.13153518594E+01  0.18192844304E+03  0.18194749397E+03  0.00000000000E+00 0. -1.
         11    1    1    2    0    0  0.33331608058E+01 -0.68949705180E+00 -0.15598863115E+03  0.15602576203E+03  0.00000000000E+00 0. -1.
        -15    1    1    2    0    0 -0.38258296099E+01  0.12826699298E+01 -0.14216220793E+02  0.14884249292E+02  0.17770000000E+01 0.  1.
         15    1    1    2    0    0 -0.17881257964E+01 -0.19085247374E+01 -0.11723591096E+02  0.12142494708E+02  0.17770000000E+01 0. -1.
</event>
<event>
 6    1  0.8353910E-003  0.1839848E+03  0.7546771E-02  0.1067279E+00
        -11   -1    0    0    0    0  0.00000000000E+00  0.00000000000E+00  0.18250000000E+03  0.18250000000E+03  0.00000000000E+00 0.  1.
         11   -1    0    0    0    0 -0.00000000000E+00 -0.00000000000E+00 -0.18250000000E+03  0.18250000000E+03  0.00000000000E+00 0. -1.
        -11    1    1    2    0    0 -0.18884204270E+01  0.88361025251E+00  0.15195641537E+03  0.15197071781E+03  0.00000000000E+00 0.  1.
         11    1    1    2    0    0  0.25954384141E+01  0.40152500950E+00 -0.18099613276E+03  0.18101518609E+03  0.00000000000E+00 0. -1.
        -15    1    1    2    0    0 -0.42023287437E+01 -0.43837990329E+01  0.70907766786E+01  0.95033732820E+01  0.17770000000E+01 0.  1.
         15    1    1    2    0    0  0.34953107566E+01  0.30986637709E+01  0.21948940706E+02  0.22510722813E+02  0.17770000000E+01 0. -1.
</event>
<event>
 6    1  0.8353910E-003  0.1826872E+03  0.7546771E-02  0.1068306E+00
        -11   -1    0    0    0    0  0.00000000000E+00  0.00000000000E+00  0.18250000000E+03  0.18250000000E+03  0.00000000000E+00 0. -1.
         11   -1    0    0    0    0 -0.00000000000E+00 -0.00000000000E+00 -0.18250000000E+03  0.18250000000E+03  0.00000000000E+00 0. -1.
        -11    1    1    2    0    0  0.13359398957E+01  0.42585437308E+01  0.18225819965E+03  0.18231283902E+03  0.00000000000E+00 0. -1.
         11    1    1    2    0    0 -0.12391300945E+01 -0.96612003069E+00 -0.62529805901E+02  0.62549544022E+02  0.00000000000E+00 0. -1.
        -15    1    1    2    0    0  0.16242044935E+01  0.16899738276E+01 -0.75989717026E+02  0.76046623031E+02  0.17770000000E+01 0. -1.
         15    1    1    2    0    0 -0.17210142947E+01 -0.49823975276E+01 -0.43738676723E+02  0.44090993931E+02  0.17770000000E+01 0. -1.
</event>
<event>
 6    1  0.8353910E-003  0.1826039E+03  0.7546771E-02  0.1068372E+00
        -11   -1    0    0    0    0  0.00000000000E+00  0.00000000000E+00  0.18250000000E+03  0.18250000000E+03  0.00000000000E+00 0.  1.
         11   -1    0    0    0    0 -0.00000000000E+00 -0.00000000000E+00 -0.18250000000E+03  0.18250000000E+03  0.00000000000E+00 0. -1.
        -11    1    1    2    0    0  0.12387000439E+01  0.33490799390E+00  0.73554150921E+02  0.73565342784E+02  0.00000000000E+00 0.  1.
         11    1    1    2    0    0 -0.17333969030E+01  0.21510680694E+01 -0.18237519330E+03  0.18239611533E+03  0.00000000000E+00 0. -1.
        -15    1    1    2    0    0  0.10296609043E+01 -0.17050875069E+01  0.97716429097E+02  0.97752881131E+02  0.17770000000E+01 0.  1.
         15    1    1    2    0    0 -0.53496404515E+00 -0.78088855642E+00  0.11104613280E+02  0.11285660750E+02  0.17770000000E+01 0. -1.
</event>
<event>
 6    1  0.1226066E-002  0.1635245E+03  0.7546771E-02  0.1084650E+00
        -11   -1    0    0    0    0  0.00000000000E+00  0.00000000000E+00  0.18250000000E+03  0.18250000000E+03  0.00000000000E+00 0. -1.
         11   -1    0    0    0    0 -0.00000000000E+00 -0.00000000000E+00 -0.18250000000E+03  0.18250000000E+03  0.00000000000E+00 0. -1.
        -11    1    1    2    0    0  0.42133234511E+00  0.23325782223E+01  0.16270849187E+03  0.16272575632E+03  0.00000000000E+00 0. -1.
         11    1    1    2    0    0  0.27404868982E+01 -0.40433254617E+00 -0.16432484335E+03  0.16434819103E+03  0.00000000000E+00 0. -1.
        -15    1    1    2    0    0 -0.27330127973E+01  0.22517654030E+01 -0.17669332822E+02  0.18108088186E+02  0.17770000000E+01 0.  1.
         15    1    1    2    0    0 -0.42880644607E+00 -0.41800110790E+01  0.19285684301E+02  0.19817964465E+02  0.17770000000E+01 0.  1.
</event>
<event>
 6    1  0.8353910E-003  0.1959106E+03  0.7546771E-02  0.1058254E+00
        -11   -1    0    0    0    0  0.00000000000E+00  0.00000000000E+00  0.18250000000E+03  0.18250000000E+03  0.00000000000E+00 0. -1.
         11   -1    0    0    0    0 -0.00000000000E+00 -0.00000000000E+00 -0.18250000000E+03  0.18250000000E+03  0.00000000000E+00 0. -1.
        -11    1    1    2    0    0 -0.26989478054E+01 -0.22132581799E+01  0.16905339526E+03  0.16908942392E+03  0.00000000000E+00 0. -1.
         11    1    1    2    0    0 -0.35336132992E+01 -0.34697148472E+01 -0.14708410290E+03  0.14716745112E+03  0.00000000000E+00 0. -1.
        -15    1    1    2    0    0  0.21044185365E+01  0.70190864441E+01  0.12151980403E+02  0.14301206544E+02  0.17770000000E+01 0.  1.
         15    1    1    2    0    0  0.41281425681E+01 -0.13361134171E+01 -0.34121272764E+02  0.34441918416E+02  0.17770000000E+01 0. -1.
</event>
<event>
 6    1  0.8353910E-003  0.1990165E+03  0.7546771E-02  0.1056018E+00
        -11   -1    0    0    0    0  0.00000000000E+00  0.00000000000E+00  0.18250000000E+03  0.18250000000E+03  0.00000000000E+00 0.  1.
         11   -1    0    0    0    0 -0.00000000000E+00 -0.00000000000E+00 -0.18250000000E+03  0.18250000000E+03  0.00000000000E+00 0.  1.
        -11    1    1    2    0    0  0.52923769567E+01  0.46968569885E+00  0.16589842953E+03  0.16598348948E+03  0.00000000000E+00 0.  1.
         11    1    1    2    0    0  0.28073676334E+01 -0.11498870743E+01 -0.15349556782E+03  0.15352554476E+03  0.00000000000E+00 0.  1.
        -15    1    1    2    0    0 -0.45434737751E+00 -0.21003365567E+01  0.15820723061E+02  0.16064583791E+02  0.17770000000E+01 0. -1.
         15    1    1    2    0    0 -0.76453972125E+01  0.27805379322E+01 -0.28223584775E+02  0.29426381977E+02  0.17770000000E+01 0.  1.
</event>
<event>
 6    1  0.8353910E-003  0.1839127E+03  0.7546771E-02  0.1067336E+00
        -11   -1    0    0    0    0  0.00000000000E+00  0.00000000000E+00  0.18250000000E+03  0.18250000000E+03  0.00000000000E+00 0.  1.
         11   -1    0    0    0    0 -0.00000000000E+00 -0.00000000000E+00 -0.18250000000E+03  0.18250000000E+03  0.00000000000E+00 0.  1.
        -11    1    1    2    0    0  0.42201305566E+01 -0.22955546018E+01  0.18102360070E+03  0.18108733552E+03  0.00000000000E+00 0.  1.
         11    1    1    2    0    0  0.25446828678E+00 -0.49268469567E+01 -0.14659103535E+03  0.14667402708E+03  0.00000000000E+00 0.  1.
        -15    1    1    2    0    0  0.71356112404E+00 -0.21483873476E+01 -0.40038508533E+01  0.49308506699E+01  0.17770000000E+01 0.  1.
         15    1    1    2    0    0 -0.51881599674E+01  0.93707889062E+01 -0.30428714499E+02  0.32307786733E+02  0.17770000000E+01 0.  1.
</event>
<event>
 6    1  0.8353910E-003  0.1826588E+03  0.7546771E-02  0.1068328E+00
        -11   -1    0    0    0    0  0.00000000000E+00  0.00000000000E+00  0.18250000000E+03  0.18250000000E+03  0.00000000000E+00 0. -1.
         11   -1    0    0    0    0 -0.00000000000E+00 -0.00000000000E+00 -0.18250000000E+03  0.18250000000E+03  0.00000000000E+00 0. -1.
        -11    1    1    2    0    0 -0.30599216673E+01  0.57560758649E+00  0.18231459542E+03  0.18234118061E+03  0.00000000000E+00 0. -1.
         11    1    1    2    0    0  0.14697566423E+01  0.81897980081E+00 -0.10347743104E+03  0.10349110903E+03  0.00000000000E+00 0. -1.
        -15    1    1    2    0    0 -0.74219307257E-01 -0.32098279409E+01 -0.57312301146E+02  0.57429662158E+02  0.17770000000E+01 0. -1.
         15    1    1    2    0    0  0.16643843323E+01  0.18152405536E+01 -0.21524863232E+02  0.21738048202E+02  0.17770000000E+01 0.  1.
</event>
<event>
 6    1  0.8353910E-003  0.1827875E+03  0.7546771E-02  0.1068226E+00
        -11   -1    0    0    0    0  0.00000000000E+00  0.00000000000E+00  0.18250000000E+03  0.18250000000E+03  0.00000000000E+00 0.  1.
         11   -1    0    0    0    0 -0.00000000000E+00 -0.00000000000E+00 -0.18250000000E+03  0.18250000000E+03  0.00000000000E+00 0.  1.
        -11    1    1    2    0    0 -0.31181476294E+01 -0.32551783537E+01  0.18215672303E+03  0.18221248798E+03  0.00000000000E+00 0.  1.
         11    1    1    2    0    0  0.23515810182E+01 -0.57177946187E+00 -0.10722875480E+02  0.10992584937E+02  0.00000000000E+00 0.  1.
        -15    1    1    2    0    0 -0.24804503336E+01 -0.16018135411E+01 -0.28095831667E+02  0.28306393740E+02  0.17770000000E+01 0. -1.
         15    1    1    2    0    0  0.32470169447E+01  0.54287713567E+01 -0.14333801588E+03  0.14348853335E+03  0.17770000000E+01 0.  1.
</event>
<event>
 6    1  0.8353910E-003  0.1831429E+03  0.7546771E-02  0.1067944E+00
        -11   -1    0    0    0    0  0.00000000000E+00  0.00000000000E+00  0.18250000000E+03  0.18250000000E+03  0.00000000000E+00 0. -1.
         11   -1    0    0    0    0 -0.00000000000E+00 -0.00000000000E+00 -0.18250000000E+03  0.18250000000E+03  0.00000000000E+00 0.  1.
        -11    1    1    2    0    0 -0.31782529929E+01  0.43457867984E+01  0.18177741718E+03  0.18185713225E+03  0.00000000000E+00 0. -1.
         11    1    1    2    0    0  0.24479118737E+01  0.14623556521E+01 -0.84036535775E+02  0.84084898178E+02  0.00000000000E+00 0.  1.
        -15    1    1    2    0    0 -0.56340285224E+01 -0.41357477812E+01 -0.25615979821E+02  0.26611704912E+02  0.17770000000E+01 0. -1.
         15    1    1    2    0    0  0.63643696416E+01 -0.16723946693E+01 -0.72124901585E+02  0.72446264655E+02  0.17770000000E+01 0.  1.
</event>
<event>
 6    1  0.8353910E-003  0.1842106E+03  0.7546771E-02  0.1067101E+00
        -11   -1    0    0    0    0  0.00000000000E+00  0.00000000000E+00  0.18250000000E+03  0.18250000000E+03  0.00000000000E+00 0. -1.
         11   -1    0    0    0    0 -0.00000000000E+00 -0.00000000000E+00 -0.18250000000E+03  0.18250000000E+03  0.00000000000E+00 0. -1.
        -11    1    1    2    0    0 -0.33996257462E+01  0.47605804893E+00  0.18075682069E+03  0.18078941427E+03  0.00000000000E+00 0. -1.
         11    1    1    2    0    0 -0.21968966702E+01 -0.14067082283E+01 -0.16919743374E+03  0.16921754273E+03  0.00000000000E+00 0. -1.
        -15    1    1    2    0    0  0.23267808043E+01  0.13411069875E+00 -0.10696483165E+02  0.11090733776E+02  0.17770000000E+01 0.  1.
         15    1    1    2    0    0  0.32697416121E+01  0.79653948059E+00 -0.86290378574E+00  0.39023092262E+01  0.17770000000E+01 0. -1.
</event>
<event>
 6    1  0.8353910E-003  0.1867089E+03  0.7546771E-02  0.1065153E+00
        -11   -1    0    0    0    0  0.00000000000E+00  0.00000000000E+00  0.18250000000E+03  0.18250000000E+03  0.00000000000E+00 0. -1.
         11   -1    0    0    0    0 -0.00000000000E+00 -0.00000000000E+00 -0.18250000000E+03  0.18250000000E+03  0.00000000000E+00 0.  1.
        -11    1    1    2    0    0 -0.47287817400E+01  0.16923708171E+00  0.94987668325E+02  0.95105452797E+02  0.00000000000E+00 0. -1.
         11    1    1    2    0    0  0.16144567488E+01  0.18362852952E+01 -0.17827432168E+03  0.17829108835E+03  0.00000000000E+00 0.  1.
        -15    1    1    2    0    0 -0.92476916104E+01 -0.58494481997E+01  0.48747514136E+01  0.12110193009E+02  0.17770000000E+01 0.  1.
         15    1    1    2    0    0  0.12362016602E+02  0.38439258228E+01  0.78411901940E+02  0.79493265847E+02  0.17770000000E+01 0. -1.
</event>
<event>
 6    1  0.8353910E-003  0.2010504E+03  0.7546771E-02  0.1054578E+00
        -11   -1    0    0    0    0  0.00000000000E+00  0.00000000000E+00  0.18250000000E+03  0.18250000000E+03  0.00000000000E+00 0. -1.
         11   -1    0    0    0    0 -0.00000000000E+00 -0.00000000000E+00 -0.18250000000E+03  0.18250000000E+03  0.00000000000E+00 0.  1.
        -11    1    1    2    0    0  0.15851982313E+02 -0.56188213538E+01  0.11902355558E+03  0.12020592032E+03  0.00000000000E+00 0. -1.
         11    1    1    2    0    0  0.50554087627E+01 -0.40116574168E+01 -0.16382255649E+03  0.16394962814E+03  0.00000000000E+00 0.  1.
        -15    1    1    2    0    0 -0.15225504419E+02  0.11104129968E+02  0.60815966762E+02  0.63693463003E+02  0.17770000000E+01 0.  1.
         15    1    1    2    0    0 -0.56818866568E+01 -0.14736511973E+01 -0.16016965849E+02  0.17150988538E+02  0.17770000000E+01 0. -1.
</event>
<event>
 6    1  0.8353910E-003  0.1844296E+03  0.7546771E-02  0.1066929E+00
        -11   -1    0    0    0    0  0.00000000000E+00  0.00000000000E+00  0.18250000000E+03  0.18250000000E+03  0.00000000000E+00 0. -1.
         11   -1    0    0    0    0 -0.00000000000E+00 -0.00000000000E+00 -0.18250000000E+03  0.18250000000E+03  0.00000000000E+00 0. -1.
        -11    1    1    2    0    0  0.26266448730E+01  0.12881490875E+00  0.16157863489E+03  0.16160003437E+03  0.00000000000E+00 0. -1.
         11    1    1    2    0    0  0.30366607651E+01  0.51376551523E+00 -0.18054417749E+03  0.18057044412E+03  0.00000000000E+00 0. -1.
        -15    1    1    2    0    0 -0.39099373704E+01 -0.60912454532E+00  0.19743570340E+02  0.20214473570E+02  0.17770000000E+01 0.  1.
         15    1    1    2    0    0 -0.17533682676E+01 -0.33455878668E-01 -0.77802773408E+00  0.26150479408E+01  0.17770000000E+01 0.  1.
</event>
<event>
 6    1  0.8353910E-003  0.1755497E+03  0.7546771E-02  0.1074126E+00
        -11   -1    0    0    0    0  0.00000000000E+00  0.00000000000E+00  0.18250000000E+03  0.18250000000E+03  0.00000000000E+00 0.  1.
         11   -1    0    0    0    0 -0.00000000000E+00 -0.00000000000E+00 -0.18250000000E+03  0.18250000000E+03  0.00000000000E+00 0. -1.
        -11    1    1    2    0    0 -0.20006855895E+01 -0.74179949181E+01  0.18161990431E+03  0.18178233971E+03  0.00000000000E+00 0.  1.
         11    1    1    2    0    0  0.32983979158E+01  0.17083080104E+01 -0.14090076539E+02  0.14571479058E+02  0.00000000000E+00 0. -1.
        -15    1    1    2    0    0  0.42211643430E+01  0.10361149573E+02 -0.79493921908E+02  0.80297029822E+02  0.17770000000E+01 0.  1.
         15    1    1    2    0    0 -0.55188766694E+01 -0.46514626651E+01 -0.88035905860E+02  0.88349151406E+02  0.17770000000E+01 0. -1.
</event>
<event>
 6    1  0.8353910E-003  0.1825518E+03  0.7546771E-02  0.1068414E+00
        -11   -1    0    0    0    0  0.00000000000E+00  0.00000000000E+00  0.18250000000E+03  0.18250000000E+03  0.00000000000E+00 0. -1.
         11   -1    0    0    0    0 -0.00000000000E+00 -0.00000000000E+00 -0.18250000000E+03  0.18250000000E+03  0.00000000000E+00 0.  1.
        -11    1    1    2    0    0 -0.68592204749E+00  0.48224380699E+01  0.18238315742E+03  0.18244819130E+03  0.00000000000E+00 0. -1.
         11    1    1    2    0    0  0.11675967108E+01 -0.25628831949E+01 -0.64401372872E+02  0.64462923298E+02  0.00000000000E+00 0.  1.
        -15    1    1    2    0    0 -0.49268180911E+00  0.17431185533E+00 -0.31322601598E+02  0.31377320151E+02  0.17770000000E+01 0.  1.
         15    1    1    2    0    0  0.11007145801E-01 -0.24338667304E+01 -0.86659182954E+02  0.86711565247E+02  0.17770000000E+01 0.  1.
</event>
<event>
 6    1  0.8353910E-003  0.1743200E+03  0.7546771E-02  0.1075159E+00
        -11   -1    0    0    0    0  0.00000000000E+00  0.00000000000E+00  0.18250000000E+03  0.18250000000E+03  0.00000000000E+00 0. -1.
         11   -1    0    0    0    0 -0.00000000000E+00 -0.00000000000E+00 -0.18250000000E+03  0.18250000000E+03  0.00000000000E+00 0. -1.
        -11    1    1    2    0    0 -0.25990909472E+01 -0.73300807321E+00  0.17360762382E+03  0.17362862559E+03  0.00000000000E+00 0. -1.
         11    1    1    2    0    0 -0.70284171192E+01 -0.52712872519E+01 -0.17497828010E+03  0.17519869755E+03  0.00000000000E+00 0. -1.
        -15    1    1    2    0    0 -0.16001966511E+01  0.37157214070E+01  0.11883072585E+01  0.45756986392E+01  0.17770000000E+01 0. -1.
         15    1    1    2    0    0  0.11227704717E+02  0.22885739181E+01  0.18234902098E+00  0.11596978226E+02  0.17770000000E+01 0.  1.
</event>
<event>
 6    1  0.8353910E-003  0.1840394E+03  0.7546771E-02  0.1067236E+00
        -11   -1    0    0    0    0  0.00000000000E+00  0.00000000000E+00  0.18250000000E+03  0.18250000000E+03  0.00000000000E+00 0.  1.
         11   -1    0    0    0    0 -0.00000000000E+00 -0.00000000000E+00 -0.18250000000E+03  0.18250000000E+03  0.00000000000E+00 0. -1.
        -11    1    1    2    0    0 -0.13088700803E+01 -0.36513660762E+01  0.18091900475E+03  0.18096058105E+03  0.00000000000E+00 0.  1.
         11    1    1    2    0    0  0.34009635009E+01 -0.78254930001E+01 -0.11600440272E+03  0.11631778172E+03  0.00000000000E+00 0. -1.
        -15    1    1    2    0    0  0.49078318742E+01 -0.28304443879E+00 -0.13200618828E+02  0.14197922183E+02  0.17770000000E+01 0.  1.
         15    1    1    2    0    0 -0.69999252949E+01  0.11759903515E+02 -0.51713983204E+02  0.53523715049E+02  0.17770000000E+01 0. -1.
</event>
<event>
 6    1  0.8353910E-003  0.1868210E+03  0.7546771E-02  0.1065066E+00
        -11   -1    0    0    0    0  0.00000000000E+00  0.00000000000E+00  0.18250000000E+03  0.18250000000E+03  0.00000000000E+00 0. -1.
         11   -1    0    0    0    0 -0.00000000000E+00 -0.00000000000E+00 -0.18250000000E+03  0.18250000000E+03  0.00000000000E+00 0. -1.
        -11    1    1    2    0    0 -0.23929833601E+01 -0.32446510927E+01  0.17813334288E+03  0.17817896053E+03  0.00000000000E+00 0. -1.
         11    1    1    2    0    0  0.20215415802E+01  0.29934423397E-01 -0.99017143834E+02  0.99037782182E+02  0.00000000000E+00 0. -1.
        -15    1    1    2    0    0  0.10570297038E+02 -0.19217329321E+01 -0.37213664783E+01  0.11507846644E+02  0.17770000000E+01 0.  1.
         15    1    1    2    0    0 -0.10198855258E+02  0.51364496014E+01 -0.75394832564E+02  0.76275410647E+02  0.17770000000E+01 0. -1.
</event>
<event>
 6    1  0.8353910E-003  0.1765404E+03  0.7546771E-02  0.1073300E+00
        -11   -1    0    0    0    0  0.00000000000E+00  0.00000000000E+00  0.18250000000E+03  0.18250000000E+03  0.00000000000E+00 0.  1.
         11   -1    0    0    0    0 -0.00000000000E+00 -0.00000000000E+00 -0.18250000000E+03  0.18250000000E+03  0.00000000000E+00 0. -1.
        -11    1    1    2    0    0  0.32721335189E+01  0.21788742739E+00  0.17731485315E+03  0.17734517609E+03  0.00000000000E+00 0.  1.
         11    1    1    2    0    0  0.20981473569E+01  0.46835997461E+01 -0.17573911947E+03  0.17581403937E+03  0.00000000000E+00 0. -1.
        -15    1    1    2    0    0 -0.97570037004E+00 -0.23640243107E+01  0.33321997483E+01  0.45609084968E+01  0.17770000000E+01 0. -1.
         15    1    1    2    0    0 -0.43945805058E+01 -0.25374628628E+01 -0.49079334367E+01  0.72798760443E+01  0.17770000000E+01 0.  1.
</event>
<event>
 6    1  0.8353910E-003  0.1915060E+03  0.7546771E-02  0.1061504E+00
        -11   -1    0    0    0    0  0.00000000000E+00  0.00000000000E+00  0.18250000000E+03  0.18250000000E+03  0.00000000000E+00 0. -1.
         11   -1    0    0    0    0 -0.00000000000E+00 -0.00000000000E+00 -0.18250000000E+03  0.18250000000E+03  0.00000000000E+00 0. -1.
        -11    1    1    2    0    0  0.13476241096E+01  0.19871440958E+01  0.17347736325E+03  0.17349397797E+03  0.00000000000E+00 0. -1.
         11    1    1    2    0    0 -0.36187253671E+01  0.88386988153E+01 -0.13673893370E+03  0.13707207506E+03  0.00000000000E+00 0. -1.
        -15    1    1    2    0    0  0.39820684144E+01 -0.63570122869E+01 -0.44489852278E+02  0.45152775760E+02  0.17770000000E+01 0.  1.
         15    1    1    2    0    0 -0.17109671568E+01 -0.44688306242E+01  0.77514227320E+01  0.92811712154E+01  0.17770000000E+01 0.  1.
</event>
<event>
 6    1  0.8353910E-003  0.1861034E+03  0.7546771E-02  0.1065622E+00
        -11   -1    0    0    0    0  0.00000000000E+00  0.00000000000E+00  0.18250000000E+03  0.18250000000E+03  0.00000000000E+00 0.  1.
         11   -1    0    0    0    0 -0.00000000000E+00 -0.00000000000E+00 -0.18250000000E+03  0.18250000000E+03  0.00000000000E+00 0.  1.
        -11    1    1    2    0    0  0.23562011870E+01 -0.56845554115E+01  0.14760776160E+03  0.14773597104E+03  0.00000000000E+00 0.  1.
         11    1    1    2    0    0 -0.68826514609E+01  0.61563624215E+01 -0.17865809411E+03  0.17889657985E+03  0.00000000000E+00 0.  1.
        -15    1    1    2    0    0  0.32742501775E+01  0.10115345036E+02  0.21017103770E+02  0.23620273058E+02  0.17770000000E+01 0.  1.
         15    1    1    2    0    0  0.12522000963E+01 -0.10587152046E+02  0.10033228743E+02  0.14747176053E+02  0.17770000000E+01 0. -1.
</event>
<event>
 6    1  0.8353910E-003  0.1854939E+03  0.7546771E-02  0.1066096E+00
        -11   -1    0    0    0    0  0.00000000000E+00  0.00000000000E+00  0.18250000000E+03  0.18250000000E+03  0.00000000000E+00 0. -1.
         11   -1    0    0    0    0 -0.00000000000E+00 -0.00000000000E+00 -0.18250000000E+03  0.18250000000E+03  0.00000000000E+00 0.  1.
        -11    1    1    2    0    0  0.26755256324E+01 -0.46673533054E+01  0.15665738948E+03  0.15674973781E+03  0.00000000000E+00 0. -1.
         11    1    1    2    0    0  0.96414891838E+00  0.55229292391E+01 -0.17941852265E+03  0.17950609628E+03  0.00000000000E+00 0.  1.
        -15    1    1    2    0    0  0.46960600424E+01 -0.40839692004E+00  0.18559886934E+02  0.19231404004E+02  0.17770000000E+01 0. -1.
         15    1    1    2    0    0 -0.83357345932E+01 -0.44717901366E+00  0.42012462372E+01  0.95127619136E+01  0.17770000000E+01 0.  1.
</event>
<event>
 6    1  0.8353910E-003  0.1826468E+03  0.7546771E-02  0.1068338E+00
        -11   -1    0    0    0    0  0.00000000000E+00  0.00000000000E+00  0.18250000000E+03  0.18250000000E+03  0.00000000000E+00 0. -1.
         11   -1    0    0    0    0 -0.00000000000E+00 -0.00000000000E+00 -0.18250000000E+03  0.18250000000E+03  0.00000000000E+00 0. -1.
        -11    1    1    2    0    0  0.27007201257E+01 -0.14581089897E+01  0.18232732243E+03  0.18235315319E+03  0.00000000000E+00 0. -1.
         11    1    1    2    0    0 -0.14982692787E+01  0.28016944776E+01 -0.91977207778E+02  0.92032065354E+02  0.00000000000E+00 0. -1.
        -15    1    1    2    0    0 -0.23504960535E+01 -0.28055669423E+01 -0.42086928167E+02  0.42283132442E+02  0.17770000000E+01 0. -1.
         15    1    1    2    0    0  0.11480452064E+01  0.14619814545E+01 -0.48263186490E+02  0.48331649017E+02  0.17770000000E+01 0.  1.
</event>
<event>
 6    1  0.8353910E-003  0.1752965E+03  0.7546771E-02  0.1074338E+00
        -11   -1    0    0    0    0  0.00000000000E+00  0.00000000000E+00  0.18250000000E+03  0.18250000000E+03  0.00000000000E+00 0. -1.
         11   -1    0    0    0    0 -0.00000000000E+00 -0.00000000000E+00 -0.18250000000E+03  0.18250000000E+03  0.00000000000E+00 0. -1.
        -11    1    1    2    0    0 -0.15857309525E+01  0.29190074320E+01  0.17688901078E+03  0.17692020032E+03  0.00000000000E+00 0. -1.
         11    1    1    2    0    0 -0.36744245597E+01 -0.17456212813E+01 -0.17368123065E+03  0.17372886481E+03  0.00000000000E+00 0. -1.
        -15    1    1    2    0    0  0.44863006035E+01 -0.13185025019E+01 -0.78556044281E+01  0.93130871295E+01  0.17770000000E+01 0. -1.
         15    1    1    2    0    0  0.77385490872E+00  0.14511635119E+00  0.46478242917E+01  0.50378477371E+01  0.17770000000E+01 0.  1.
</event>
<event>
 6    1  0.8353910E-003  0.1831219E+03  0.7546771E-02  0.1067961E+00
        -11   -1    0    0    0    0  0.00000000000E+00  0.00000000000E+00  0.18250000000E+03  0.18250000000E+03  0.00000000000E+00 0.  1.
         11   -1    0    0    0    0 -0.00000000000E+00 -0.00000000000E+00 -0.18250000000E+03  0.18250000000E+03  0.00000000000E+00 0. -1.
        -11    1    1    2    0    0 -0.22543088500E+01 -0.26238318398E+00  0.15665000859E+03  0.15666644805E+03  0.00000000000E+00 0.  1.
         11    1    1    2    0    0 -0.86636759666E+00  0.28045427751E+01 -0.18185444736E+03  0.18187813524E+03  0.00000000000E+00 0. -1.
        -15    1    1    2    0    0 -0.16658873079E-01 -0.80708892905E+00  0.18818322771E+02  0.18919267189E+02  0.17770000000E+01 0.  1.
         15    1    1    2    0    0  0.31373353198E+01 -0.17350706621E+01  0.63861159990E+01  0.75361495251E+01  0.17770000000E+01 0. -1.
</event>
<event>
 6    1  0.8353910E-003  0.1874543E+03  0.7546771E-02  0.1064578E+00
        -11   -1    0    0    0    0  0.00000000000E+00  0.00000000000E+00  0.18250000000E+03  0.18250000000E+03  0.00000000000E+00 0. -1.
         11   -1    0    0    0    0 -0.00000000000E+00 -0.00000000000E+00 -0.18250000000E+03  0.18250000000E+03  0.00000000000E+00 0.  1.
        -11    1    1    2    0    0 -0.24036114696E+01  0.50284964332E+01  0.10124234524E+03  0.10139563893E+03  0.00000000000E+00 0. -1.
         11    1    1    2    0    0  0.71523610217E+01  0.34832345091E+01 -0.17736740400E+03  0.17754572705E+03  0.00000000000E+00 0.  1.
        -15    1    1    2    0    0 -0.98489479749E+01 -0.13262799756E+02  0.96879392652E+01  0.19233240231E+02  0.17770000000E+01 0.  1.
         15    1    1    2    0    0  0.51001984228E+01  0.47510688137E+01  0.66437119497E+02  0.66825393788E+02  0.17770000000E+01 0.  1.
</event>
<event>
 6    1  0.8353910E-003  0.1850847E+03  0.7546771E-02  0.1066416E+00
        -11   -1    0    0    0    0  0.00000000000E+00  0.00000000000E+00  0.18250000000E+03  0.18250000000E+03  0.00000000000E+00 0. -1.
         11   -1    0    0    0    0 -0.00000000000E+00 -0.00000000000E+00 -0.18250000000E+03  0.18250000000E+03  0.00000000000E+00 0.  1.
        -11    1    1    2    0    0 -0.15639733176E+02 -0.12028540393E+02  0.12488725908E+03  0.12643620731E+03  0.00000000000E+00 0. -1.
         11    1    1    2    0    0  0.18294561053E+01  0.16125681789E+01 -0.17989872148E+03  0.17991525026E+03  0.00000000000E+00 0.  1.
        -15    1    1    2    0    0  0.43628814506E+01 -0.15714971944E+01  0.13480223482E+02  0.14365879440E+02  0.17770000000E+01 0.  1.
         15    1    1    2    0    0  0.94473956205E+01  0.11987469409E+02  0.41531238916E+02  0.44282662993E+02  0.17770000000E+01 0. -1.
</event>
<event>
 6    1  0.8353910E-003  0.1848302E+03  0.7546771E-02  0.1066615E+00
        -11   -1    0    0    0    0  0.00000000000E+00  0.00000000000E+00  0.18250000000E+03  0.18250000000E+03  0.00000000000E+00 0. -1.
         11   -1    0    0    0    0 -0.00000000000E+00 -0.00000000000E+00 -0.18250000000E+03  0.18250000000E+03  0.00000000000E+00 0. -1.
        -11    1    1    2    0    0 -0.25155062569E+01  0.15183923961E+01  0.18014587820E+03  0.18016983854E+03  0.00000000000E+00 0. -1.
         11    1    1    2    0    0  0.13888509653E+01 -0.21929912934E+01 -0.17292808946E+03  0.17294757079E+03  0.00000000000E+00 0. -1.
        -15    1    1    2    0    0  0.16307752326E+01 -0.38412985245E+01 -0.30506502250E+01  0.54661867887E+01  0.17770000000E+01 0. -1.
         15    1    1    2    0    0 -0.50411994099E+00  0.45158974219E+01 -0.41671385127E+01  0.64164038857E+01  0.17770000000E+01 0. -1.
</event>
<event>
 6    1  0.8353910E-003  0.1831257E+03  0.7546771E-02  0.1067958E+00
        -11   -1    0    0    0    0  0.00000000000E+00  0.00000000000E+00  0.18250000000E+03  0.18250000000E+03  0.00000000000E+00 0.  1.
         11   -1    0    0    0    0 -0.00000000000E+00 -0.00000000000E+00 -0.18250000000E+03  0.18250000000E+03  0.00000000000E+00 0.  1.
        -11    1    1    2    0    0  0.12048589645E+01 -0.21856729176E+01  0.18185722352E+03  0.18187434837E+03  0.00000000000E+00 0.  1.
         11    1    1    2    0    0 -0.25736777631E+01 -0.29299442447E+01 -0.15874830361E+03  0.15879619734E+03  0.00000000000E+00 0.  1.
        -15    1    1    2    0    0 -0.12063745877E+01  0.82957377799E+00 -0.70768930336E+01  0.74420209827E+01  0.17770000000E+01 0.  1.
         15    1    1    2    0    0  0.25751933863E+01  0.42860433843E+01 -0.16032026873E+02  0.16887433302E+02  0.17770000000E+01 0. -1.
</event>
<event>
 6    1  0.8353910E-003  0.1837448E+03  0.7546771E-02  0.1067468E+00
        -11   -1    0    0    0    0  0.00000000000E+00  0.00000000000E+00  0.18250000000E+03  0.18250000000E+03  0.00000000000E+00 0.  1.
         11   -1    0    0    0    0 -0.00000000000E+00 -0.00000000000E+00 -0.18250000000E+03  0.18250000000E+03  0.00000000000E+00 0.  1.
        -11    1    1    2    0    0 -0.44991264616E+01 -0.13332211077E+02  0.18070816272E+03  0.18125515183E+03  0.00000000000E+00 0.  1.
         11    1    1    2    0    0 -0.80967517152E+00 -0.49485135696E+00 -0.14141950306E+02  0.14173750746E+02  0.00000000000E+00 0.  1.
        -15    1    1    2    0    0  0.33051061710E+01  0.90701787791E+01 -0.15121414866E+02  0.18027944599E+02  0.17770000000E+01 0. -1.
         15    1    1    2    0    0  0.20036954621E+01  0.47568836547E+01 -0.15144479754E+03  0.15154315283E+03  0.17770000000E+01 0.  1.
</event>
<event>
 6    1  0.8353910E-003  0.1836571E+03  0.7546771E-02  0.1067538E+00
        -11   -1    0    0    0    0  0.00000000000E+00  0.00000000000E+00  0.18250000000E+03  0.18250000000E+03  0.00000000000E+00 0. -1.
         11   -1    0    0    0    0 -0.00000000000E+00 -0.00000000000E+00 -0.18250000000E+03  0.18250000000E+03  0.00000000000E+00 0. -1.
        -11    1    1    2    0    0 -0.68313815483E+00  0.57744081003E+01  0.18124968982E+03  0.18134293625E+03  0.00000000000E+00 0. -1.
         11    1    1    2    0    0  0.14895598270E+01 -0.36140457296E+01 -0.13926807406E+03  0.13932292190E+03  0.00000000000E+00 0. -1.
        -15    1    1    2    0    0 -0.77547623047E+00 -0.34110771616E+01 -0.22099742458E+01  0.45031684350E+01  0.17770000000E+01 0.  1.
         15    1    1    2    0    0 -0.30945441667E-01  0.12507147909E+01 -0.39771641517E+02  0.39830973413E+02  0.17770000000E+01 0. -1.
</event>
<event>
 6    1  0.8353910E-003  0.1831686E+03  0.7546771E-02  0.1067924E+00
        -11   -1    0    0    0    0  0.00000000000E+00  0.00000000000E+00  0.18250000000E+03  0.18250000000E+03  0.00000000000E+00 0.  1.
         11   -1    0    0    0    0 -0.00000000000E+00 -0.00000000000E+00 -0.18250000000E+03  0.18250000000E+03  0.00000000000E+00 0. -1.
        -11    1    1    2    0    0  0.32976076831E+01 -0.13383908783E+01  0.18179654348E+03  0.18183137443E+03  0.00000000000E+00 0.  1.
         11    1    1    2    0    0  0.18004712933E+01  0.24885580372E+01 -0.15133797719E+03  0.15136914467E+03  0.00000000000E+00 0. -1.
        -15    1    1    2    0    0 -0.24932581719E+01 -0.15554007891E+01 -0.45702371680E+01  0.57166777676E+01  0.17770000000E+01 0.  1.
         15    1    1    2    0    0 -0.26048208045E+01  0.40523363019E+00 -0.25888329116E+02  0.26082803130E+02  0.17770000000E+01 0. -1.
</event>
<event>
 6    1  0.8353910E-003  0.1908544E+03  0.7546771E-02  0.1061993E+00
        -11   -1    0    0    0    0  0.00000000000E+00  0.00000000000E+00  0.18250000000E+03  0.18250000000E+03  0.00000000000E+00 0.  1.
         11   -1    0    0    0    0 -0.00000000000E+00 -0.00000000000E+00 -0.18250000000E+03  0.18250000000E+03  0.00000000000E+00 0.  1.
        -11    1    1    2    0    0 -0.16640566258E+01 -0.94365311618E+01  0.12174680736E+03  0.12212330780E+03  0.00000000000E+00 0.  1.
         11    1    1    2    0    0 -0.95658713371E+01  0.47887409813E+00 -0.17388198594E+03  0.17414557201E+03  0.00000000000E+00 0.  1.
        -15    1    1    2    0    0  0.15328770323E+02  0.10043218042E+02  0.58244413976E+02  0.61085243035E+02  0.17770000000E+01 0.  1.
         15    1    1    2    0    0 -0.40988423598E+01 -0.10855609783E+01 -0.61092354013E+01  0.76458771581E+01  0.17770000000E+01 0. -1.
</event>
<event>
 6    1  0.8353910E-003  0.1882512E+03  0.7546771E-02  0.1063967E+00
        -11   -1    0    0    0    0  0.00000000000E+00  0.00000000000E+00  0.18250000000E+03  0.18250000000E+03  0.00000000000E+00 0. -1.
         11   -1    0    0    0    0 -0.00000000000E+00 -0.00000000000E+00 -0.18250000000E+03  0.18250000000E+03  0.00000000000E+00 0.  1.
        -11    1    1    2    0    0  0.10807373684E+02  0.32456084904E+00  0.81071680426E+02  0.81789498304E+02  0.00000000000E+00 0. -1.
         11    1    1    2    0    0  0.72661044156E+01  0.60287581756E+00 -0.17659832941E+03  0.17674877562E+03  0.00000000000E+00 0.  1.
        -15    1    1    2    0    0 -0.41422951800E+01 -0.15385982155E+01  0.91793698379E+02  0.91917172960E+02  0.17770000000E+01 0. -1.
         15    1    1    2    0    0 -0.13931182920E+02  0.61116154889E+00  0.37329506089E+01  0.14544553112E+02  0.17770000000E+01 0. -1.
</event>
<event>
 6    1  0.8353910E-003  0.1837036E+03  0.7546771E-02  0.1067501E+00
        -11   -1    0    0    0    0  0.00000000000E+00  0.00000000000E+00  0.18250000000E+03  0.18250000000E+03  0.00000000000E+00 0. -1.
         11   -1    0    0    0    0 -0.00000000000E+00 -0.00000000000E+00 -0.18250000000E+03  0.18250000000E+03  0.00000000000E+00 0. -1.
        -11    1    1    2    0    0 -0.34628896651E+00 -0.24454235049E+01  0.16474888915E+03  0.16476740117E+03  0.00000000000E+00 0. -1.
         11    1    1    2    0    0 -0.30706015420E+01 -0.16146410499E+00 -0.18127035252E+03  0.18129642955E+03  0.00000000000E+00 0. -1.
        -15    1    1    2    0    0 -0.22463262319E+01  0.76129141844E+00  0.42643374371E+01  0.51930577641E+01  0.17770000000E+01 0.  1.
         15    1    1    2    0    0  0.56632167404E+01  0.18455961915E+01  0.12257125933E+02  0.13743111521E+02  0.17770000000E+01 0.  1.
</event>
<event>
 6    1  0.8353910E-003  0.1834605E+03  0.7546771E-02  0.1067693E+00
        -11   -1    0    0    0    0  0.00000000000E+00  0.00000000000E+00  0.18250000000E+03  0.18250000000E+03  0.00000000000E+00 0.  1.
         11   -1    0    0    0    0 -0.00000000000E+00 -0.00000000000E+00 -0.18250000000E+03  0.18250000000E+03  0.00000000000E+00 0. -1.
        -11    1    1    2    0    0 -0.15440214307E+02  0.90166385633E+01  0.18065686487E+03  0.18153953513E+03  0.00000000000E+00 0.  1.
         11    1    1    2    0    0  0.11052570433E+02 -0.28147961029E+01 -0.12331778594E+03  0.12384409037E+03  0.00000000000E+00 0. -1.
        -15    1    1    2    0    0  0.83291199329E+01 -0.76874548459E+01 -0.35647415000E+02  0.37448192561E+02  0.17770000000E+01 0.  1.
         15    1    1    2    0    0 -0.39414760594E+01  0.14856123856E+01 -0.21691663926E+02  0.22168181941E+02  0.17770000000E+01 0. -1.
</event>
<event>
 6    1  0.8353910E-003  0.1832546E+03  0.7546771E-02  0.1067856E+00
        -11   -1    0    0    0    0  0.00000000000E+00  0.00000000000E+00  0.18250000000E+03  0.18250000000E+03  0.00000000000E+00 0.  1.
         11   -1    0    0    0    0 -0.00000000000E+00 -0.00000000000E+00 -0.18250000000E+03  0.18250000000E+03  0.00000000000E+00 0.  1.
        -11    1    1    2    0    0 -0.38143768966E+01 -0.19404302800E+01  0.13175210075E+03  0.13182158697E+03  0.00000000000E+00 0.  1.
         11    1    1    2    0    0 -0.24777683651E+01 -0.14040368671E+00 -0.18172849759E+03  0.18174544254E+03  0.00000000000E+00 0.  1.
        -15    1    1    2    0    0 -0.75541347227E+00  0.26959060170E+01  0.59966132280E+01  0.68524198625E+01  0.17770000000E+01 0. -1.
         15    1    1    2    0    0  0.70475587340E+01 -0.61507205022E+00  0.43979783616E+02  0.44580550620E+02  0.17770000000E+01 0.  1.
</event>
<event>
 6    1  0.8353910E-003  0.1949508E+03  0.7546771E-02  0.1058954E+00
        -11   -1    0    0    0    0  0.00000000000E+00  0.00000000000E+00  0.18250000000E+03  0.18250000000E+03  0.00000000000E+00 0. -1.
         11   -1    0    0    0    0 -0.00000000000E+00 -0.00000000000E+00 -0.18250000000E+03  0.18250000000E+03  0.00000000000E+00 0.  1.
        -11    1    1    2    0    0 -0.82977971213E+00  0.47823254299E+01  0.16241379796E+03  0.16248631000E+03  0.00000000000E+00 0. -1.
         11    1    1    2    0    0  0.10181224015E+01  0.26560017179E+01 -0.17002539433E+03  0.17004918593E+03  0.00000000000E+00 0.  1.
        -15    1    1    2    0    0  0.71151741343E+01 -0.33263945345E+00  0.16986249232E+02  0.18504776247E+02  0.17770000000E+01 0. -1.
         15    1    1    2    0    0 -0.73035168236E+01 -0.71056876943E+01 -0.93746528563E+01  0.13959727819E+02  0.17770000000E+01 0.  1.
</event>
<event>
 6    1  0.8353910E-003  0.1845190E+03  0.7546771E-02  0.1066859E+00
        -11   -1    0    0    0    0  0.00000000000E+00  0.00000000000E+00  0.18250000000E+03  0.18250000000E+03  0.00000000000E+00 0. -1.
         11   -1    0    0    0    0 -0.00000000000E+00 -0.00000000000E+00 -0.18250000000E+03  0.18250000000E+03  0.00000000000E+00 0. -1.
        -11    1    1    2    0    0 -0.84989718845E+01  0.14233821768E+01  0.18027512713E+03  0.18048096853E+03  0.00000000000E+00 0. -1.
         11    1    1    2    0    0 -0.10600420936E+01 -0.12524165650E+02 -0.10250247598E+03  0.10327020866E+03  0.00000000000E+00 0. -1.
        -15    1    1    2    0    0  0.42479528761E+01  0.16489556997E+01 -0.31407136823E+01  0.58125699971E+01  0.17770000000E+01 0. -1.
         15    1    1    2    0    0  0.53110611020E+01  0.94518277731E+01 -0.74631937466E+02  0.75436252805E+02  0.17770000000E+01 0.  1.
</event>
<event>
 6    1  0.8353910E-003  0.1864403E+03  0.7546771E-02  0.1065361E+00
        -11   -1    0    0    0    0  0.00000000000E+00  0.00000000000E+00  0.18250000000E+03  0.18250000000E+03  0.00000000000E+00 0.  1.
         11   -1    0    0    0    0 -0.00000000000E+00 -0.00000000000E+00 -0.18250000000E+03  0.18250000000E+03  0.00000000000E+00 0. -1.
        -11    1    1    2    0    0  0.29028717630E+01  0.42909948208E+00  0.14396093841E+03  0.14399084200E+03  0.00000000000E+00 0.  1.
         11    1    1    2    0    0  0.18097657488E+02  0.36419909752E+01 -0.17760285015E+03  0.17855968662E+03  0.00000000000E+00 0. -1.
        -15    1    1    2    0    0 -0.19028680253E+02 -0.54697950991E+01  0.18983336711E+02  0.27486981141E+02  0.17770000000E+01 0.  1.
         15    1    1    2    0    0 -0.19718489980E+01  0.13987046417E+01  0.14658575029E+02  0.14962490235E+02  0.17770000000E+01 0. -1.
</event>
<event>
 6    1  0.8353910E-003  0.1828537E+03  0.7546771E-02  0.1068174E+00
        -11   -1    0    0    0    0  0.00000000000E+00  0.00000000000E+00  0.18250000000E+03  0.18250000000E+03  0.00000000000E+00 0. -1.
         11   -1    0    0    0    0 -0.00000000000E+00 -0.00000000000E+00 -0.18250000000E+03  0.18250000000E+03  0.00000000000E+00 0. -1.
        -11    1    1    2    0    0 -0.34149607720E+01 -0.61461011894E+00  0.12878031884E+03  0.12882705548E+03  0.00000000000E+00 0. -1.
         11    1    1    2    0    0  0.22197050319E+01 -0.46053454664E+01 -0.18207457189E+03  0.18214633136E+03  0.00000000000E+00 0. -1.
        -15    1    1    2    0    0 -0.46300806336E+00  0.25338764530E+01  0.80388215721E+01  0.86264295982E+01  0.17770000000E+01 0.  1.
         15    1    1    2    0    0  0.16582638035E+01  0.26860791323E+01  0.45255431482E+02  0.45400183564E+02  0.17770000000E+01 0. -1.
</event>
<event>
 6    1  0.8353910E-003  0.1826851E+03  0.7546771E-02  0.1068308E+00
        -11   -1    0    0    0    0  0.00000000000E+00  0.00000000000E+00  0.18250000000E+03  0.18250000000E+03  0.00000000000E+00 0. -1.
         11   -1    0    0    0    0 -0.00000000000E+00 -0.00000000000E+00 -0.18250000000E+03  0.18250000000E+03  0.00000000000E+00 0. -1.
        -11    1    1    2    0    0 -0.24726068016E+01 -0.10909896479E+00  0.18229806313E+03  0.18231486365E+03  0.00000000000E+00 0. -1.
         11    1    1    2    0    0 -0.11885425066E+01 -0.21322754213E+01 -0.13455766518E+03  0.13457980714E+03  0.00000000000E+00 0. -1.
        -15    1    1    2    0    0  0.19784297210E+01  0.76612132001E+00 -0.30951929956E+02  0.31075405436E+02  0.17770000000E+01 0.  1.
         15    1    1    2    0    0  0.16827195872E+01  0.14752530661E+01 -0.16788467998E+02  0.17029923768E+02  0.17770000000E+01 0. -1.
</event>
<event>
 6    1  0.8353910E-003  0.1850177E+03  0.7546771E-02  0.1066468E+00
        -11   -1    0    0    0    0  0.00000000000E+00  0.00000000000E+00  0.18250000000E+03  0.18250000000E+03  0.00000000000E+00 0. -1.
         11   -1    0    0    0    0 -0.00000000000E+00 -0.00000000000E+00 -0.18250000000E+03  0.18250000000E+03  0.00000000000E+00 0.  1.
        -11    1    1    2    0    0  0.28787388941E+01  0.14704955209E+01  0.12173490575E+03  0.12177781724E+03  0.00000000000E+00 0. -1.
         11    1    1    2    0    0  0.27701565720E+01  0.11017297917E+01 -0.17995755971E+03  0.17998225155E+03  0.00000000000E+00 0.  1.
        -15    1    1    2    0    0 -0.63017203366E+01  0.41043306418E+01  0.42425533702E+01  0.88155656266E+01  0.17770000000E+01 0. -1.
         15    1    1    2    0    0  0.65282487048E+00 -0.66765559543E+01  0.53980100592E+02  0.54424365579E+02  0.17770000000E+01 0.  1.
</event>
<event>
 6    1  0.8353910E-003  0.1864439E+03  0.7546771E-02  0.1065358E+00
        -11   -1    0    0    0    0  0.00000000000E+00  0.00000000000E+00  0.18250000000E+03  0.18250000000E+03  0.00000000000E+00 0. -1.
         11   -1    0    0    0    0 -0.00000000000E+00 -0.00000000000E+00 -0.18250000000E+03  0.18250000000E+03  0.00000000000E+00 0.  1.
        -11    1    1    2    0    0 -0.25582058281E+01 -0.23024375117E+01  0.17630052175E+03  0.17633411356E+03  0.00000000000E+00 0. -1.
         11    1    1    2    0    0  0.42892331668E+01  0.19493369426E+01 -0.17849398022E+03  0.17855614918E+03  0.00000000000E+00 0.  1.
        -15    1    1    2    0    0 -0.20878894210E+01  0.39304474022E+01  0.34525856714E+01  0.59064181900E+01  0.17770000000E+01 0.  1.
         15    1    1    2    0    0  0.35686208230E+00 -0.35773468332E+01 -0.12591272059E+01  0.42033190732E+01  0.17770000000E+01 0. -1.
</event>
<event>
 6    1  0.8353910E-003  0.1828552E+03  0.7546771E-02  0.1068172E+00
        -11   -1    0    0    0    0  0.00000000000E+00  0.00000000000E+00  0.18250000000E+03  0.18250000000E+03  0.00000000000E+00 0. -1.
         11   -1    0    0    0    0 -0.00000000000E+00 -0.00000000000E+00 -0.18250000000E+03  0.18250000000E+03  0.00000000000E+00 0. -1.
        -11    1    1    2    0    0  0.36608384493E+01 -0.37238633140E+01  0.18206994858E+03  0.18214481895E+03  0.00000000000E+00 0. -1.
         11    1    1    2    0    0 -0.37756373621E+01  0.43334521748E+01 -0.69355054581E+02  0.69592800211E+02  0.00000000000E+00 0. -1.
        -15    1    1    2    0    0 -0.24883230396E+01  0.24167166869E+01 -0.16725792981E+02  0.17173879903E+02  0.17770000000E+01 0.  1.
         15    1    1    2    0    0  0.26031219524E+01 -0.30263055477E+01 -0.95989101015E+02  0.96088500935E+02  0.17770000000E+01 0. -1.
</event>
<event>
 6    1  0.8353910E-003  0.1873133E+03  0.7546771E-02  0.1064687E+00
        -11   -1    0    0    0    0  0.00000000000E+00  0.00000000000E+00  0.18250000000E+03  0.18250000000E+03  0.00000000000E+00 0. -1.
         11   -1    0    0    0    0 -0.00000000000E+00 -0.00000000000E+00 -0.18250000000E+03  0.18250000000E+03  0.00000000000E+00 0.  1.
        -11    1    1    2    0    0 -0.22307359980E+01 -0.21944993187E+01  0.17765910483E+03  0.17768666112E+03  0.00000000000E+00 0. -1.
         11    1    1    2    0    0  0.40581561673E+01  0.23254914210E+01 -0.14556798752E+03  0.14564311014E+03  0.00000000000E+00 0.  1.
        -15    1    1    2    0    0 -0.89566790856E+01 -0.38186764610E+01 -0.15206832092E+01  0.10013720416E+02  0.17770000000E+01 0. -1.
         15    1    1    2    0    0  0.71292589163E+01  0.36876843588E+01 -0.30570434103E+02  0.31656508318E+02  0.17770000000E+01 0.  1.
</event>
<event>
 6    1  0.8353910E-003  0.1958290E+03  0.7546771E-02  0.1058314E+00
        -11   -1    0    0    0    0  0.00000000000E+00  0.00000000000E+00  0.18250000000E+03  0.18250000000E+03  0.00000000000E+00 0.  1.
         11   -1    0    0    0    0 -0.00000000000E+00 -0.00000000000E+00 -0.18250000000E+03  0.18250000000E+03  0.00000000000E+00 0.  1.
        -11    1    1    2    0    0 -0.32566838007E+01  0.78764747713E+01  0.15333963851E+03  0.15357633146E+03  0.00000000000E+00 0.  1.
         11    1    1    2    0    0  0.26250111523E+01 -0.20300730100E+01 -0.16913846858E+03  0.16917101830E+03  0.00000000000E+00 0.  1.
        -15    1    1    2    0    0 -0.81682436941E+01  0.83351257186E-01  0.26070280310E+02  0.27377808476E+02  0.17770000000E+01 0.  1.
         15    1    1    2    0    0  0.87999163425E+01 -0.59297530185E+01 -0.10271450245E+02  0.14874841769E+02  0.17770000000E+01 0. -1.
</event>
<event>
 6    1  0.8353910E-003  0.1657780E+03  0.7546771E-02  0.1082604E+00
        -11   -1    0    0    0    0  0.00000000000E+00  0.00000000000E+00  0.18250000000E+03  0.18250000000E+03  0.00000000000E+00 0.  1.
         11   -1    0    0    0    0 -0.00000000000E+00 -0.00000000000E+00 -0.18250000000E+03  0.18250000000E+03  0.00000000000E+00 0.  1.
        -11    1    1    2    0    0 -0.61304307619E+01  0.24376258498E+01  0.16475854727E+03  0.16489057917E+03  0.00000000000E+00 0.  1.
         11    1    1    2    0    0  0.72301526732E+01  0.12721532098E+01 -0.16653095794E+03  0.16669269161E+03  0.00000000000E+00 0.  1.
        -15    1    1    2    0    0 -0.98468634551E+01 -0.67035118314E+01 -0.11824770966E+02  0.16878410120E+02  0.17770000000E+01 0.  1.
         15    1    1    2    0    0  0.87471415438E+01  0.29937327718E+01  0.13597181639E+02  0.16538319099E+02  0.17770000000E+01 0. -1.
</event>
<event>
 6    1  0.8353910E-003  0.1028527E+03  0.7546771E-02  0.1158970E+00
        -11   -1    0    0    0    0  0.00000000000E+00  0.00000000000E+00  0.18250000000E+03  0.18250000000E+03  0.00000000000E+00 0. -1.
         11   -1    0    0    0    0 -0.00000000000E+00 -0.00000000000E+00 -0.18250000000E+03  0.18250000000E+03  0.00000000000E+00 0.  1.
        -11    1    1    2    0    0  0.43351700752E+01  0.17381666934E+02  0.13481119915E+03  0.13599623326E+03  0.00000000000E+00 0. -1.
         11    1    1    2    0    0  0.25396889660E+01 -0.50708791199E+00 -0.92830758359E+02  0.92866877064E+02  0.00000000000E+00 0.  1.
        -15    1    1    2    0    0 -0.35925336480E+02 -0.22425822929E+02  0.34157116454E+02  0.54437245234E+02  0.17770000000E+01 0. -1.
         15    1    1    2    0    0  0.29050477439E+02  0.55512439069E+01 -0.76137557248E+02  0.81699644437E+02  0.17770000000E+01 0.  1.
</event>
<event>
 6    1  0.8353910E-003  0.1664169E+03  0.7546771E-02  0.1082030E+00
        -11   -1    0    0    0    0  0.00000000000E+00  0.00000000000E+00  0.18250000000E+03  0.18250000000E+03  0.00000000000E+00 0. -1.
         11   -1    0    0    0    0 -0.00000000000E+00 -0.00000000000E+00 -0.18250000000E+03  0.18250000000E+03  0.00000000000E+00 0.  1.
        -11    1    1    2    0    0  0.73186275517E+01 -0.15192281244E+02  0.16322254823E+03  0.16409134033E+03  0.00000000000E+00 0. -1.
         11    1    1    2    0    0 -0.38386117289E+01 -0.98800356556E-03 -0.16911573558E+03  0.16915929464E+03  0.00000000000E+00 0.  1.
        -15    1    1    2    0    0  0.13053450332E+01 -0.47321063805E+01 -0.60289302036E+01  0.79751166042E+01  0.17770000000E+01 0.  1.
         15    1    1    2    0    0 -0.47853608560E+01  0.19925375628E+02  0.11922117556E+02  0.23774248431E+02  0.17770000000E+01 0. -1.
</event>
<event>
 6    1  0.8353910E-003  0.1943821E+03  0.7546771E-02  0.1059371E+00
        -11   -1    0    0    0    0  0.00000000000E+00  0.00000000000E+00  0.18250000000E+03  0.18250000000E+03  0.00000000000E+00 0.  1.
         11   -1    0    0    0    0 -0.00000000000E+00 -0.00000000000E+00 -0.18250000000E+03  0.18250000000E+03  0.00000000000E+00 0. -1.
        -11    1    1    2    0    0  0.10925494770E+02  0.13260375660E+01  0.17026259467E+03  0.17061792390E+03  0.00000000000E+00 0.  1.
         11    1    1    2    0    0  0.27012743443E+01  0.38616761931E+01 -0.13053061667E+03  0.13061566260E+03  0.00000000000E+00 0. -1.
        -15    1    1    2    0    0 -0.55589849399E+01 -0.39593229351E+01 -0.50020175922E+02  0.50514891665E+02  0.17770000000E+01 0. -1.
         15    1    1    2    0    0 -0.80677841747E+01 -0.12283908240E+01  0.10288197924E+02  0.13251521838E+02  0.17770000000E+01 0.  1.
</event>
<event>
 6    1  0.8353910E-003  0.1832706E+03  0.7546771E-02  0.1067843E+00
        -11   -1    0    0    0    0  0.00000000000E+00  0.00000000000E+00  0.18250000000E+03  0.18250000000E+03  0.00000000000E+00 0.  1.
         11   -1    0    0    0    0 -0.00000000000E+00 -0.00000000000E+00 -0.18250000000E+03  0.18250000000E+03  0.00000000000E+00 0.  1.
        -11    1    1    2    0    0 -0.59419058839E+01  0.32416488641E+01  0.60092340925E+02  0.60472340543E+02  0.00000000000E+00 0.  1.
         11    1    1    2    0    0  0.49029614038E+01 -0.79374443909E+00 -0.18166154127E+03  0.18172942700E+03  0.00000000000E+00 0.  1.
        -15    1    1    2    0    0 -0.65995377093E+01 -0.56367158997E+01  0.60675983896E+02  0.61319321709E+02  0.17770000000E+01 0. -1.
         15    1    1    2    0    0  0.76384821894E+01  0.31888114747E+01  0.60893216448E+02  0.61478910751E+02  0.17770000000E+01 0.  1.
</event>
<event>
 6    1  0.8353910E-003  0.1941084E+03  0.7546771E-02  0.1059573E+00
        -11   -1    0    0    0    0  0.00000000000E+00  0.00000000000E+00  0.18250000000E+03  0.18250000000E+03  0.00000000000E+00 0. -1.
         11   -1    0    0    0    0 -0.00000000000E+00 -0.00000000000E+00 -0.18250000000E+03  0.18250000000E+03  0.00000000000E+00 0. -1.
        -11    1    1    2    0    0 -0.13619513074E+01  0.40359746827E+01  0.17083853453E+03  0.17089162906E+03  0.00000000000E+00 0. -1.
         11    1    1    2    0    0 -0.78026878884E+00  0.15260134533E+02 -0.15693050043E+03  0.15767264344E+03  0.00000000000E+00 0. -1.
        -15    1    1    2    0    0  0.55862818935E+01  0.58203226678E+01 -0.35989493855E+01  0.90107084644E+01  0.17770000000E+01 0. -1.
         15    1    1    2    0    0 -0.34440617973E+01 -0.25116431883E+02 -0.10309084716E+02  0.27425019032E+02  0.17770000000E+01 0.  1.
</event>
<event>
 6    1  0.8353910E-003  0.1838655E+03  0.7546771E-02  0.1067373E+00
        -11   -1    0    0    0    0  0.00000000000E+00  0.00000000000E+00  0.18250000000E+03  0.18250000000E+03  0.00000000000E+00 0. -1.
         11   -1    0    0    0    0 -0.00000000000E+00 -0.00000000000E+00 -0.18250000000E+03  0.18250000000E+03  0.00000000000E+00 0. -1.
        -11    1    1    2    0    0 -0.81041982770E+01  0.33261940451E+01  0.90961280754E+02  0.91382143732E+02  0.00000000000E+00 0. -1.
         11    1    1    2    0    0  0.34671207460E+01  0.12183894563E+01 -0.18109718906E+03  0.18113447293E+03  0.00000000000E+00 0. -1.
        -15    1    1    2    0    0  0.53440231121E+01 -0.29636075783E+01  0.89746306665E+02  0.89971655770E+02  0.17770000000E+01 0.  1.
         15    1    1    2    0    0 -0.70694558108E+00 -0.15809759230E+01  0.38960164114E+00  0.25117275654E+01  0.17770000000E+01 0. -1.
</event>
<event>
 6    1  0.8353910E-003  0.1828463E+03  0.7546771E-02  0.1068179E+00
        -11   -1    0    0    0    0  0.00000000000E+00  0.00000000000E+00  0.18250000000E+03  0.18250000000E+03  0.00000000000E+00 0.  1.
         11   -1    0    0    0    0 -0.00000000000E+00 -0.00000000000E+00 -0.18250000000E+03  0.18250000000E+03  0.00000000000E+00 0. -1.
        -11    1    1    2    0    0  0.16054916606E+01  0.19161527114E+01  0.27003806673E+02  0.27119270262E+02  0.00000000000E+00 0.  1.
         11    1    1    2    0    0  0.20392011744E+01  0.34766641645E+01 -0.18210909796E+03  0.18215369635E+03  0.00000000000E+00 0. -1.
        -15    1    1    2    0    0 -0.69872667936E+00 -0.44389424421E+01  0.14358325679E+03  0.14366454604E+03  0.17770000000E+01 0.  1.
         15    1    1    2    0    0 -0.29459661557E+01 -0.95387443378E+00  0.11522034495E+02  0.12062487344E+02  0.17770000000E+01 0. -1.
</event>
<event>
 6    1  0.8353910E-003  0.1764536E+03  0.7546771E-02  0.1073372E+00
        -11   -1    0    0    0    0  0.00000000000E+00  0.00000000000E+00  0.18250000000E+03  0.18250000000E+03  0.00000000000E+00 0. -1.
         11   -1    0    0    0    0 -0.00000000000E+00 -0.00000000000E+00 -0.18250000000E+03  0.18250000000E+03  0.00000000000E+00 0.  1.
        -11    1    1    2    0    0  0.18753331234E+01  0.74804636901E+01  0.17664597727E+03  0.17681424008E+03  0.00000000000E+00 0. -1.
         11    1    1    2    0    0  0.22752069071E+01  0.72969668325E+00 -0.17619694337E+03  0.17621314331E+03  0.00000000000E+00 0.  1.
        -15    1    1    2    0    0 -0.35943847451E+01 -0.72622756744E+01 -0.28668810486E+01  0.87770715854E+01  0.17770000000E+01 0. -1.
         15    1    1    2    0    0 -0.55615528541E+00 -0.94788469895E+00  0.24178471515E+01  0.31955450164E+01  0.17770000000E+01 0.  1.
</event>
<event>
 6    1  0.8353910E-003  0.1829106E+03  0.7546771E-02  0.1068128E+00
        -11   -1    0    0    0    0  0.00000000000E+00  0.00000000000E+00  0.18250000000E+03  0.18250000000E+03  0.00000000000E+00 0. -1.
         11   -1    0    0    0    0 -0.00000000000E+00 -0.00000000000E+00 -0.18250000000E+03  0.18250000000E+03  0.00000000000E+00 0.  1.
        -11    1    1    2    0    0 -0.32781199207E-01  0.19148369739E+01  0.75951126490E+02  0.75975267623E+02  0.00000000000E+00 0. -1.
         11    1    1    2    0    0  0.17164718014E+01  0.21748500379E+01 -0.18206828061E+03  0.18208936008E+03  0.00000000000E+00 0.  1.
        -15    1    1    2    0    0 -0.63412500628E+00 -0.10888391693E+01  0.98161802753E+02  0.98185971167E+02  0.17770000000E+01 0. -1.
         15    1    1    2    0    0 -0.10495655959E+01 -0.30008478425E+01  0.79553513712E+01  0.87494011311E+01  0.17770000000E+01 0. -1.
</event>
<event>
 6    1  0.8353910E-003  0.1717798E+03  0.7546771E-02  0.1077323E+00
        -11   -1    0    0    0    0  0.00000000000E+00  0.00000000000E+00  0.18250000000E+03  0.18250000000E+03  0.00000000000E+00 0. -1.
         11   -1    0    0    0    0 -0.00000000000E+00 -0.00000000000E+00 -0.18250000000E+03  0.18250000000E+03  0.00000000000E+00 0.  1.
        -11    1    1    2    0    0 -0.72806754863E+01 -0.12340747609E+01  0.16893888460E+03  0.16910020079E+03  0.00000000000E+00 0. -1.
         11    1    1    2    0    0 -0.31117808275E+01  0.45307277372E+01 -0.17459234972E+03  0.17467884604E+03  0.00000000000E+00 0.  1.
        -15    1    1    2    0    0  0.44550590819E+01 -0.21604072110E+01  0.11487006902E+02  0.12634237900E+02  0.17770000000E+01 0. -1.
         15    1    1    2    0    0  0.59373972319E+01 -0.11362457653E+01 -0.58335417873E+01  0.85867152691E+01  0.17770000000E+01 0.  1.
</event>
<event>
 6    1  0.8353910E-003  0.1833431E+03  0.7546771E-02  0.1067786E+00
        -11   -1    0    0    0    0  0.00000000000E+00  0.00000000000E+00  0.18250000000E+03  0.18250000000E+03  0.00000000000E+00 0. -1.
         11   -1    0    0    0    0 -0.00000000000E+00 -0.00000000000E+00 -0.18250000000E+03  0.18250000000E+03  0.00000000000E+00 0.  1.
        -11    1    1    2    0    0 -0.38756009508E+01  0.29817998901E+01  0.18159110523E+03  0.18165693191E+03  0.00000000000E+00 0. -1.
         11    1    1    2    0    0  0.28939140261E+01 -0.50747430400E+00 -0.15932271345E+03  0.15934980166E+03  0.00000000000E+00 0.  1.
        -15    1    1    2    0    0 -0.23065308222E+01  0.14558286507E+01 -0.11262858267E+02  0.11723874225E+02  0.17770000000E+01 0.  1.
         15    1    1    2    0    0  0.32882177468E+01 -0.39301542368E+01 -0.11005533508E+02  0.12269392204E+02  0.17770000000E+01 0. -1.
</event>
<event>
 6    1  0.8353910E-003  0.1847163E+03  0.7546771E-02  0.1066704E+00
        -11   -1    0    0    0    0  0.00000000000E+00  0.00000000000E+00  0.18250000000E+03  0.18250000000E+03  0.00000000000E+00 0. -1.
         11   -1    0    0    0    0 -0.00000000000E+00 -0.00000000000E+00 -0.18250000000E+03  0.18250000000E+03  0.00000000000E+00 0. -1.
        -11    1    1    2    0    0 -0.11958718475E+01 -0.24664113238E+01  0.18026290561E+03  0.18028374423E+03  0.00000000000E+00 0. -1.
         11    1    1    2    0    0  0.16226248707E-01 -0.36400847978E+01 -0.15588489432E+03  0.15592738938E+03  0.00000000000E+00 0. -1.
        -15    1    1    2    0    0 -0.82776915201E+00  0.48708279740E+01 -0.11512267167E+01  0.53752412852E+01  0.17770000000E+01 0.  1.
         15    1    1    2    0    0  0.20074147508E+01  0.12356681476E+01 -0.23226784577E+02  0.23413625104E+02  0.17770000000E+01 0. -1.
</event>
<event>
 6    1  0.8353910E-003  0.1655237E+03  0.7546771E-02  0.1082833E+00
        -11   -1    0    0    0    0  0.00000000000E+00  0.00000000000E+00  0.18250000000E+03  0.18250000000E+03  0.00000000000E+00 0. -1.
         11   -1    0    0    0    0 -0.00000000000E+00 -0.00000000000E+00 -0.18250000000E+03  0.18250000000E+03  0.00000000000E+00 0. -1.
        -11    1    1    2    0    0  0.10202706616E+02  0.52080754469E+00  0.16050934829E+03  0.16083412994E+03  0.00000000000E+00 0. -1.
         11    1    1    2    0    0  0.12140808822E+02  0.14260622013E+02 -0.17041713413E+03  0.17144318063E+03  0.00000000000E+00 0. -1.
        -15    1    1    2    0    0 -0.40812224571E+01 -0.10750843173E+01  0.86477473131E+01  0.97853689570E+01  0.17770000000E+01 0.  1.
         15    1    1    2    0    0 -0.18262292980E+02 -0.13706345240E+02  0.12600385233E+01  0.22937320480E+02  0.17770000000E+01 0. -1.
</event>
<event>
 6    1  0.8563925E-003  0.1948091E+03  0.7546771E-02  0.1059058E+00
        -11   -1    0    0    0    0  0.00000000000E+00  0.00000000000E+00  0.18250000000E+03  0.18250000000E+03  0.00000000000E+00 0.  1.
         11   -1    0    0    0    0 -0.00000000000E+00 -0.00000000000E+00 -0.18250000000E+03  0.18250000000E+03  0.00000000000E+00 0. -1.
        -11    1    1    2    0    0  0.18478155290E+01 -0.24210370257E+01  0.17016368362E+03  0.17019093708E+03  0.00000000000E+00 0.  1.
         11    1    1    2    0    0 -0.56151759069E+01  0.78290447500E+01 -0.13348659878E+03  0.13383383801E+03  0.00000000000E+00 0. -1.
        -15    1    1    2    0    0 -0.65488115019E+01  0.25498641045E+01  0.10073506645E+02  0.12410560187E+02  0.17770000000E+01 0. -1.
         15    1    1    2    0    0  0.10316171880E+02 -0.79578718288E+01 -0.46750591482E+02  0.48564664718E+02  0.17770000000E+01 0.  1.
</event>
<event>
 6    1  0.8353910E-003  0.1895689E+03  0.7546771E-02  0.1062963E+00
        -11   -1    0    0    0    0  0.00000000000E+00  0.00000000000E+00  0.18250000000E+03  0.18250000000E+03  0.00000000000E+00 0. -1.
         11   -1    0    0    0    0 -0.00000000000E+00 -0.00000000000E+00 -0.18250000000E+03  0.18250000000E+03  0.00000000000E+00 0. -1.
        -11    1    1    2    0    0  0.75587328873E-01  0.78306162481E+01  0.17525621827E+03  0.17543108705E+03  0.00000000000E+00 0. -1.
         11    1    1    2    0    0  0.35788783715E+01 -0.56318120883E+01 -0.17099249991E+03  0.17112264813E+03  0.00000000000E+00 0. -1.
        -15    1    1    2    0    0  0.55260501333E+01 -0.54358563452E+01 -0.28631335199E+01  0.84522793869E+01  0.17770000000E+01 0.  1.
         15    1    1    2    0    0 -0.91805158337E+01  0.32370521854E+01 -0.14005848324E+01  0.99939854260E+01  0.17770000000E+01 0. -1.
</event>
<event>
 6    1  0.8353910E-003  0.1853580E+03  0.7546771E-02  0.1066202E+00
        -11   -1    0    0    0    0  0.00000000000E+00  0.00000000000E+00  0.18250000000E+03  0.18250000000E+03  0.00000000000E+00 0.  1.
         11   -1    0    0    0    0 -0.00000000000E+00 -0.00000000000E+00 -0.18250000000E+03  0.18250000000E+03  0.00000000000E+00 0. -1.
        -11    1    1    2    0    0 -0.24531991452E+01  0.21012942888E+01  0.17768514307E+03  0.17771450051E+03  0.00000000000E+00 0.  1.
         11    1    1    2    0    0  0.32792002170E+01 -0.21028232302E+01 -0.17959972671E+03  0.17964196852E+03  0.00000000000E+00 0. -1.
        -15    1    1    2    0    0  0.13088889866E+01 -0.22434914860E+01 -0.69166961960E+00  0.32222011560E+01  0.17770000000E+01 0. -1.
         15    1    1    2    0    0 -0.21348900584E+01  0.22450204274E+01  0.26062532634E+01  0.44213298173E+01  0.17770000000E+01 0.  1.
</event>
<event>
 6    1  0.8353910E-003  0.1874285E+03  0.7546771E-02  0.1064598E+00
        -11   -1    0    0    0    0  0.00000000000E+00  0.00000000000E+00  0.18250000000E+03  0.18250000000E+03  0.00000000000E+00 0. -1.
         11   -1    0    0    0    0 -0.00000000000E+00 -0.00000000000E+00 -0.18250000000E+03  0.18250000000E+03  0.00000000000E+00 0.  1.
        -11    1    1    2    0    0  0.40137252025E+01  0.40692006993E+01  0.17747951070E+03  0.17757152109E+03  0.00000000000E+00 0. -1.
         11    1    1    2    0    0  0.27551803537E+01 -0.22718218332E+01 -0.91575803538E+02  0.91645403523E+02  0.00000000000E+00 0.  1.
        -15    1    1    2    0    0 -0.16563302065E+02 -0.16737273113E+02 -0.57764077777E+02  0.62404532663E+02  0.17770000000E+01 0.  1.
         15    1    1    2    0    0  0.97943965088E+01  0.14939894246E+02 -0.28139629387E+02  0.33378542720E+02  0.17770000000E+01 0.  1.
</event>
<event>
 6    1  0.8353910E-003  0.1876665E+03  0.7546771E-02  0.1064415E+00
        -11   -1    0    0    0    0  0.00000000000E+00  0.00000000000E+00  0.18250000000E+03  0.18250000000E+03  0.00000000000E+00 0. -1.
         11   -1    0    0    0    0 -0.00000000000E+00 -0.00000000000E+00 -0.18250000000E+03  0.18250000000E+03  0.00000000000E+00 0. -1.
        -11    1    1    2    0    0  0.72163831534E+01 -0.10989949736E+02  0.17684547146E+03  0.17733351617E+03  0.00000000000E+00 0. -1.
         11    1    1    2    0    0 -0.13869905928E+01  0.18319796874E+01 -0.14351031911E+03  0.14352871344E+03  0.00000000000E+00 0. -1.
        -15    1    1    2    0    0 -0.12858493933E+02  0.96054377946E+01 -0.84728239906E+01  0.18236002216E+02  0.17770000000E+01 0.  1.
         15    1    1    2    0    0  0.70291013724E+01 -0.44746774553E+00 -0.24862328367E+02  0.25901768169E+02  0.17770000000E+01 0. -1.
</event>
<event>
 6    1  0.8353910E-003  0.1834022E+03  0.7546771E-02  0.1067739E+00
        -11   -1    0    0    0    0  0.00000000000E+00  0.00000000000E+00  0.18250000000E+03  0.18250000000E+03  0.00000000000E+00 0.  1.
         11   -1    0    0    0    0 -0.00000000000E+00 -0.00000000000E+00 -0.18250000000E+03  0.18250000000E+03  0.00000000000E+00 0.  1.
        -11    1    1    2    0    0 -0.45863964814E+01 -0.94897229445E+00  0.18153744009E+03  0.18159784618E+03  0.00000000000E+00 0.  1.
         11    1    1    2    0    0  0.24045851313E+01  0.10569399504E+01 -0.16712166927E+03  0.16714230910E+03  0.00000000000E+00 0.  1.
        -15    1    1    2    0    0 -0.15993767728E+01 -0.16777152932E+01 -0.42427995651E+01  0.51509039804E+01  0.17770000000E+01 0.  1.
         15    1    1    2    0    0  0.37811881228E+01  0.15697476372E+01 -0.10172971251E+02  0.11108940739E+02  0.17770000000E+01 0.  1.
</event>
<event>
 6    1  0.8353910E-003  0.1835092E+03  0.7546771E-02  0.1067654E+00
        -11   -1    0    0    0    0  0.00000000000E+00  0.00000000000E+00  0.18250000000E+03  0.18250000000E+03  0.00000000000E+00 0. -1.
         11   -1    0    0    0    0 -0.00000000000E+00 -0.00000000000E+00 -0.18250000000E+03  0.18250000000E+03  0.00000000000E+00 0.  1.
        -11    1    1    2    0    0 -0.58333423292E+01 -0.50915545543E+01  0.18132554472E+03  0.18149078483E+03  0.00000000000E+00 0. -1.
         11    1    1    2    0    0  0.38420900960E+00 -0.25143612181E+01 -0.23924364174E+02  0.24059194293E+02  0.00000000000E+00 0.  1.
        -15    1    1    2    0    0  0.98254605258E+01  0.72069019245E+01 -0.37805539363E+02  0.39760478435E+02  0.17770000000E+01 0.  1.
         15    1    1    2    0    0 -0.43763272062E+01  0.39901384795E+00 -0.11959564118E+03  0.11968954244E+03  0.17770000000E+01 0.  1.
</event>
<event>
 6    1  0.8353910E-003  0.1835029E+03  0.7546771E-02  0.1067659E+00
        -11   -1    0    0    0    0  0.00000000000E+00  0.00000000000E+00  0.18250000000E+03  0.18250000000E+03  0.00000000000E+00 0.  1.
         11   -1    0    0    0    0 -0.00000000000E+00 -0.00000000000E+00 -0.18250000000E+03  0.18250000000E+03  0.00000000000E+00 0.  1.
        -11    1    1    2    0    0 -0.29490089458E+01  0.12680819603E+00  0.17211953498E+03  0.17214484325E+03  0.00000000000E+00 0.  1.
         11    1    1    2    0    0  0.30896220811E+00 -0.39235048697E+01 -0.18145444287E+03  0.18149711895E+03  0.00000000000E+00 0.  1.
        -15    1    1    2    0    0  0.20983258013E+01  0.29194804277E+01  0.41041912706E+01  0.57383318240E+01  0.17770000000E+01 0.  1.
         15    1    1    2    0    0  0.54172093632E+00  0.87721624596E+00  0.52307166218E+01  0.56197059792E+01  0.17770000000E+01 0. -1.
</event>
<event>
 6    1  0.8353910E-003  0.1906083E+03  0.7546771E-02  0.1062178E+00
        -11   -1    0    0    0    0  0.00000000000E+00  0.00000000000E+00  0.18250000000E+03  0.18250000000E+03  0.00000000000E+00 0.  1.
         11   -1    0    0    0    0 -0.00000000000E+00 -0.00000000000E+00 -0.18250000000E+03  0.18250000000E+03  0.00000000000E+00 0. -1.
        -11    1    1    2    0    0  0.36637267630E+02  0.32198031729E+02  0.16743192755E+03  0.17439166548E+03  0.00000000000E+00 0.  1.
         11    1    1    2    0    0  0.10621210920E+02 -0.15284057149E+02 -0.88424734638E+02  0.90362305306E+02  0.00000000000E+00 0. -1.
        -15    1    1    2    0    0 -0.18648779999E+02 -0.11024135550E+02 -0.75187947799E+01  0.22999968783E+02  0.17770000000E+01 0. -1.
         15    1    1    2    0    0 -0.28609698551E+02 -0.58898390303E+01 -0.71488398133E+02  0.77246060428E+02  0.17770000000E+01 0.  1.
</event>
<event>
 6    1  0.8353910E-003  0.1842305E+03  0.7546771E-02  0.1067086E+00
        -11   -1    0    0    0    0  0.00000000000E+00  0.00000000000E+00  0.18250000000E+03  0.18250000000E+03  0.00000000000E+00 0. -1.
         11   -1    0    0    0    0 -0.00000000000E+00 -0.00000000000E+00 -0.18250000000E+03  0.18250000000E+03  0.00000000000E+00 0. -1.
        -11    1    1    2    0    0  0.15494989933E+01 -0.29784590631E+01  0.15614348831E+03  0.15617957967E+03  0.00000000000E+00 0. -1.
         11    1    1    2    0    0  0.37874837629E+01  0.37743904884E+01 -0.18069036112E+03  0.18076945997E+03  0.00000000000E+00 0. -1.
        -15    1    1    2    0    0 -0.85998013569E+00 -0.44789806389E+01  0.31719624535E+01  0.58326587594E+01  0.17770000000E+01 0. -1.
         15    1    1    2    0    0 -0.44770026205E+01  0.36830492136E+01  0.21374910357E+02  0.22218301595E+02  0.17770000000E+01 0.  1.
</event>
<event>
 6    1  0.9977160E-003  0.1870027E+03  0.7546771E-02  0.1064926E+00
        -11   -1    0    0    0    0  0.00000000000E+00  0.00000000000E+00  0.18250000000E+03  0.18250000000E+03  0.00000000000E+00 0. -1.
         11   -1    0    0    0    0 -0.00000000000E+00 -0.00000000000E+00 -0.18250000000E+03  0.18250000000E+03  0.00000000000E+00 0. -1.
        -11    1    1    2    0    0  0.32793973564E+01  0.70183103381E+01  0.16101668928E+03  0.16120293222E+03  0.00000000000E+00 0. -1.
         11    1    1    2    0    0 -0.28273268590E+01 -0.36140466671E+01 -0.17793813013E+03  0.17799728443E+03  0.00000000000E+00 0. -1.
        -15    1    1    2    0    0 -0.40770567717E+01 -0.61126764637E+01  0.19048270631E+02  0.20493451356E+02  0.17770000000E+01 0. -1.
         15    1    1    2    0    0  0.36249862743E+01  0.27084127926E+01 -0.21268297896E+01  0.53063320004E+01  0.17770000000E+01 0.  1.
</event>
<event>
 6    1  0.8353910E-003  0.1827311E+03  0.7546771E-02  0.1068271E+00
        -11   -1    0    0    0    0  0.00000000000E+00  0.00000000000E+00  0.18250000000E+03  0.18250000000E+03  0.00000000000E+00 0. -1.
         11   -1    0    0    0    0 -0.00000000000E+00 -0.00000000000E+00 -0.18250000000E+03  0.18250000000E+03  0.00000000000E+00 0.  1.
        -11    1    1    2    0    0  0.23481114083E+00  0.39000112718E+01  0.13027077957E+03  0.13032935676E+03  0.00000000000E+00 0. -1.
         11    1    1    2    0    0 -0.17482502573E+01 -0.25241001808E+01 -0.18224307264E+03  0.18226893588E+03  0.00000000000E+00 0.  1.
        -15    1    1    2    0    0  0.17015497643E+01 -0.32678232658E+01  0.31148364992E+02  0.31415797159E+02  0.17770000000E+01 0.  1.
         15    1    1    2    0    0 -0.18811064782E+00  0.18919121749E+01  0.20823928078E+02  0.20985910199E+02  0.17770000000E+01 0. -1.
</event>
<event>
 6    1  0.8353910E-003  0.1843576E+03  0.7546771E-02  0.1066986E+00
        -11   -1    0    0    0    0  0.00000000000E+00  0.00000000000E+00  0.18250000000E+03  0.18250000000E+03  0.00000000000E+00 0.  1.
         11   -1    0    0    0    0 -0.00000000000E+00 -0.00000000000E+00 -0.18250000000E+03  0.18250000000E+03  0.00000000000E+00 0. -1.
        -11    1    1    2    0    0  0.18820392791E+01  0.24858110807E+01  0.18061552223E+03  0.18064243189E+03  0.00000000000E+00 0.  1.
         11    1    1    2    0    0  0.83187433355E+00 -0.30478013470E+01 -0.17552117338E+03  0.17554960385E+03  0.00000000000E+00 0. -1.
        -15    1    1    2    0    0 -0.25550592158E+00  0.25407144192E+01 -0.39118670056E+01  0.49980941873E+01  0.17770000000E+01 0. -1.
         15    1    1    2    0    0 -0.24584076911E+01 -0.19787241529E+01 -0.11824818407E+01  0.38098700703E+01  0.17770000000E+01 0.  1.
</event>
<event>
 6    1  0.8353910E-003  0.1825903E+03  0.7546771E-02  0.1068383E+00
        -11   -1    0    0    0    0  0.00000000000E+00  0.00000000000E+00  0.18250000000E+03  0.18250000000E+03  0.00000000000E+00 0.  1.
         11   -1    0    0    0    0 -0.00000000000E+00 -0.00000000000E+00 -0.18250000000E+03  0.18250000000E+03  0.00000000000E+00 0. -1.
        -11    1    1    2    0    0  0.23169309531E+01  0.23397816266E+01  0.18238001647E+03  0.18240973974E+03  0.00000000000E+00 0.  1.
         11    1    1    2    0    0  0.11041503976E+01 -0.15169047355E+01 -0.66980108182E+02  0.67006380593E+02  0.00000000000E+00 0. -1.
        -15    1    1    2    0    0 -0.10608993187E+01 -0.10381948287E+01 -0.86820635024E+02  0.86851504022E+02  0.17770000000E+01 0. -1.
         15    1    1    2    0    0 -0.23601820320E+01  0.21531793763E+00 -0.28579273259E+02  0.28732375642E+02  0.17770000000E+01 0.  1.
</event>
<event>
 6    1  0.8353910E-003  0.1881716E+03  0.7546771E-02  0.1064028E+00
        -11   -1    0    0    0    0  0.00000000000E+00  0.00000000000E+00  0.18250000000E+03  0.18250000000E+03  0.00000000000E+00 0.  1.
         11   -1    0    0    0    0 -0.00000000000E+00 -0.00000000000E+00 -0.18250000000E+03  0.18250000000E+03  0.00000000000E+00 0. -1.
        -11    1    1    2    0    0  0.27207729127E+01 -0.28373660779E+01  0.17444617688E+03  0.17449046358E+03  0.00000000000E+00 0.  1.
         11    1    1    2    0    0 -0.23674263472E+01  0.77040789623E+00 -0.17681088282E+03  0.17682840982E+03  0.00000000000E+00 0. -1.
        -15    1    1    2    0    0 -0.98823151207E+00  0.47721748694E+01 -0.39747025296E+01  0.65350014311E+01  0.17770000000E+01 0.  1.
         15    1    1    2    0    0  0.63488494659E+00 -0.27052166877E+01  0.63394084709E+01  0.71461251727E+01  0.17770000000E+01 0.  1.
</event>
<event>
 6    1  0.8353910E-003  0.1847911E+03  0.7546771E-02  0.1066646E+00
        -11   -1    0    0    0    0  0.00000000000E+00  0.00000000000E+00  0.18250000000E+03  0.18250000000E+03  0.00000000000E+00 0.  1.
         11   -1    0    0    0    0 -0.00000000000E+00 -0.00000000000E+00 -0.18250000000E+03  0.18250000000E+03  0.00000000000E+00 0. -1.
        -11    1    1    2    0    0 -0.11621037538E+01 -0.72536835220E+01  0.18005912938E+03  0.18020892454E+03  0.00000000000E+00 0.  1.
         11    1    1    2    0    0 -0.31619989778E+01  0.27144553438E+01 -0.14223277529E+03  0.14229381178E+03  0.00000000000E+00 0. -1.
        -15    1    1    2    0    0 -0.24169723767E+01  0.88187709813E+01 -0.10810553864E+02  0.14270188539E+02  0.17770000000E+01 0. -1.
         15    1    1    2    0    0  0.67410751083E+01 -0.42795428031E+01 -0.27015800230E+02  0.28227075145E+02  0.17770000000E+01 0.  1.
</event>
<event>
 6    1  0.8353910E-003  0.1826413E+03  0.7546771E-02  0.1068342E+00
        -11   -1    0    0    0    0  0.00000000000E+00  0.00000000000E+00  0.18250000000E+03  0.18250000000E+03  0.00000000000E+00 0. -1.
         11   -1    0    0    0    0 -0.00000000000E+00 -0.00000000000E+00 -0.18250000000E+03  0.18250000000E+03  0.00000000000E+00 0. -1.
        -11    1    1    2    0    0 -0.43309609098E+01  0.31926196105E+01  0.18227934014E+03  0.18235873405E+03  0.00000000000E+00 0. -1.
         11    1    1    2    0    0 -0.79686646287E+00 -0.12164621909E+01 -0.58281153650E+02  0.58299293711E+02  0.00000000000E+00 0. -1.
        -15    1    1    2    0    0  0.17772511886E+01 -0.29051500202E+01 -0.27750655775E+02  0.28015266256E+02  0.17770000000E+01 0. -1.
         15    1    1    2    0    0  0.33505761841E+01  0.92899260061E+00 -0.96247530714E+02  0.96326705983E+02  0.17770000000E+01 0.  1.
</event>
<event>
 6    1  0.8353910E-003  0.1859914E+03  0.7546771E-02  0.1065709E+00
        -11   -1    0    0    0    0  0.00000000000E+00  0.00000000000E+00  0.18250000000E+03  0.18250000000E+03  0.00000000000E+00 0. -1.
         11   -1    0    0    0    0 -0.00000000000E+00 -0.00000000000E+00 -0.18250000000E+03  0.18250000000E+03  0.00000000000E+00 0.  1.
        -11    1    1    2    0    0 -0.38340816976E+01 -0.19175376541E+01  0.17895729754E+03  0.17900863520E+03  0.00000000000E+00 0. -1.
         11    1    1    2    0    0  0.32884181256E+01  0.13125968876E+01 -0.17603449744E+03  0.17607010222E+03  0.00000000000E+00 0.  1.
        -15    1    1    2    0    0  0.35897979229E+01  0.30822439299E+01 -0.23543245802E+01  0.55756120740E+01  0.17770000000E+01 0.  1.
         15    1    1    2    0    0 -0.30441343509E+01 -0.24773031634E+01 -0.56847552202E+00  0.43456505070E+01  0.17770000000E+01 0. -1.
</event>
<event>
 6    1  0.8353910E-003  0.1869278E+03  0.7546771E-02  0.1064984E+00
        -11   -1    0    0    0    0  0.00000000000E+00  0.00000000000E+00  0.18250000000E+03  0.18250000000E+03  0.00000000000E+00 0. -1.
         11   -1    0    0    0    0 -0.00000000000E+00 -0.00000000000E+00 -0.18250000000E+03  0.18250000000E+03  0.00000000000E+00 0. -1.
        -11    1    1    2    0    0  0.44574288469E+01  0.20011627958E+01  0.10975685832E+03  0.10986555999E+03  0.00000000000E+00 0. -1.
         11    1    1    2    0    0 -0.52465400448E+01 -0.42864312827E+01 -0.17794328663E+03  0.17807221269E+03  0.00000000000E+00 0. -1.
        -15    1    1    2    0    0  0.91454867540E+01 -0.95633981176E+00  0.11844965206E+01  0.94400887078E+01  0.17770000000E+01 0.  1.
         15    1    1    2    0    0 -0.83563755561E+01  0.32416082986E+01  0.67001931795E+02  0.67622138609E+02  0.17770000000E+01 0. -1.
</event>
<event>
 6    1  0.8353910E-003  0.1836462E+03  0.7546771E-02  0.1067546E+00
        -11   -1    0    0    0    0  0.00000000000E+00  0.00000000000E+00  0.18250000000E+03  0.18250000000E+03  0.00000000000E+00 0.  1.
         11   -1    0    0    0    0 -0.00000000000E+00 -0.00000000000E+00 -0.18250000000E+03  0.18250000000E+03  0.00000000000E+00 0. -1.
        -11    1    1    2    0    0 -0.55011666671E+01  0.22243208943E+01  0.18125672157E+03  0.18135382420E+03  0.00000000000E+00 0.  1.
         11    1    1    2    0    0 -0.18655551440E+01  0.21768897951E+00 -0.13828321969E+03  0.13829597439E+03  0.00000000000E+00 0. -1.
        -15    1    1    2    0    0 -0.25975262328E+01 -0.29100368274E+01 -0.14894709865E+02  0.15499211845E+02  0.17770000000E+01 0.  1.
         15    1    1    2    0    0  0.99642480438E+01  0.46802695362E+00 -0.28078792012E+02  0.29850989568E+02  0.17770000000E+01 0.  1.
</event>
<event>
 6    1  0.8353910E-003  0.1826571E+03  0.7546771E-02  0.1068330E+00
        -11   -1    0    0    0    0  0.00000000000E+00  0.00000000000E+00  0.18250000000E+03  0.18250000000E+03  0.00000000000E+00 0. -1.
         11   -1    0    0    0    0 -0.00000000000E+00 -0.00000000000E+00 -0.18250000000E+03  0.18250000000E+03  0.00000000000E+00 0. -1.
        -11    1    1    2    0    0  0.53111756194E+00  0.24959273867E+00  0.26230353774E+02  0.26236917531E+02  0.00000000000E+00 0. -1.
         11    1    1    2    0    0 -0.93733121867E+00 -0.26583609477E+01 -0.18232110996E+03  0.18234289844E+03  0.00000000000E+00 0. -1.
        -15    1    1    2    0    0  0.92307076433E+00  0.32270015088E+01  0.14894636134E+03  0.14899477133E+03  0.17770000000E+01 0. -1.
         15    1    1    2    0    0 -0.51685710760E+00 -0.81823329980E+00  0.71443948486E+01  0.74254126994E+01  0.17770000000E+01 0. -1.
</event>
<event>
 6    1  0.8353910E-003  0.1840531E+03  0.7546771E-02  0.1067225E+00
        -11   -1    0    0    0    0  0.00000000000E+00  0.00000000000E+00  0.18250000000E+03  0.18250000000E+03  0.00000000000E+00 0. -1.
         11   -1    0    0    0    0 -0.00000000000E+00 -0.00000000000E+00 -0.18250000000E+03  0.18250000000E+03  0.00000000000E+00 0.  1.
        -11    1    1    2    0    0 -0.29867096935E+01 -0.33956122400E+01  0.17477868689E+03  0.17483718143E+03  0.00000000000E+00 0. -1.
         11    1    1    2    0    0 -0.55387260099E+00  0.47211719677E+01 -0.18088441168E+03  0.18094686134E+03  0.00000000000E+00 0.  1.
        -15    1    1    2    0    0  0.19843347236E+01 -0.20855157005E+01  0.98141992485E+00  0.35224812421E+01  0.17770000000E+01 0.  1.
         15    1    1    2    0    0  0.15562475709E+01  0.75995597289E+00  0.51243048606E+01  0.56934759934E+01  0.17770000000E+01 0. -1.
</event>
<event>
 6    1  0.8353910E-003  0.1840844E+03  0.7546771E-02  0.1067201E+00
        -11   -1    0    0    0    0  0.00000000000E+00  0.00000000000E+00  0.18250000000E+03  0.18250000000E+03  0.00000000000E+00 0.  1.
         11   -1    0    0    0    0 -0.00000000000E+00 -0.00000000000E+00 -0.18250000000E+03  0.18250000000E+03  0.00000000000E+00 0. -1.
        -11    1    1    2    0    0 -0.57480700431E+01 -0.29015765256E+01  0.14471903599E+03  0.14486220637E+03  0.00000000000E+00 0.  1.
         11    1    1    2    0    0  0.15644399550E+01 -0.20141740059E+01 -0.18089765603E+03  0.18091563318E+03  0.00000000000E+00 0. -1.
        -15    1    1    2    0    0  0.47969896517E+01  0.41217945463E+01  0.36560529745E+02  0.37146067952E+02  0.17770000000E+01 0. -1.
         15    1    1    2    0    0 -0.61335956359E+00  0.79395598517E+00 -0.38190970415E+00  0.20760925034E+01  0.17770000000E+01 0.  1.
</event>
<event>
 6    1  0.8353910E-003  0.1830582E+03  0.7546771E-02  0.1068011E+00
        -11   -1    0    0    0    0  0.00000000000E+00  0.00000000000E+00  0.18250000000E+03  0.18250000000E+03  0.00000000000E+00 0.  1.
         11   -1    0    0    0    0 -0.00000000000E+00 -0.00000000000E+00 -0.18250000000E+03  0.18250000000E+03  0.00000000000E+00 0.  1.
        -11    1    1    2    0    0 -0.13773423940E+01  0.46025720777E+01  0.18187839783E+03  0.18194183779E+03  0.00000000000E+00 0.  1.
         11    1    1    2    0    0 -0.38184953432E+00  0.26691558237E+01 -0.89735112690E+02  0.89775612787E+02  0.00000000000E+00 0.  1.
        -15    1    1    2    0    0 -0.23486228749E+01 -0.78417182108E+01 -0.77718488992E+02  0.78168598772E+02  0.17770000000E+01 0.  1.
         15    1    1    2    0    0  0.41078148033E+01  0.56999030941E+00 -0.14424796147E+02  0.15113950651E+02  0.17770000000E+01 0. -1.
</event>
<event>
 6    1  0.8353910E-003  0.1828210E+03  0.7546771E-02  0.1068200E+00
        -11   -1    0    0    0    0  0.00000000000E+00  0.00000000000E+00  0.18250000000E+03  0.18250000000E+03  0.00000000000E+00 0.  1.
         11   -1    0    0    0    0 -0.00000000000E+00 -0.00000000000E+00 -0.18250000000E+03  0.18250000000E+03  0.00000000000E+00 0. -1.
        -11    1    1    2    0    0  0.26991259366E+01  0.45587051796E+00  0.18215842567E+03  0.18217899204E+03  0.00000000000E+00 0.  1.
         11    1    1    2    0    0  0.19237587824E+01 -0.18454907078E+01 -0.13764852609E+03  0.13767433827E+03  0.00000000000E+00 0. -1.
        -15    1    1    2    0    0 -0.48209655015E+00 -0.12070050596E+01 -0.94443648575E+01  0.96975788143E+01  0.17770000000E+01 0.  1.
         15    1    1    2    0    0 -0.41407881689E+01  0.25966252494E+01 -0.35065534726E+02  0.35449090876E+02  0.17770000000E+01 0. -1.
</event>
<event>
 6    1  0.8353910E-003  0.1839965E+03  0.7546771E-02  0.1067270E+00
        -11   -1    0    0    0    0  0.00000000000E+00  0.00000000000E+00  0.18250000000E+03  0.18250000000E+03  0.00000000000E+00 0.  1.
         11   -1    0    0    0    0 -0.00000000000E+00 -0.00000000000E+00 -0.18250000000E+03  0.18250000000E+03  0.00000000000E+00 0. -1.
        -11    1    1    2    0    0 -0.37825967058E+01  0.19579787110E+01  0.14311841618E+03  0.14318178225E+03  0.00000000000E+00 0.  1.
         11    1    1    2    0    0 -0.26113396996E+01 -0.14006829627E+01 -0.18097924258E+03  0.18100350067E+03  0.00000000000E+00 0. -1.
        -15    1    1    2    0    0  0.65654139384E+01  0.39187195927E+01  0.33182791637E+02  0.34098627732E+02  0.17770000000E+01 0.  1.
         15    1    1    2    0    0 -0.17147753297E+00 -0.44760153410E+01  0.46780347714E+01  0.67160893532E+01  0.17770000000E+01 0.  1.
</event>
<event>
 6    1  0.8353910E-003  0.1839628E+03  0.7546771E-02  0.1067296E+00
        -11   -1    0    0    0    0  0.00000000000E+00  0.00000000000E+00  0.18250000000E+03  0.18250000000E+03  0.00000000000E+00 0. -1.
         11   -1    0    0    0    0 -0.00000000000E+00 -0.00000000000E+00 -0.18250000000E+03  0.18250000000E+03  0.00000000000E+00 0. -1.
        -11    1    1    2    0    0 -0.42293067225E+01 -0.62082274327E+01  0.18088126248E+03  0.18103717916E+03  0.00000000000E+00 0. -1.
         11    1    1    2    0    0  0.44135982236E+01 -0.16799770416E+01 -0.15057666588E+03  0.15065070354E+03  0.00000000000E+00 0. -1.
        -15    1    1    2    0    0  0.34900482611E+01  0.10719586839E+01 -0.35190814750E+01  0.53731923205E+01  0.17770000000E+01 0.  1.
         15    1    1    2    0    0 -0.36743397623E+01  0.68162457903E+01 -0.26785515124E+02  0.27938924976E+02  0.17770000000E+01 0. -1.
</event>
<event>
 6    1  0.8353910E-003  0.1777981E+03  0.7546771E-02  0.1072260E+00
        -11   -1    0    0    0    0  0.00000000000E+00  0.00000000000E+00  0.18250000000E+03  0.18250000000E+03  0.00000000000E+00 0. -1.
         11   -1    0    0    0    0 -0.00000000000E+00 -0.00000000000E+00 -0.18250000000E+03  0.18250000000E+03  0.00000000000E+00 0. -1.
        -11    1    1    2    0    0 -0.33837310312E+01 -0.42553816473E+01  0.17629674709E+03  0.17638055715E+03  0.00000000000E+00 0. -1.
         11    1    1    2    0    0 -0.29422995729E+01  0.17453643032E+01 -0.17926038391E+03  0.17929302458E+03  0.00000000000E+00 0. -1.
        -15    1    1    2    0    0  0.36653968167E+01  0.51436932398E+00 -0.58636333373E+00  0.41474402449E+01  0.17770000000E+01 0. -1.
         15    1    1    2    0    0  0.26606337873E+01  0.19956480201E+01  0.35500001600E+01  0.51789780176E+01  0.17770000000E+01 0.  1.
</event>
<event>
 6    1  0.8353910E-003  0.1921252E+03  0.7546771E-02  0.1061041E+00
        -11   -1    0    0    0    0  0.00000000000E+00  0.00000000000E+00  0.18250000000E+03  0.18250000000E+03  0.00000000000E+00 0. -1.
         11   -1    0    0    0    0 -0.00000000000E+00 -0.00000000000E+00 -0.18250000000E+03  0.18250000000E+03  0.00000000000E+00 0.  1.
        -11    1    1    2    0    0 -0.11683684859E+01  0.11619142283E+01  0.13541706111E+01  0.21328168315E+01  0.00000000000E+00 0. -1.
         11    1    1    2    0    0  0.57133347926E+01 -0.60333865099E-01 -0.17129536432E+03  0.17139062889E+03  0.00000000000E+00 0.  1.
        -15    1    1    2    0    0  0.21514080449E+02  0.36440479451E+02  0.86984372329E+02  0.96748141887E+02  0.17770000000E+01 0.  1.
         15    1    1    2    0    0 -0.26059046755E+02 -0.37542059815E+02  0.82956821376E+02  0.94728412394E+02  0.17770000000E+01 0. -1.
</event>
<event>
 6    1  0.8353910E-003  0.1840537E+03  0.7546771E-02  0.1067225E+00
        -11   -1    0    0    0    0  0.00000000000E+00  0.00000000000E+00  0.18250000000E+03  0.18250000000E+03  0.00000000000E+00 0. -1.
         11   -1    0    0    0    0 -0.00000000000E+00 -0.00000000000E+00 -0.18250000000E+03  0.18250000000E+03  0.00000000000E+00 0. -1.
        -11    1    1    2    0    0 -0.22485545006E-02 -0.32909902106E+01  0.16440840254E+03  0.16444133740E+03  0.00000000000E+00 0. -1.
         11    1    1    2    0    0 -0.42484861111E+01 -0.40667794807E+01 -0.18085065182E+03  0.18094625333E+03  0.00000000000E+00 0. -1.
        -15    1    1    2    0    0  0.13141408354E+01 -0.35374120394E+00  0.30798466665E+01  0.38072671910E+01  0.17770000000E+01 0. -1.
         15    1    1    2    0    0  0.29365938303E+01  0.77115108952E+01  0.13362402612E+02  0.15805142080E+02  0.17770000000E+01 0.  1.
</event>
<event>
 6    1  0.8353910E-003  0.1851382E+03  0.7546771E-02  0.1066374E+00
        -11   -1    0    0    0    0  0.00000000000E+00  0.00000000000E+00  0.18250000000E+03  0.18250000000E+03  0.00000000000E+00 0.  1.
         11   -1    0    0    0    0 -0.00000000000E+00 -0.00000000000E+00 -0.18250000000E+03  0.18250000000E+03  0.00000000000E+00 0. -1.
        -11    1    1    2    0    0 -0.97252836249E+00  0.47533152909E+01  0.17979637556E+03  0.17986182608E+03  0.00000000000E+00 0.  1.
         11    1    1    2    0    0  0.55096678379E+01 -0.35092424301E+01 -0.17453652317E+03  0.17465872192E+03  0.00000000000E+00 0. -1.
        -15    1    1    2    0    0  0.54722936814E+00 -0.28694507685E+01 -0.16642274122E+01  0.38027081894E+01  0.17770000000E+01 0. -1.
         15    1    1    2    0    0 -0.50843688435E+01  0.16253779077E+01 -0.35956249743E+01  0.66767438049E+01  0.17770000000E+01 0.  1.
</event>
<event>
 6    1  0.8353910E-003  0.1912890E+03  0.7546771E-02  0.1061666E+00
        -11   -1    0    0    0    0  0.00000000000E+00  0.00000000000E+00  0.18250000000E+03  0.18250000000E+03  0.00000000000E+00 0. -1.
         11   -1    0    0    0    0 -0.00000000000E+00 -0.00000000000E+00 -0.18250000000E+03  0.18250000000E+03  0.00000000000E+00 0.  1.
        -11    1    1    2    0    0  0.31296369467E+01  0.34079085903E+01  0.13407851294E+03  0.13415832476E+03  0.00000000000E+00 0. -1.
         11    1    1    2    0    0 -0.51367648959E+01  0.27891640730E+01 -0.17361266747E+03  0.17371103620E+03  0.00000000000E+00 0.  1.
        -15    1    1    2    0    0  0.30348075641E+01 -0.12548872221E+02 -0.35701575195E+01  0.13512512893E+02  0.17770000000E+01 0.  1.
         15    1    1    2    0    0 -0.10276796149E+01  0.63517995582E+01  0.43104312048E+02  0.43618126154E+02  0.17770000000E+01 0. -1.
</event>
<event>
 6    1  0.8353910E-003  0.1844780E+03  0.7546771E-02  0.1066891E+00
        -11   -1    0    0    0    0  0.00000000000E+00  0.00000000000E+00  0.18250000000E+03  0.18250000000E+03  0.00000000000E+00 0.  1.
         11   -1    0    0    0    0 -0.00000000000E+00 -0.00000000000E+00 -0.18250000000E+03  0.18250000000E+03  0.00000000000E+00 0.  1.
        -11    1    1    2    0    0 -0.16071307399E+01 -0.52835629584E+01  0.18043751858E+03  0.18052201256E+03  0.00000000000E+00 0.  1.
         11    1    1    2    0    0 -0.12058301661E+02  0.50372584899E+01 -0.11792504598E+03  0.11864692614E+03  0.00000000000E+00 0.  1.
        -15    1    1    2    0    0  0.12347986362E+02 -0.24168117487E+01 -0.23938922490E+02  0.27102462714E+02  0.17770000000E+01 0.  1.
         15    1    1    2    0    0  0.13174460391E+01  0.26631162172E+01 -0.38573550106E+02  0.38728598592E+02  0.17770000000E+01 0. -1.
</event>
<event>
 6    1  0.8353910E-003  0.1841333E+03  0.7546771E-02  0.1067162E+00
        -11   -1    0    0    0    0  0.00000000000E+00  0.00000000000E+00  0.18250000000E+03  0.18250000000E+03  0.00000000000E+00 0.  1.
         11   -1    0    0    0    0 -0.00000000000E+00 -0.00000000000E+00 -0.18250000000E+03  0.18250000000E+03  0.00000000000E+00 0. -1.
        -11    1    1    2    0    0  0.23415064489E+01 -0.15027131126E+01  0.17482871635E+03  0.17485085319E+03  0.00000000000E+00 0.  1.
         11    1    1    2    0    0 -0.14195554151E+01  0.24881662802E+01 -0.18084400160E+03  0.18086668854E+03  0.00000000000E+00 0. -1.
        -15    1    1    2    0    0 -0.80448269042E+00 -0.23035998686E+01  0.16087041748E+00  0.30228088006E+01  0.17770000000E+01 0.  1.
         15    1    1    2    0    0 -0.11746834333E+00  0.13181467010E+01  0.58544148270E+01  0.62596494713E+01  0.17770000000E+01 0. -1.
</event>
<event>
 6    1  0.8353910E-003  0.1847725E+03  0.7546771E-02  0.1066660E+00
        -11   -1    0    0    0    0  0.00000000000E+00  0.00000000000E+00  0.18250000000E+03  0.18250000000E+03  0.00000000000E+00 0. -1.
         11   -1    0    0    0    0 -0.00000000000E+00 -0.00000000000E+00 -0.18250000000E+03  0.18250000000E+03  0.00000000000E+00 0. -1.
        -11    1    1    2    0    0 -0.28725451520E+01  0.23386258528E+01  0.18018942060E+03  0.18022748953E+03  0.00000000000E+00 0. -1.
         11    1    1    2    0    0 -0.94481395389E+00  0.28631535470E+01 -0.13643896286E+03  0.13647227157E+03  0.00000000000E+00 0. -1.
        -15    1    1    2    0    0  0.26720327336E+01 -0.23774583362E+01 -0.44512204801E+02  0.44691007735E+02  0.17770000000E+01 0. -1.
         15    1    1    2    0    0  0.11453263723E+01 -0.28243210635E+01  0.76174705922E+00  0.36092311579E+01  0.17770000000E+01 0.  1.
</event>
<event>
 6    1  0.8353910E-003  0.1825962E+03  0.7546771E-02  0.1068378E+00
        -11   -1    0    0    0    0  0.00000000000E+00  0.00000000000E+00  0.18250000000E+03  0.18250000000E+03  0.00000000000E+00 0. -1.
         11   -1    0    0    0    0 -0.00000000000E+00 -0.00000000000E+00 -0.18250000000E+03  0.18250000000E+03  0.00000000000E+00 0. -1.
        -11    1    1    2    0    0  0.23140940966E+01  0.34166059157E+01  0.18235708189E+03  0.18240376516E+03  0.00000000000E+00 0. -1.
         11    1    1    2    0    0 -0.15106949063E+01 -0.40969187031E+00 -0.95337943944E+01  0.96614327138E+01  0.00000000000E+00 0. -1.
        -15    1    1    2    0    0  0.14924593940E+00 -0.28567434918E+01 -0.14459056142E+03  0.14462977369E+03  0.17770000000E+01 0. -1.
         15    1    1    2    0    0 -0.95264512976E+00 -0.15017055366E+00 -0.28232726080E+02  0.28305028437E+02  0.17770000000E+01 0.  1.
</event>
<event>
 6    1  0.8353910E-003  0.1896093E+03  0.7546771E-02  0.1062933E+00
        -11   -1    0    0    0    0  0.00000000000E+00  0.00000000000E+00  0.18250000000E+03  0.18250000000E+03  0.00000000000E+00 0.  1.
         11   -1    0    0    0    0 -0.00000000000E+00 -0.00000000000E+00 -0.18250000000E+03  0.18250000000E+03  0.00000000000E+00 0.  1.
        -11    1    1    2    0    0  0.46265847884E+01  0.54617980514E+01  0.81562161505E+02  0.81875653977E+02  0.00000000000E+00 0.  1.
         11    1    1    2    0    0 -0.61472190567E+01  0.11925671153E+01 -0.17527887756E+03  0.17539069370E+03  0.00000000000E+00 0.  1.
        -15    1    1    2    0    0 -0.69853926373E+01 -0.72216068410E+00  0.96562729147E+02  0.96834062270E+02  0.17770000000E+01 0. -1.
         15    1    1    2    0    0  0.85060269056E+01 -0.59322044826E+01 -0.28460130917E+01  0.10899590050E+02  0.17770000000E+01 0.  1.
</event>
<event>
 6    1  0.8353910E-003  0.1831596E+03  0.7546771E-02  0.1067931E+00
        -11   -1    0    0    0    0  0.00000000000E+00  0.00000000000E+00  0.18250000000E+03  0.18250000000E+03  0.00000000000E+00 0.  1.
         11   -1    0    0    0    0 -0.00000000000E+00 -0.00000000000E+00 -0.18250000000E+03  0.18250000000E+03  0.00000000000E+00 0. -1.
        -11    1    1    2    0    0  0.26853466006E+01 -0.20282691547E+00  0.18182048327E+03  0.18184042554E+03  0.00000000000E+00 0.  1.
         11    1    1    2    0    0  0.76441622498E+00  0.34089976003E+01 -0.16660645799E+03  0.16664308399E+03  0.00000000000E+00 0. -1.
        -15    1    1    2    0    0 -0.18575855120E+01 -0.30783424709E+01 -0.87618209655E+01  0.96360807352E+01  0.17770000000E+01 0. -1.
         15    1    1    2    0    0 -0.15921773136E+01 -0.12782821400E+00 -0.64522043077E+01  0.68804097319E+01  0.17770000000E+01 0.  1.
</event>
<event>
 6    1  0.8353910E-003  0.1829165E+03  0.7546771E-02  0.1068124E+00
        -11   -1    0    0    0    0  0.00000000000E+00  0.00000000000E+00  0.18250000000E+03  0.18250000000E+03  0.00000000000E+00 0.  1.
         11   -1    0    0    0    0 -0.00000000000E+00 -0.00000000000E+00 -0.18250000000E+03  0.18250000000E+03  0.00000000000E+00 0. -1.
        -11    1    1    2    0    0  0.21097122382E+01  0.23013623850E+01  0.18205672089E+03  0.18208348848E+03  0.00000000000E+00 0.  1.
         11    1    1    2    0    0 -0.48159663561E+00 -0.20295624190E+01 -0.15192871319E+03  0.15194303193E+03  0.00000000000E+00 0. -1.
        -15    1    1    2    0    0  0.17555789122E+01 -0.88913896100E+00 -0.63341227687E+01  0.68666924831E+01  0.17770000000E+01 0. -1.
         15    1    1    2    0    0 -0.33836945148E+01  0.61733899497E+00 -0.23793884928E+02  0.24106787115E+02  0.17770000000E+01 0. -1.
</event>
<event>
 6    1  0.8353910E-003  0.1838900E+03  0.7546771E-02  0.1067354E+00
        -11   -1    0    0    0    0  0.00000000000E+00  0.00000000000E+00  0.18250000000E+03  0.18250000000E+03  0.00000000000E+00 0.  1.
         11   -1    0    0    0    0 -0.00000000000E+00 -0.00000000000E+00 -0.18250000000E+03  0.18250000000E+03  0.00000000000E+00 0. -1.
        -11    1    1    2    0    0  0.10445198007E+01 -0.52376299223E+01  0.18103126397E+03  0.18111002822E+03  0.00000000000E+00 0.  1.
         11    1    1    2    0    0  0.37377569681E+01  0.55602523698E+01 -0.15481843481E+03  0.15496333434E+03  0.00000000000E+00 0. -1.
        -15    1    1    2    0    0 -0.28148250380E+01 -0.48349790361E+01 -0.19786229115E+02  0.20638625290E+02  0.17770000000E+01 0.  1.
         15    1    1    2    0    0 -0.19674517309E+01  0.45123565887E+01 -0.64266000422E+01  0.82880121501E+01  0.17770000000E+01 0. -1.
</event>
<event>
 6    1  0.8353910E-003  0.1859143E+03  0.7546771E-02  0.1065769E+00
        -11   -1    0    0    0    0  0.00000000000E+00  0.00000000000E+00  0.18250000000E+03  0.18250000000E+03  0.00000000000E+00 0. -1.
         11   -1    0    0    0    0 -0.00000000000E+00 -0.00000000000E+00 -0.18250000000E+03  0.18250000000E+03  0.00000000000E+00 0. -1.
        -11    1    1    2    0    0 -0.27051796233E+01 -0.39519179322E+01  0.16920525457E+03  0.16927301565E+03  0.00000000000E+00 0. -1.
         11    1    1    2    0    0 -0.28959822082E+01  0.64961139834E-01 -0.17906223750E+03  0.17908566618E+03  0.00000000000E+00 0. -1.
        -15    1    1    2    0    0  0.68178114440E+01  0.61278576663E+01  0.97950680962E+01  0.13532711497E+02  0.17770000000E+01 0. -1.
         15    1    1    2    0    0 -0.12166496125E+01 -0.22409008740E+01  0.61914833475E-01  0.31086066739E+01  0.17770000000E+01 0.  1.
</event>
<event>
 6    1  0.8353910E-003  0.1837819E+03  0.7546771E-02  0.1067439E+00
        -11   -1    0    0    0    0  0.00000000000E+00  0.00000000000E+00  0.18250000000E+03  0.18250000000E+03  0.00000000000E+00 0. -1.
         11   -1    0    0    0    0 -0.00000000000E+00 -0.00000000000E+00 -0.18250000000E+03  0.18250000000E+03  0.00000000000E+00 0. -1.
        -11    1    1    2    0    0 -0.11072717013E+01 -0.97944865202E+01  0.18094981039E+03  0.18121807828E+03  0.00000000000E+00 0. -1.
         11    1    1    2    0    0  0.47546638360E+00  0.24138257576E+01 -0.12488855219E+03  0.12491278193E+03  0.00000000000E+00 0. -1.
        -15    1    1    2    0    0 -0.23460762784E+01 -0.26659328741E+00 -0.92407756165E+00  0.30962548708E+01  0.17770000000E+01 0. -1.
         15    1    1    2    0    0  0.29778815962E+01  0.76472540500E+01 -0.55137180640E+02  0.55772884911E+02  0.17770000000E+01 0. -1.
</event>
<event>
 6    1  0.8353910E-003  0.1834503E+03  0.7546771E-02  0.1067701E+00
        -11   -1    0    0    0    0  0.00000000000E+00  0.00000000000E+00  0.18250000000E+03  0.18250000000E+03  0.00000000000E+00 0. -1.
         11   -1    0    0    0    0 -0.00000000000E+00 -0.00000000000E+00 -0.18250000000E+03  0.18250000000E+03  0.00000000000E+00 0. -1.
        -11    1    1    2    0    0  0.37784815408E+01  0.89419132045E+01  0.18128996686E+03  0.18154968140E+03  0.00000000000E+00 0. -1.
         11    1    1    2    0    0 -0.17731344850E+01  0.48652305385E+00 -0.12940071313E+03  0.12941377542E+03  0.00000000000E+00 0. -1.
        -15    1    1    2    0    0 -0.55865582254E+00 -0.68179753836E+01 -0.11500798157E+02  0.13498998922E+02  0.17770000000E+01 0.  1.
         15    1    1    2    0    0 -0.14466912333E+01 -0.26104608747E+01 -0.40388455572E+02  0.40537544252E+02  0.17770000000E+01 0. -1.
</event>
<event>
 6    1  0.8353910E-003  0.1827407E+03  0.7546771E-02  0.1068263E+00
        -11   -1    0    0    0    0  0.00000000000E+00  0.00000000000E+00  0.18250000000E+03  0.18250000000E+03  0.00000000000E+00 0. -1.
         11   -1    0    0    0    0 -0.00000000000E+00 -0.00000000000E+00 -0.18250000000E+03  0.18250000000E+03  0.00000000000E+00 0.  1.
        -11    1    1    2    0    0  0.10219053244E+01  0.27808089164E+01  0.18223520886E+03  0.18225928931E+03  0.00000000000E+00 0. -1.
         11    1    1    2    0    0  0.24721889613E+01 -0.89590456486E-01 -0.80562558599E+02  0.80600530971E+02  0.00000000000E+00 0.  1.
        -15    1    1    2    0    0  0.12534187148E+01  0.53807133264E+00 -0.59416855366E+02  0.59459070038E+02  0.17770000000E+01 0.  1.
         15    1    1    2    0    0 -0.47475130006E+01 -0.32292897925E+01 -0.42255794900E+02  0.42681109684E+02  0.17770000000E+01 0.  1.
</event>
<event>
 6    1  0.8353910E-003  0.1874484E+03  0.7546771E-02  0.1064583E+00
        -11   -1    0    0    0    0  0.00000000000E+00  0.00000000000E+00  0.18250000000E+03  0.18250000000E+03  0.00000000000E+00 0.  1.
         11   -1    0    0    0    0 -0.00000000000E+00 -0.00000000000E+00 -0.18250000000E+03  0.18250000000E+03  0.00000000000E+00 0.  1.
        -11    1    1    2    0    0 -0.37558036230E+01 -0.14717751940E+01  0.15192210285E+03  0.15197564778E+03  0.00000000000E+00 0.  1.
         11    1    1    2    0    0 -0.73690763373E+01 -0.43700365139E+01 -0.17734477566E+03  0.17755159802E+03  0.00000000000E+00 0.  1.
        -15    1    1    2    0    0  0.47906293402E+01  0.84428057266E+01  0.26535785376E+02  0.28311424064E+02  0.17770000000E+01 0.  1.
         15    1    1    2    0    0  0.63342506201E+01 -0.26009940187E+01 -0.11131125697E+01  0.71613301415E+01  0.17770000000E+01 0. -1.
</event>
<event>
 6    1  0.8353910E-003  0.1842726E+03  0.7546771E-02  0.1067053E+00
        -11   -1    0    0    0    0  0.00000000000E+00  0.00000000000E+00  0.18250000000E+03  0.18250000000E+03  0.00000000000E+00 0. -1.
         11   -1    0    0    0    0 -0.00000000000E+00 -0.00000000000E+00 -0.18250000000E+03  0.18250000000E+03  0.00000000000E+00 0.  1.
        -11    1    1    2    0    0  0.26546020542E+01  0.32058136105E+00  0.18070763998E+03  0.18072742136E+03  0.00000000000E+00 0. -1.
         11    1    1    2    0    0  0.28758657691E+01  0.38113004052E+00 -0.17169855153E+03  0.17172305745E+03  0.00000000000E+00 0.  1.
        -15    1    1    2    0    0 -0.14548252456E+01 -0.89249761456E+00 -0.74292056998E+01  0.78271255783E+01  0.17770000000E+01 0. -1.
         15    1    1    2    0    0 -0.40756425776E+01  0.19078621299E+00 -0.15798827503E+01  0.47223956107E+01  0.17770000000E+01 0. -1.
</event>
<event>
 6    1  0.8353910E-003  0.1831196E+03  0.7546771E-02  0.1067963E+00
        -11   -1    0    0    0    0  0.00000000000E+00  0.00000000000E+00  0.18250000000E+03  0.18250000000E+03  0.00000000000E+00 0.  1.
         11   -1    0    0    0    0 -0.00000000000E+00 -0.00000000000E+00 -0.18250000000E+03  0.18250000000E+03  0.00000000000E+00 0.  1.
        -11    1    1    2    0    0  0.63275981139E+00 -0.28084075929E+01  0.18185764025E+03  0.18188042461E+03  0.00000000000E+00 0.  1.
         11    1    1    2    0    0  0.25576310379E+01 -0.14450013601E+01 -0.13376917866E+03  0.13380142998E+03  0.00000000000E+00 0.  1.
        -15    1    1    2    0    0  0.26999933354E+01  0.10230211183E+01 -0.90123989939E+01  0.96289979149E+01  0.17770000000E+01 0.  1.
         15    1    1    2    0    0 -0.58903841847E+01  0.32303878348E+01 -0.39076062604E+02  0.39689147497E+02  0.17770000000E+01 0. -1.
</event>
<event>
 6    1  0.8353910E-003  0.1766908E+03  0.7546771E-02  0.1073175E+00
        -11   -1    0    0    0    0  0.00000000000E+00  0.00000000000E+00  0.18250000000E+03  0.18250000000E+03  0.00000000000E+00 0. -1.
         11   -1    0    0    0    0 -0.00000000000E+00 -0.00000000000E+00 -0.18250000000E+03  0.18250000000E+03  0.00000000000E+00 0.  1.
        -11    1    1    2    0    0  0.62143070097E+01 -0.15097891329E+01  0.17687110512E+03  0.17698668001E+03  0.00000000000E+00 0. -1.
         11    1    1    2    0    0  0.18326081931E+01  0.15300813056E+01 -0.17647068461E+03  0.17648683273E+03  0.00000000000E+00 0.  1.
        -15    1    1    2    0    0  0.95920534292E+00 -0.45875638810E-01 -0.11357499664E+01  0.23172907565E+01  0.17770000000E+01 0.  1.
         15    1    1    2    0    0 -0.90061205457E+01  0.25583466130E-01  0.73532945886E+00  0.92091965019E+01  0.17770000000E+01 0.  1.
</event>
<event>
 6    1  0.8353910E-003  0.1671085E+03  0.7546771E-02  0.1081412E+00
        -11   -1    0    0    0    0  0.00000000000E+00  0.00000000000E+00  0.18250000000E+03  0.18250000000E+03  0.00000000000E+00 0. -1.
         11   -1    0    0    0    0 -0.00000000000E+00 -0.00000000000E+00 -0.18250000000E+03  0.18250000000E+03  0.00000000000E+00 0. -1.
        -11    1    1    2    0    0  0.37381358841E+01 -0.13648075528E+01  0.16594781547E+03  0.16599552349E+03  0.00000000000E+00 0. -1.
         11    1    1    2    0    0  0.30766002304E+01 -0.26435854803E+01 -0.16827421394E+03  0.16832309732E+03  0.00000000000E+00 0. -1.
        -15    1    1    2    0    0 -0.99279172813E+01  0.52232056489E+01 -0.11609043148E+02  0.16241090807E+02  0.17770000000E+01 0.  1.
         15    1    1    2    0    0  0.31131811668E+01 -0.12148126157E+01  0.13935441615E+02  0.14440288386E+02  0.17770000000E+01 0. -1.
</event>
<event>
 6    1  0.8353910E-003  0.1828758E+03  0.7546771E-02  0.1068156E+00
        -11   -1    0    0    0    0  0.00000000000E+00  0.00000000000E+00  0.18250000000E+03  0.18250000000E+03  0.00000000000E+00 0.  1.
         11   -1    0    0    0    0 -0.00000000000E+00 -0.00000000000E+00 -0.18250000000E+03  0.18250000000E+03  0.00000000000E+00 0.  1.
        -11    1    1    2    0    0  0.93957637399E+00  0.52781610978E+00  0.76602109716E+02  0.76609690030E+02  0.00000000000E+00 0.  1.
         11    1    1    2    0    0 -0.43447711239E+01  0.11778494107E+01 -0.18206851517E+03  0.18212415705E+03  0.00000000000E+00 0.  1.
        -15    1    1    2    0    0  0.68878330206E+01  0.22211178171E+01  0.63334013798E+02  0.63770923161E+02  0.17770000000E+01 0.  1.
         15    1    1    2    0    0 -0.34826382707E+01 -0.39267833376E+01  0.42132391655E+02  0.42495229759E+02  0.17770000000E+01 0. -1.
</event>
<event>
 6    1  0.8353910E-003  0.1826591E+03  0.7546771E-02  0.1068328E+00
        -11   -1    0    0    0    0  0.00000000000E+00  0.00000000000E+00  0.18250000000E+03  0.18250000000E+03  0.00000000000E+00 0.  1.
         11   -1    0    0    0    0 -0.00000000000E+00 -0.00000000000E+00 -0.18250000000E+03  0.18250000000E+03  0.00000000000E+00 0. -1.
        -11    1    1    2    0    0 -0.68740278929E+00  0.37539379142E+01  0.18230099146E+03  0.18234093358E+03  0.00000000000E+00 0.  1.
         11    1    1    2    0    0  0.12864159535E+01 -0.10064355149E+01 -0.97406863978E+02  0.97420557012E+02  0.00000000000E+00 0. -1.
        -15    1    1    2    0    0 -0.14356763214E+01 -0.93794164156E+00 -0.10129106632E+02  0.10425806021E+02  0.17770000000E+01 0.  1.
         15    1    1    2    0    0  0.83666315722E+00 -0.18095607578E+01 -0.74765020852E+02  0.74812703383E+02  0.17770000000E+01 0. -1.
</event>
<event>
 6    1  0.8353910E-003  0.1835034E+03  0.7546771E-02  0.1067659E+00
        -11   -1    0    0    0    0  0.00000000000E+00  0.00000000000E+00  0.18250000000E+03  0.18250000000E+03  0.00000000000E+00 0. -1.
         11   -1    0    0    0    0 -0.00000000000E+00 -0.00000000000E+00 -0.18250000000E+03  0.18250000000E+03  0.00000000000E+00 0.  1.
        -11    1    1    2    0    0  0.35496600720E+01 -0.28698478462E+01  0.18143921560E+03  0.18149662551E+03  0.00000000000E+00 0. -1.
         11    1    1    2    0    0 -0.10716030281E+01  0.18322215232E+01 -0.10268199151E+03  0.10270392762E+03  0.00000000000E+00 0.  1.
        -15    1    1    2    0    0  0.43188027505E+00  0.15977964471E+01 -0.51684606648E+00  0.24828074663E+01  0.17770000000E+01 0. -1.
         15    1    1    2    0    0 -0.29099373190E+01 -0.56017012399E+00 -0.78240378020E+02  0.78316639404E+02  0.17770000000E+01 0.  1.
</event>
<event>
 6    1  0.8353910E-003  0.1845510E+03  0.7546771E-02  0.1066834E+00
        -11   -1    0    0    0    0  0.00000000000E+00  0.00000000000E+00  0.18250000000E+03  0.18250000000E+03  0.00000000000E+00 0.  1.
         11   -1    0    0    0    0 -0.00000000000E+00 -0.00000000000E+00 -0.18250000000E+03  0.18250000000E+03  0.00000000000E+00 0.  1.
        -11    1    1    2    0    0  0.86424680931E+01  0.26136863987E+00  0.89869973868E+02  0.90284953183E+02  0.00000000000E+00 0.  1.
         11    1    1    2    0    0 -0.13064320311E+02  0.89418834802E+01 -0.17975314113E+03  0.18044895536E+03  0.00000000000E+00 0.  1.
        -15    1    1    2    0    0  0.92207828994E+01 -0.11992071081E+02  0.85821050451E+02  0.87162165161E+02  0.17770000000E+01 0.  1.
         15    1    1    2    0    0 -0.47989306815E+01  0.27888189613E+01  0.40621168068E+01  0.71039262973E+01  0.17770000000E+01 0. -1.
</event>
<event>
 6    1  0.8353910E-003  0.1840681E+03  0.7546771E-02  0.1067213E+00
        -11   -1    0    0    0    0  0.00000000000E+00  0.00000000000E+00  0.18250000000E+03  0.18250000000E+03  0.00000000000E+00 0.  1.
         11   -1    0    0    0    0 -0.00000000000E+00 -0.00000000000E+00 -0.18250000000E+03  0.18250000000E+03  0.00000000000E+00 0.  1.
        -11    1    1    2    0    0  0.43974707414E+01  0.46358713442E+01  0.18081908161E+03  0.18093194668E+03  0.00000000000E+00 0.  1.
         11    1    1    2    0    0 -0.55137087980E+00  0.25730189249E+01 -0.13627038864E+03  0.13629579325E+03  0.00000000000E+00 0.  1.
        -15    1    1    2    0    0 -0.84863088189E+00 -0.72715324467E+00  0.47404509017E+00  0.21520627227E+01  0.17770000000E+01 0.  1.
         15    1    1    2    0    0 -0.29974689797E+01 -0.64817370244E+01 -0.45022738060E+02  0.45620197353E+02  0.17770000000E+01 0. -1.
</event>
<event>
 6    1  0.8353910E-003  0.1827970E+03  0.7546771E-02  0.1068219E+00
        -11   -1    0    0    0    0  0.00000000000E+00  0.00000000000E+00  0.18250000000E+03  0.18250000000E+03  0.00000000000E+00 0.  1.
         11   -1    0    0    0    0 -0.00000000000E+00 -0.00000000000E+00 -0.18250000000E+03  0.18250000000E+03  0.00000000000E+00 0. -1.
        -11    1    1    2    0    0  0.56359164770E+01  0.27695965554E+01  0.18209479012E+03  0.18220303732E+03  0.00000000000E+00 0.  1.
         11    1    1    2    0    0 -0.97944294297E-01 -0.29010255864E+01 -0.56436981170E+02  0.56511577452E+02  0.00000000000E+00 0. -1.
        -15    1    1    2    0    0 -0.80982016055E+01 -0.23038569065E+01 -0.83252542419E+02  0.83696070243E+02  0.17770000000E+01 0. -1.
         15    1    1    2    0    0  0.25602294227E+01  0.24352859375E+01 -0.42405266531E+02  0.42589314985E+02  0.17770000000E+01 0.  1.
</event>
<event>
 6    1  0.8353910E-003  0.1856202E+03  0.7546771E-02  0.1065998E+00
        -11   -1    0    0    0    0  0.00000000000E+00  0.00000000000E+00  0.18250000000E+03  0.18250000000E+03  0.00000000000E+00 0. -1.
         11   -1    0    0    0    0 -0.00000000000E+00 -0.00000000000E+00 -0.18250000000E+03  0.18250000000E+03  0.00000000000E+00 0. -1.
        -11    1    1    2    0    0  0.23081974160E+01 -0.40121168661E+01  0.13712629701E+03  0.13720439566E+03  0.00000000000E+00 0. -1.
         11    1    1    2    0    0  0.27916878894E+01  0.10578018299E+01 -0.17935495214E+03  0.17937979631E+03  0.00000000000E+00 0. -1.
        -15    1    1    2    0    0 -0.44519590960E+01 -0.22962874322E+01 -0.48674494275E+00  0.53373706451E+01  0.17770000000E+01 0. -1.
         15    1    1    2    0    0 -0.64792620938E+00  0.52506024685E+01  0.42715400076E+02  0.43078437383E+02  0.17770000000E+01 0. -1.
</event>
<event>
 6    1  0.8353910E-003  0.1864541E+03  0.7546771E-02  0.1065350E+00
        -11   -1    0    0    0    0  0.00000000000E+00  0.00000000000E+00  0.18250000000E+03  0.18250000000E+03  0.00000000000E+00 0.  1.
         11   -1    0    0    0    0 -0.00000000000E+00 -0.00000000000E+00 -0.18250000000E+03  0.18250000000E+03  0.00000000000E+00 0. -1.
        -11    1    1    2    0    0 -0.37029441702E+01  0.11302461616E+01  0.17346587072E+03  0.17350907053E+03  0.00000000000E+00 0.  1.
         11    1    1    2    0    0  0.18712218641E+01  0.26216274131E+01 -0.17851685789E+03  0.17854591273E+03  0.00000000000E+00 0. -1.
        -15    1    1    2    0    0 -0.24182565455E+01 -0.21084662080E+01  0.68203335224E+01  0.77439184414E+01  0.17770000000E+01 0.  1.
         15    1    1    2    0    0  0.42499788516E+01 -0.16434073666E+01 -0.17693463444E+01  0.52010982973E+01  0.17770000000E+01 0. -1.
</event>
<event>
 6    1  0.8353910E-003  0.1831109E+03  0.7546771E-02  0.1067970E+00
        -11   -1    0    0    0    0  0.00000000000E+00  0.00000000000E+00  0.18250000000E+03  0.18250000000E+03  0.00000000000E+00 0. -1.
         11   -1    0    0    0    0 -0.00000000000E+00 -0.00000000000E+00 -0.18250000000E+03  0.18250000000E+03  0.00000000000E+00 0. -1.
        -11    1    1    2    0    0 -0.11334640965E+01  0.94630673679E+00  0.73115978063E+02  0.73130885988E+02  0.00000000000E+00 0. -1.
         11    1    1    2    0    0  0.27579271893E+01  0.66177639609E+01 -0.18174775887E+03  0.18188911132E+03  0.00000000000E+00 0. -1.
        -15    1    1    2    0    0  0.32315270405E+01  0.30129358370E+01  0.46449389926E+02  0.46692869937E+02  0.17770000000E+01 0. -1.
         15    1    1    2    0    0 -0.48559901333E+01 -0.10577006535E+02  0.62182390883E+02  0.63287132755E+02  0.17770000000E+01 0. -1.
</event>
<event>
 6    1  0.8353910E-003  0.1828604E+03  0.7546771E-02  0.1068168E+00
        -11   -1    0    0    0    0  0.00000000000E+00  0.00000000000E+00  0.18250000000E+03  0.18250000000E+03  0.00000000000E+00 0. -1.
         11   -1    0    0    0    0 -0.00000000000E+00 -0.00000000000E+00 -0.18250000000E+03  0.18250000000E+03  0.00000000000E+00 0.  1.
        -11    1    1    2    0    0  0.27440786337E+01 -0.11491520048E+00  0.18211892216E+03  0.18213963045E+03  0.00000000000E+00 0. -1.
         11    1    1    2    0    0  0.17066856763E+01  0.33600877292E+01 -0.11191992674E+03  0.11198336022E+03  0.00000000000E+00 0.  1.
        -15    1    1    2    0    0 -0.12621003761E+01  0.12733233403E+01 -0.75821167813E+01  0.79912748403E+01  0.17770000000E+01 0.  1.
         15    1    1    2    0    0 -0.31886639338E+01 -0.45184958690E+01 -0.62616878636E+02  0.62885734485E+02  0.17770000000E+01 0. -1.
</event>
<event>
 6    1  0.8353910E-003  0.1838949E+03  0.7546771E-02  0.1067350E+00
        -11   -1    0    0    0    0  0.00000000000E+00  0.00000000000E+00  0.18250000000E+03  0.18250000000E+03  0.00000000000E+00 0. -1.
         11   -1    0    0    0    0 -0.00000000000E+00 -0.00000000000E+00 -0.18250000000E+03  0.18250000000E+03  0.00000000000E+00 0.  1.
        -11    1    1    2    0    0  0.16016042031E+01 -0.92991501072E+01  0.18085914522E+03  0.18110513449E+03  0.00000000000E+00 0. -1.
         11    1    1    2    0    0  0.30970089518E+01  0.79411750530E+00 -0.12910393540E+03  0.12914351793E+03  0.00000000000E+00 0.  1.
        -15    1    1    2    0    0 -0.22151974282E+01  0.86389804969E+01 -0.12939198758E+02  0.15815172372E+02  0.17770000000E+01 0. -1.
         15    1    1    2    0    0 -0.24834157267E+01 -0.13394789505E+00 -0.38816011067E+02  0.38936175209E+02  0.17770000000E+01 0. -1.
</event>
<event>
 6    1  0.8353910E-003  0.1987380E+03  0.7546771E-02  0.1056217E+00
        -11   -1    0    0    0    0  0.00000000000E+00  0.00000000000E+00  0.18250000000E+03  0.18250000000E+03  0.00000000000E+00 0. -1.
         11   -1    0    0    0    0 -0.00000000000E+00 -0.00000000000E+00 -0.18250000000E+03  0.18250000000E+03  0.00000000000E+00 0. -1.
        -11    1    1    2    0    0  0.21089351671E+02 -0.50358589378E+01  0.11267344846E+03  0.11474069294E+03  0.00000000000E+00 0. -1.
         11    1    1    2    0    0  0.23161231266E+01  0.65602854178E+00 -0.16624453742E+03  0.16626196505E+03  0.00000000000E+00 0. -1.
        -15    1    1    2    0    0 -0.36685479258E+01 -0.27139499455E+02  0.23809337362E+02  0.36332532931E+02  0.17770000000E+01 0.  1.
         15    1    1    2    0    0 -0.19736926872E+02  0.31519329851E+02  0.29761751606E+02  0.47664809076E+02  0.17770000000E+01 0. -1.
</event>
<event>
 6    1  0.8353910E-003  0.1928990E+03  0.7546771E-02  0.1060466E+00
        -11   -1    0    0    0    0  0.00000000000E+00  0.00000000000E+00  0.18250000000E+03  0.18250000000E+03  0.00000000000E+00 0.  1.
         11   -1    0    0    0    0 -0.00000000000E+00 -0.00000000000E+00 -0.18250000000E+03  0.18250000000E+03  0.00000000000E+00 0.  1.
        -11    1    1    2    0    0 -0.16873550529E+02  0.71525816409E+01  0.15791479325E+03  0.15897470887E+03  0.00000000000E+00 0.  1.
         11    1    1    2    0    0  0.54467813937E+01  0.33252698587E+01 -0.17198260764E+03  0.17210096507E+03  0.00000000000E+00 0.  1.
        -15    1    1    2    0    0 -0.75167413463E+01 -0.28643117800E+01 -0.12588680079E+01  0.83335562698E+01  0.17770000000E+01 0. -1.
         15    1    1    2    0    0  0.18943510482E+02 -0.76135397196E+01  0.15326682392E+02  0.25590769792E+02  0.17770000000E+01 0.  1.
</event>
<event>
 6    1  0.8353910E-003  0.1865471E+03  0.7546771E-02  0.1065278E+00
        -11   -1    0    0    0    0  0.00000000000E+00  0.00000000000E+00  0.18250000000E+03  0.18250000000E+03  0.00000000000E+00 0. -1.
         11   -1    0    0    0    0 -0.00000000000E+00 -0.00000000000E+00 -0.18250000000E+03  0.18250000000E+03  0.00000000000E+00 0.  1.
        -11    1    1    2    0    0  0.32687927331E+01  0.49999024545E+01  0.17501188340E+03  0.17511380117E+03  0.00000000000E+00 0. -1.
         11    1    1    2    0    0 -0.11812220127E+01 -0.31886421900E+01 -0.17842053941E+03  0.17845293948E+03  0.00000000000E+00 0.  1.
        -15    1    1    2    0    0  0.85057978995E+00 -0.54954739867E+01  0.13467364075E+01  0.59912559843E+01  0.17770000000E+01 0. -1.
         15    1    1    2    0    0 -0.29381505103E+01  0.36842137222E+01  0.20619196064E+01  0.54420033660E+01  0.17770000000E+01 0.  1.
</event>
<event>
 6    1  0.8353910E-003  0.1857384E+03  0.7546771E-02  0.1065906E+00
        -11   -1    0    0    0    0  0.00000000000E+00  0.00000000000E+00  0.18250000000E+03  0.18250000000E+03  0.00000000000E+00 0.  1.
         11   -1    0    0    0    0 -0.00000000000E+00 -0.00000000000E+00 -0.18250000000E+03  0.18250000000E+03  0.00000000000E+00 0. -1.
        -11    1    1    2    0    0 -0.42481301459E+01  0.56818794158E+00  0.17921035076E+03  0.17926159451E+03  0.00000000000E+00 0.  1.
         11    1    1    2    0    0  0.83000760062E+01 -0.31362352766E+01 -0.16887204692E+03  0.16910498356E+03  0.00000000000E+00 0. -1.
        -15    1    1    2    0    0 -0.47442123464E+01  0.67285071675E+00 -0.12290575991E+02  0.13310757532E+02  0.17770000000E+01 0. -1.
         15    1    1    2    0    0  0.69226648603E+00  0.18951966183E+01  0.19522721527E+01  0.33226643929E+01  0.17770000000E+01 0.  1.
</event>
<event>
 6    1  0.8353910E-003  0.1851785E+03  0.7546771E-02  0.1066343E+00
        -11   -1    0    0    0    0  0.00000000000E+00  0.00000000000E+00  0.18250000000E+03  0.18250000000E+03  0.00000000000E+00 0.  1.
         11   -1    0    0    0    0 -0.00000000000E+00 -0.00000000000E+00 -0.18250000000E+03  0.18250000000E+03  0.00000000000E+00 0.  1.
        -11    1    1    2    0    0  0.12303318129E+01 -0.46668338404E+01  0.16338987642E+03  0.16346114147E+03  0.00000000000E+00 0.  1.
         11    1    1    2    0    0 -0.29617436432E+01 -0.10771184838E+01 -0.17979389198E+03  0.17982151068E+03  0.00000000000E+00 0.  1.
        -15    1    1    2    0    0  0.24383127157E+01  0.42893679794E+01  0.10818351118E+00  0.52453292780E+01  0.17770000000E+01 0. -1.
         15    1    1    2    0    0 -0.70690088543E+00  0.14545843447E+01  0.16295832056E+02  0.16472018573E+02  0.17770000000E+01 0. -1.
</event>
<event>
 6    1  0.8353910E-003  0.1827001E+03  0.7546771E-02  0.1068296E+00
        -11   -1    0    0    0    0  0.00000000000E+00  0.00000000000E+00  0.18250000000E+03  0.18250000000E+03  0.00000000000E+00 0.  1.
         11   -1    0    0    0    0 -0.00000000000E+00 -0.00000000000E+00 -0.18250000000E+03  0.18250000000E+03  0.00000000000E+00 0.  1.
        -11    1    1    2    0    0 -0.13126910412E+01  0.12866565303E+01  0.11283254989E+03  0.11284752083E+03  0.00000000000E+00 0.  1.
         11    1    1    2    0    0  0.14724940188E+01  0.27836475108E+01 -0.18227270966E+03  0.18229991119E+03  0.00000000000E+00 0.  1.
        -15    1    1    2    0    0  0.11097848083E+01  0.69297842863E+00  0.15108949025E+02  0.15269247233E+02  0.17770000000E+01 0.  1.
         15    1    1    2    0    0 -0.12695877859E+01 -0.47632824698E+01  0.54331210751E+02  0.54583320747E+02  0.17770000000E+01 0.  1.
</event>
<event>
 6    1  0.8353910E-003  0.1832382E+03  0.7546771E-02  0.1067869E+00
        -11   -1    0    0    0    0  0.00000000000E+00  0.00000000000E+00  0.18250000000E+03  0.18250000000E+03  0.00000000000E+00 0. -1.
         11   -1    0    0    0    0 -0.00000000000E+00 -0.00000000000E+00 -0.18250000000E+03  0.18250000000E+03  0.00000000000E+00 0. -1.
        -11    1    1    2    0    0  0.69093760831E+01  0.17636285760E+01  0.18162188912E+03  0.18176182347E+03  0.00000000000E+00 0. -1.
         11    1    1    2    0    0 -0.10767600570E+01  0.20592444907E-01 -0.58392826549E+02  0.58402757029E+02  0.00000000000E+00 0. -1.
        -15    1    1    2    0    0  0.21400619311E+01  0.99299949659E+00 -0.27116009375E+01  0.40095413346E+01  0.17770000000E+01 0.  1.
         15    1    1    2    0    0 -0.79726779572E+01 -0.27772205175E+01 -0.12051746163E+03  0.12082587817E+03  0.17770000000E+01 0. -1.
</event>
<event>
 6    1  0.8353910E-003  0.1827580E+03  0.7546771E-02  0.1068250E+00
        -11   -1    0    0    0    0  0.00000000000E+00  0.00000000000E+00  0.18250000000E+03  0.18250000000E+03  0.00000000000E+00 0.  1.
         11   -1    0    0    0    0 -0.00000000000E+00 -0.00000000000E+00 -0.18250000000E+03  0.18250000000E+03  0.00000000000E+00 0. -1.
        -11    1    1    2    0    0 -0.80278392324E+00 -0.20815271668E+01  0.11457386471E+03  0.11459558322E+03  0.00000000000E+00 0.  1.
         11    1    1    2    0    0  0.29817291011E+01  0.25311001283E+01 -0.18220004428E+03  0.18224201851E+03  0.00000000000E+00 0. -1.
        -15    1    1    2    0    0 -0.31055733642E+00  0.22281713080E+01  0.52783070528E+02  0.52860868859E+02  0.17770000000E+01 0.  1.
         15    1    1    2    0    0 -0.18683878415E+01 -0.26777442694E+01  0.14843109035E+02  0.15301529412E+02  0.17770000000E+01 0. -1.
</event>
<event>
 6    1  0.8353910E-003  0.2265888E+03  0.7546771E-02  0.1037936E+00
        -11   -1    0    0    0    0  0.00000000000E+00  0.00000000000E+00  0.18250000000E+03  0.18250000000E+03  0.00000000000E+00 0.  1.
         11   -1    0    0    0    0 -0.00000000000E+00 -0.00000000000E+00 -0.18250000000E+03  0.18250000000E+03  0.00000000000E+00 0. -1.
        -11    1    1    2    0    0  0.27856299338E+01 -0.38618358408E+01  0.10170528087E+03  0.10181668658E+03  0.00000000000E+00 0.  1.
         11    1    1    2    0    0  0.14262145159E+01 -0.14823947432E+01 -0.13839592771E+03  0.13841121482E+03  0.00000000000E+00 0. -1.
        -15    1    1    2    0    0  0.46520353769E+02 -0.11550696219E+02 -0.15123487103E+02  0.50293533273E+02  0.17770000000E+01 0. -1.
         15    1    1    2    0    0 -0.50732198219E+02  0.16894926803E+02  0.51814133940E+02  0.74478565325E+02  0.17770000000E+01 0.  1.
</event>
<event>
 6    1  0.8353910E-003  0.1828916E+03  0.7546771E-02  0.1068144E+00
        -11   -1    0    0    0    0  0.00000000000E+00  0.00000000000E+00  0.18250000000E+03  0.18250000000E+03  0.00000000000E+00 0.  1.
         11   -1    0    0    0    0 -0.00000000000E+00 -0.00000000000E+00 -0.18250000000E+03  0.18250000000E+03  0.00000000000E+00 0. -1.
        -11    1    1    2    0    0 -0.11973185927E+00 -0.50151899059E+01  0.18203927344E+03  0.18210838405E+03  0.00000000000E+00 0.  1.
         11    1    1    2    0    0 -0.23707486092E+01 -0.14952360368E+01 -0.11637598253E+03  0.11640973107E+03  0.00000000000E+00 0. -1.
        -15    1    1    2    0    0  0.30837839942E+01  0.17795798748E+01 -0.45968680589E+02  0.46140588990E+02  0.17770000000E+01 0.  1.
         15    1    1    2    0    0 -0.59330352566E+00  0.47308460680E+01 -0.19694610326E+02  0.20341295890E+02  0.17770000000E+01 0.  1.
</event>
<event>
 6    1  0.8353910E-003  0.1864125E+03  0.7546771E-02  0.1065382E+00
        -11   -1    0    0    0    0  0.00000000000E+00  0.00000000000E+00  0.18250000000E+03  0.18250000000E+03  0.00000000000E+00 0. -1.
         11   -1    0    0    0    0 -0.00000000000E+00 -0.00000000000E+00 -0.18250000000E+03  0.18250000000E+03  0.00000000000E+00 0. -1.
        -11    1    1    2    0    0 -0.15977893581E+01 -0.23855572845E+01  0.68504244670E+02  0.68564388367E+02  0.00000000000E+00 0. -1.
         11    1    1    2    0    0  0.46374126275E+00 -0.29862213804E+01 -0.17856189134E+03  0.17858746208E+03  0.00000000000E+00 0. -1.
        -15    1    1    2    0    0  0.17384295571E+01  0.17546820809E+02  0.19081602604E+02  0.26041857553E+02  0.17770000000E+01 0. -1.
         15    1    1    2    0    0 -0.60438146173E+00 -0.12175042144E+02  0.90976044064E+02  0.91806292000E+02  0.17770000000E+01 0. -1.
</event>
<event>
 6    1  0.8353910E-003  0.1852836E+03  0.7546771E-02  0.1066260E+00
        -11   -1    0    0    0    0  0.00000000000E+00  0.00000000000E+00  0.18250000000E+03  0.18250000000E+03  0.00000000000E+00 0.  1.
         11   -1    0    0    0    0 -0.00000000000E+00 -0.00000000000E+00 -0.18250000000E+03  0.18250000000E+03  0.00000000000E+00 0. -1.
        -11    1    1    2    0    0 -0.15216058883E+01 -0.23388443775E+01  0.17969469734E+03  0.17971635911E+03  0.00000000000E+00 0.  1.
         11    1    1    2    0    0  0.12687537786E+01  0.32535582096E+01 -0.14676002511E+03  0.14680156794E+03  0.00000000000E+00 0. -1.
        -15    1    1    2    0    0  0.71561898800E+01 -0.39912938664E+01 -0.56406017450E+01  0.10105226241E+02  0.17770000000E+01 0.  1.
         15    1    1    2    0    0 -0.69033377703E+01  0.30765800344E+01 -0.27294070484E+02  0.28376846718E+02  0.17770000000E+01 0. -1.
</event>
<event>
 6    1  0.8353910E-003  0.2076103E+03  0.7546771E-02  0.1050057E+00
        -11   -1    0    0    0    0  0.00000000000E+00  0.00000000000E+00  0.18250000000E+03  0.18250000000E+03  0.00000000000E+00 0.  1.
         11   -1    0    0    0    0 -0.00000000000E+00 -0.00000000000E+00 -0.18250000000E+03  0.18250000000E+03  0.00000000000E+00 0.  1.
        -11    1    1    2    0    0 -0.46701082060E+01  0.79559132065E+00  0.15731843292E+03  0.15738974621E+03  0.00000000000E+00 0.  1.
         11    1    1    2    0    0 -0.84181912356E+00 -0.22528151392E+01 -0.72849391283E+02  0.72889077685E+02  0.00000000000E+00 0.  1.
        -15    1    1    2    0    0  0.29043027306E+02  0.73481861582E+01 -0.10096614616E+03  0.10533192144E+03  0.17770000000E+01 0.  1.
         15    1    1    2    0    0 -0.23531099976E+02 -0.58909623397E+01  0.16497104525E+02  0.29389254670E+02  0.17770000000E+01 0. -1.
</event>
<event>
 6    1  0.8353910E-003  0.1837484E+03  0.7546771E-02  0.1067465E+00
        -11   -1    0    0    0    0  0.00000000000E+00  0.00000000000E+00  0.18250000000E+03  0.18250000000E+03  0.00000000000E+00 0.  1.
         11   -1    0    0    0    0 -0.00000000000E+00 -0.00000000000E+00 -0.18250000000E+03  0.18250000000E+03  0.00000000000E+00 0. -1.
        -11    1    1    2    0    0  0.42832540710E+00  0.11690175766E+01  0.75540993980E+02  0.75551253042E+02  0.00000000000E+00 0.  1.
         11    1    1    2    0    0  0.60616588853E+01 -0.14984672890E+01 -0.18114401593E+03  0.18125160308E+03  0.00000000000E+00 0. -1.
        -15    1    1    2    0    0 -0.24432857989E+01  0.20340807947E+00  0.58240680783E+00  0.30834959108E+01  0.17770000000E+01 0. -1.
         15    1    1    2    0    0 -0.40466984934E+01  0.12604163290E+00  0.10502061514E+03  0.10511364797E+03  0.17770000000E+01 0.  1.
</event>
<event>
 6    1  0.8353910E-003  0.1851519E+03  0.7546771E-02  0.1066363E+00
        -11   -1    0    0    0    0  0.00000000000E+00  0.00000000000E+00  0.18250000000E+03  0.18250000000E+03  0.00000000000E+00 0. -1.
         11   -1    0    0    0    0 -0.00000000000E+00 -0.00000000000E+00 -0.18250000000E+03  0.18250000000E+03  0.00000000000E+00 0. -1.
        -11    1    1    2    0    0 -0.20632525742E+01 -0.96410460475E+00  0.94073337265E+02  0.94100899534E+02  0.00000000000E+00 0. -1.
         11    1    1    2    0    0 -0.14109243600E+01  0.54443689713E+01 -0.17976011672E+03  0.17984807873E+03  0.00000000000E+00 0. -1.
        -15    1    1    2    0    0 -0.23917162561E+00 -0.27544756073E+01  0.86458593426E+02  0.86521040477E+02  0.17770000000E+01 0.  1.
         15    1    1    2    0    0  0.37133485598E+01 -0.17257887592E+01 -0.77181397108E+00  0.45299812553E+01  0.17770000000E+01 0. -1.
</event>
<event>
 6    1  0.8353910E-003  0.1842328E+03  0.7546771E-02  0.1067084E+00
        -11   -1    0    0    0    0  0.00000000000E+00  0.00000000000E+00  0.18250000000E+03  0.18250000000E+03  0.00000000000E+00 0.  1.
         11   -1    0    0    0    0 -0.00000000000E+00 -0.00000000000E+00 -0.18250000000E+03  0.18250000000E+03  0.00000000000E+00 0. -1.
        -11    1    1    2    0    0 -0.25360478642E+01  0.35609943799E+01  0.16641435158E+03  0.16647176527E+03  0.00000000000E+00 0.  1.
         11    1    1    2    0    0  0.11055463244E+01  0.48591310658E+01 -0.18069853550E+03  0.18076723741E+03  0.00000000000E+00 0. -1.
        -15    1    1    2    0    0  0.40247597344E+00 -0.96062480028E+00  0.63641175421E+01  0.66891335766E+01  0.17770000000E+01 0. -1.
         15    1    1    2    0    0  0.10280255663E+01 -0.74595006454E+01  0.79200663768E+01  0.11071863748E+02  0.17770000000E+01 0.  1.
</event>
<event>
 6    1  0.8353910E-003  0.1832151E+03  0.7546771E-02  0.1067887E+00
        -11   -1    0    0    0    0  0.00000000000E+00  0.00000000000E+00  0.18250000000E+03  0.18250000000E+03  0.00000000000E+00 0. -1.
         11   -1    0    0    0    0 -0.00000000000E+00 -0.00000000000E+00 -0.18250000000E+03  0.18250000000E+03  0.00000000000E+00 0.  1.
        -11    1    1    2    0    0  0.15143831180E+00 -0.49917387946E+01  0.18171625204E+03  0.18178486363E+03  0.00000000000E+00 0. -1.
         11    1    1    2    0    0  0.54793466538E+01  0.25873634786E+01 -0.14000473378E+03  0.14013580260E+03  0.00000000000E+00 0.  1.
        -15    1    1    2    0    0 -0.43307344377E+01 -0.36108807625E+00 -0.36384374643E+02  0.36686047655E+02  0.17770000000E+01 0.  1.
         15    1    1    2    0    0 -0.13000505279E+01  0.27654633922E+01 -0.53271436255E+01  0.63932861155E+01  0.17770000000E+01 0. -1.
</event>
<event>
 6    1  0.8353910E-003  0.2120000E+03  0.7546771E-02  0.1047131E+00
        -11   -1    0    0    0    0  0.00000000000E+00  0.00000000000E+00  0.18250000000E+03  0.18250000000E+03  0.00000000000E+00 0.  1.
         11   -1    0    0    0    0 -0.00000000000E+00 -0.00000000000E+00 -0.18250000000E+03  0.18250000000E+03  0.00000000000E+00 0.  1.
        -11    1    1    2    0    0 -0.54370920753E+01  0.89699280256E+01  0.15264001793E+03  0.15299998906E+03  0.00000000000E+00 0.  1.
         11    1    1    2    0    0 -0.19615387489E+01 -0.21590220961E+00 -0.11797558851E+03  0.11799209182E+03  0.00000000000E+00 0.  1.
        -15    1    1    2    0    0  0.80299945953E+00 -0.10432868385E+02  0.28521184384E+02  0.30431977237E+02  0.17770000000E+01 0. -1.
         15    1    1    2    0    0  0.65956313647E+01  0.16788425687E+01 -0.63185613807E+02  0.63575941885E+02  0.17770000000E+01 0.  1.
</event>
<event>
 6    1  0.8353910E-003  0.1851944E+03  0.7546771E-02  0.1066330E+00
        -11   -1    0    0    0    0  0.00000000000E+00  0.00000000000E+00  0.18250000000E+03  0.18250000000E+03  0.00000000000E+00 0.  1.
         11   -1    0    0    0    0 -0.00000000000E+00 -0.00000000000E+00 -0.18250000000E+03  0.18250000000E+03  0.00000000000E+00 0. -1.
        -11    1    1    2    0    0  0.22215900417E+01  0.12976838994E+01  0.17224452568E+03  0.17226373987E+03  0.00000000000E+00 0.  1.
         11    1    1    2    0    0 -0.66854966569E-01 -0.28391665010E+01 -0.17978317752E+03  0.17980560685E+03  0.00000000000E+00 0. -1.
        -15    1    1    2    0    0 -0.22046149844E+01 -0.29016512736E+01  0.63456417295E-01  0.40548320631E+01  0.17770000000E+01 0. -1.
         15    1    1    2    0    0  0.49879909252E-01  0.44431338752E+01  0.74751954201E+01  0.88758212131E+01  0.17770000000E+01 0.  1.
</event>
<event>
 6    1  0.8353910E-003  0.1829332E+03  0.7546771E-02  0.1068111E+00
        -11   -1    0    0    0    0  0.00000000000E+00  0.00000000000E+00  0.18250000000E+03  0.18250000000E+03  0.00000000000E+00 0. -1.
         11   -1    0    0    0    0 -0.00000000000E+00 -0.00000000000E+00 -0.18250000000E+03  0.18250000000E+03  0.00000000000E+00 0.  1.
        -11    1    1    2    0    0  0.32467548567E+01 -0.10998690084E+01  0.18203455876E+03  0.18206683309E+03  0.00000000000E+00 0. -1.
         11    1    1    2    0    0  0.29017232422E+00  0.38012197242E+01 -0.14978973466E+03  0.14983823971E+03  0.00000000000E+00 0.  1.
        -15    1    1    2    0    0 -0.17405071825E+01 -0.26775220482E+01 -0.90082578744E+01  0.97213645392E+01  0.17770000000E+01 0. -1.
         15    1    1    2    0    0 -0.17964199984E+01 -0.23828667553E-01 -0.23236566226E+02  0.23373562664E+02  0.17770000000E+01 0.  1.
</event>
<event>
 6    1  0.8353910E-003  0.1828267E+03  0.7546771E-02  0.1068195E+00
        -11   -1    0    0    0    0  0.00000000000E+00  0.00000000000E+00  0.18250000000E+03  0.18250000000E+03  0.00000000000E+00 0.  1.
         11   -1    0    0    0    0 -0.00000000000E+00 -0.00000000000E+00 -0.18250000000E+03  0.18250000000E+03  0.00000000000E+00 0.  1.
        -11    1    1    2    0    0 -0.25742805825E+01 -0.11993607172E+01  0.13243581327E+03  0.13246625994E+03  0.00000000000E+00 0.  1.
         11    1    1    2    0    0 -0.24523200930E+01  0.14329711942E+01 -0.18215116097E+03  0.18217330409E+03  0.00000000000E+00 0.  1.
        -15    1    1    2    0    0  0.49060262931E+01 -0.10322581087E+01  0.24555646589E+02  0.25125130034E+02  0.17770000000E+01 0.  1.
         15    1    1    2    0    0  0.12057438242E+00  0.79864763164E+00  0.25159701115E+02  0.25235305931E+02  0.17770000000E+01 0.  1.
</event>
<event>
 6    1  0.8353910E-003  0.1844091E+03  0.7546771E-02  0.1066945E+00
        -11   -1    0    0    0    0  0.00000000000E+00  0.00000000000E+00  0.18250000000E+03  0.18250000000E+03  0.00000000000E+00 0.  1.
         11   -1    0    0    0    0 -0.00000000000E+00 -0.00000000000E+00 -0.18250000000E+03  0.18250000000E+03  0.00000000000E+00 0. -1.
        -11    1    1    2    0    0 -0.11128571519E+01  0.26122685136E+01  0.13893723860E+03  0.13896625010E+03  0.00000000000E+00 0.  1.
         11    1    1    2    0    0 -0.29033408311E+01  0.28447257264E+01 -0.18054518127E+03  0.18059093092E+03  0.00000000000E+00 0. -1.
        -15    1    1    2    0    0 -0.90024089984E+00  0.48966513548E+00 -0.87367622177E+00  0.22296288398E+01  0.17770000000E+01 0. -1.
         15    1    1    2    0    0  0.49164388828E+01 -0.59466593755E+01  0.42481618890E+02  0.43213190134E+02  0.17770000000E+01 0.  1.
</event>
<event>
 6    1  0.8353910E-003  0.1849583E+03  0.7546771E-02  0.1066515E+00
        -11   -1    0    0    0    0  0.00000000000E+00  0.00000000000E+00  0.18250000000E+03  0.18250000000E+03  0.00000000000E+00 0. -1.
         11   -1    0    0    0    0 -0.00000000000E+00 -0.00000000000E+00 -0.18250000000E+03  0.18250000000E+03  0.00000000000E+00 0.  1.
        -11    1    1    2    0    0  0.19535493752E+01  0.13077659756E+01  0.16140230733E+03  0.16141942701E+03  0.00000000000E+00 0. -1.
         11    1    1    2    0    0  0.71033549045E+01  0.11008316459E+01 -0.17989812015E+03  0.18004167050E+03  0.00000000000E+00 0.  1.
        -15    1    1    2    0    0  0.78223480571E+00 -0.30152509827E+01  0.16673102297E+01  0.39549060902E+01  0.17770000000E+01 0. -1.
         15    1    1    2    0    0 -0.98391390854E+01  0.60665336130E+00  0.16828502598E+02  0.19583996398E+02  0.17770000000E+01 0. -1.
</event>
<event>
 6    1  0.8353910E-003  0.1835239E+03  0.7546771E-02  0.1067643E+00
        -11   -1    0    0    0    0  0.00000000000E+00  0.00000000000E+00  0.18250000000E+03  0.18250000000E+03  0.00000000000E+00 0.  1.
         11   -1    0    0    0    0 -0.00000000000E+00 -0.00000000000E+00 -0.18250000000E+03  0.18250000000E+03  0.00000000000E+00 0.  1.
        -11    1    1    2    0    0  0.25354329379E+01 -0.18600879792E+01  0.18144888352E+03  0.18147612978E+03  0.00000000000E+00 0.  1.
         11    1    1    2    0    0  0.19660538994E+01  0.13252768527E+01 -0.11478352823E+03  0.11480801401E+03  0.00000000000E+00 0.  1.
        -15    1    1    2    0    0  0.27081024211E+01 -0.47804421351E+01 -0.12288909997E+02  0.13577977892E+02  0.17770000000E+01 0. -1.
         15    1    1    2    0    0 -0.72095892584E+01  0.53152532616E+01 -0.54376445294E+02  0.55137878326E+02  0.17770000000E+01 0.  1.
</event>
<event>
 6    1  0.8353910E-003  0.1827668E+03  0.7546771E-02  0.1068243E+00
        -11   -1    0    0    0    0  0.00000000000E+00  0.00000000000E+00  0.18250000000E+03  0.18250000000E+03  0.00000000000E+00 0.  1.
         11   -1    0    0    0    0 -0.00000000000E+00 -0.00000000000E+00 -0.18250000000E+03  0.18250000000E+03  0.00000000000E+00 0. -1.
        -11    1    1    2    0    0  0.12503530545E+01  0.71657877220E+00  0.58818490192E+02  0.58836142432E+02  0.00000000000E+00 0.  1.
         11    1    1    2    0    0  0.33331142205E+01  0.32179242860E+00 -0.18220239300E+03  0.18223316168E+03  0.00000000000E+00 0. -1.
        -15    1    1    2    0    0 -0.52928208367E+01  0.21763417170E+00  0.11726031146E+03  0.11739335454E+03  0.17770000000E+01 0.  1.
         15    1    1    2    0    0  0.70935356173E+00 -0.12560053725E+01  0.61235913485E+01  0.65373413537E+01  0.17770000000E+01 0. -1.
</event>
<event>
 6    1  0.8353910E-003  0.1864562E+03  0.7546771E-02  0.1065349E+00
        -11   -1    0    0    0    0  0.00000000000E+00  0.00000000000E+00  0.18250000000E+03  0.18250000000E+03  0.00000000000E+00 0.  1.
         11   -1    0    0    0    0 -0.00000000000E+00 -0.00000000000E+00 -0.18250000000E+03  0.18250000000E+03  0.00000000000E+00 0.  1.
        -11    1    1    2    0    0 -0.13106413868E+01  0.69243817992E+01  0.17840468759E+03  0.17854382487E+03  0.00000000000E+00 0.  1.
         11    1    1    2    0    0 -0.40028475579E+00 -0.20287771048E+01 -0.86457138168E+02  0.86481864599E+02  0.00000000000E+00 0.  1.
        -15    1    1    2    0    0  0.47933313502E+01 -0.92012782044E+01 -0.31303253157E+01  0.10981630644E+02  0.17770000000E+01 0. -1.
         15    1    1    2    0    0 -0.30824052076E+01  0.43056735101E+01 -0.88817224108E+02  0.88992679887E+02  0.17770000000E+01 0.  1.
</event>
<event>
 6    1  0.8353910E-003  0.1826313E+03  0.7546771E-02  0.1068350E+00
        -11   -1    0    0    0    0  0.00000000000E+00  0.00000000000E+00  0.18250000000E+03  0.18250000000E+03  0.00000000000E+00 0. -1.
         11   -1    0    0    0    0 -0.00000000000E+00 -0.00000000000E+00 -0.18250000000E+03  0.18250000000E+03  0.00000000000E+00 0.  1.
        -11    1    1    2    0    0 -0.55532343505E+00  0.76607760295E+00  0.22258525888E+02  0.22278627285E+02  0.00000000000E+00 0. -1.
         11    1    1    2    0    0 -0.31269145181E+01  0.76465407863E+00 -0.18234031755E+03  0.18236873003E+03  0.00000000000E+00 0.  1.
        -15    1    1    2    0    0  0.12180205921E+01  0.95037726892E-01  0.13682317308E+03  0.13684016598E+03  0.17770000000E+01 0. -1.
         15    1    1    2    0    0  0.24642173611E+01 -0.16257694085E+01  0.23258618581E+02  0.23512476702E+02  0.17770000000E+01 0.  1.
</event>
<event>
 6    1  0.8353910E-003  0.1998781E+03  0.7546771E-02  0.1055406E+00
        -11   -1    0    0    0    0  0.00000000000E+00  0.00000000000E+00  0.18250000000E+03  0.18250000000E+03  0.00000000000E+00 0.  1.
         11   -1    0    0    0    0 -0.00000000000E+00 -0.00000000000E+00 -0.18250000000E+03  0.18250000000E+03  0.00000000000E+00 0. -1.
        -11    1    1    2    0    0 -0.64048679145E+01 -0.28616511012E+01  0.11037065146E+03  0.11059336365E+03  0.00000000000E+00 0.  1.
         11    1    1    2    0    0 -0.16405954487E+02  0.16830493968E+02 -0.16344053885E+03  0.16512186594E+03  0.00000000000E+00 0. -1.
        -15    1    1    2    0    0  0.33183379249E+01  0.87352685230E+01  0.58113620152E+02  0.58886898873E+02  0.17770000000E+01 0. -1.
         15    1    1    2    0    0  0.19492484477E+02 -0.22704111390E+02 -0.50437327572E+01  0.30397871541E+02  0.17770000000E+01 0.  1.
</event>
<event>
 6    1  0.8353910E-003  0.1828835E+03  0.7546771E-02  0.1068150E+00
        -11   -1    0    0    0    0  0.00000000000E+00  0.00000000000E+00  0.18250000000E+03  0.18250000000E+03  0.00000000000E+00 0.  1.
         11   -1    0    0    0    0 -0.00000000000E+00 -0.00000000000E+00 -0.18250000000E+03  0.18250000000E+03  0.00000000000E+00 0.  1.
        -11    1    1    2    0    0 -0.51747359629E+01 -0.39585059069E+01  0.18199995348E+03  0.18211653063E+03  0.00000000000E+00 0.  1.
         11    1    1    2    0    0 -0.26517173995E+01  0.10770787647E+01 -0.71872089385E+02  0.71929054883E+02  0.00000000000E+00 0.  1.
        -15    1    1    2    0    0  0.16598340320E+01  0.39871172179E+01 -0.17975760232E+02  0.18572502191E+02  0.17770000000E+01 0. -1.
         15    1    1    2    0    0  0.61666193305E+01 -0.11056900757E+01 -0.92152103863E+02  0.92381912298E+02  0.17770000000E+01 0.  1.
</event>
<event>
 6    1  0.8353910E-003  0.1879570E+03  0.7546771E-02  0.1064192E+00
        -11   -1    0    0    0    0  0.00000000000E+00  0.00000000000E+00  0.18250000000E+03  0.18250000000E+03  0.00000000000E+00 0. -1.
         11   -1    0    0    0    0 -0.00000000000E+00 -0.00000000000E+00 -0.18250000000E+03  0.18250000000E+03  0.00000000000E+00 0.  1.
        -11    1    1    2    0    0 -0.94876255675E+00 -0.56819036000E+01  0.13849645909E+03  0.13861620886E+03  0.00000000000E+00 0. -1.
         11    1    1    2    0    0  0.28571650065E+01 -0.85392451896E+01 -0.17681383471E+03  0.17704297288E+03  0.00000000000E+00 0.  1.
        -15    1    1    2    0    0  0.42981642706E+01  0.75002226595E+01  0.39009962818E+02  0.39995780829E+02  0.17770000000E+01 0. -1.
         15    1    1    2    0    0 -0.62065667203E+01  0.67209261300E+01 -0.69258719496E+00  0.93450374275E+01  0.17770000000E+01 0.  1.
</event>
<event>
 6    1  0.8353910E-003  0.1847119E+03  0.7546771E-02  0.1066708E+00
        -11   -1    0    0    0    0  0.00000000000E+00  0.00000000000E+00  0.18250000000E+03  0.18250000000E+03  0.00000000000E+00 0. -1.
         11   -1    0    0    0    0 -0.00000000000E+00 -0.00000000000E+00 -0.18250000000E+03  0.18250000000E+03  0.00000000000E+00 0. -1.
        -11    1    1    2    0    0 -0.53380542778E+01  0.41588106771E+01  0.46781510087E+02  0.47268384950E+02  0.00000000000E+00 0. -1.
         11    1    1    2    0    0  0.68763288913E+00 -0.93359493528E+01 -0.18004491180E+03  0.18028811124E+03  0.00000000000E+00 0. -1.
        -15    1    1    2    0    0 -0.44545854840E+01  0.35196215258E+01  0.12428548869E+03  0.12442777622E+03  0.17770000000E+01 0. -1.
         15    1    1    2    0    0  0.91050068726E+01  0.16575171500E+01  0.89779130261E+01  0.13015727585E+02  0.17770000000E+01 0.  1.
</event>
<event>
 6    1  0.9802885E-003  0.1605269E+03  0.7546771E-02  0.1087429E+00
        -11   -1    0    0    0    0  0.00000000000E+00  0.00000000000E+00  0.18250000000E+03  0.18250000000E+03  0.00000000000E+00 0. -1.
         11   -1    0    0    0    0 -0.00000000000E+00 -0.00000000000E+00 -0.18250000000E+03  0.18250000000E+03  0.00000000000E+00 0.  1.
        -11    1    1    2    0    0  0.42992387047E+01  0.15363607751E+01  0.16174357001E+03  0.16180799207E+03  0.00000000000E+00 0. -1.
         11    1    1    2    0    0 -0.30082194047E+02 -0.32321307899E+01 -0.15743178049E+03  0.16031266506E+03  0.00000000000E+00 0.  1.
        -15    1    1    2    0    0 -0.59375883850E+01 -0.29395517710E+01  0.60455570373E+01  0.91434353136E+01  0.17770000000E+01 0. -1.
         15    1    1    2    0    0  0.31720543727E+02  0.46353217857E+01 -0.10357346554E+02  0.33735907562E+02  0.17770000000E+01 0.  1.
</event>
<event>
 6    1  0.8353910E-003  0.1873663E+03  0.7546771E-02  0.1064646E+00
        -11   -1    0    0    0    0  0.00000000000E+00  0.00000000000E+00  0.18250000000E+03  0.18250000000E+03  0.00000000000E+00 0.  1.
         11   -1    0    0    0    0 -0.00000000000E+00 -0.00000000000E+00 -0.18250000000E+03  0.18250000000E+03  0.00000000000E+00 0. -1.
        -11    1    1    2    0    0 -0.15441523528E+02  0.11404802764E+00  0.17696120552E+03  0.17763367337E+03  0.00000000000E+00 0.  1.
         11    1    1    2    0    0  0.11278170777E+01 -0.15977171468E+01 -0.13110693194E+03  0.13112151721E+03  0.00000000000E+00 0. -1.
        -15    1    1    2    0    0  0.16757975985E+02  0.12412596089E+01 -0.87719847745E+01  0.19038800656E+02  0.17770000000E+01 0.  1.
         15    1    1    2    0    0 -0.24442695342E+01  0.24240951028E+00 -0.37082288806E+02  0.37206008763E+02  0.17770000000E+01 0.  1.
</event>
<event>
 6    1  0.8353910E-003  0.1897838E+03  0.7546771E-02  0.1062800E+00
        -11   -1    0    0    0    0  0.00000000000E+00  0.00000000000E+00  0.18250000000E+03  0.18250000000E+03  0.00000000000E+00 0. -1.
         11   -1    0    0    0    0 -0.00000000000E+00 -0.00000000000E+00 -0.18250000000E+03  0.18250000000E+03  0.00000000000E+00 0. -1.
        -11    1    1    2    0    0  0.24826612842E+01 -0.88103914012E+01  0.15302418902E+03  0.15329771371E+03  0.00000000000E+00 0. -1.
         11    1    1    2    0    0 -0.72977889870E+01 -0.65224182548E+01 -0.17494257044E+03  0.17521615969E+03  0.00000000000E+00 0. -1.
        -15    1    1    2    0    0 -0.11492877124E+01  0.14856898492E+01  0.21126445198E+02  0.21284091531E+02  0.17770000000E+01 0. -1.
         15    1    1    2    0    0  0.59644154152E+01  0.13847119807E+02  0.79193621882E+00  0.15202035067E+02  0.17770000000E+01 0.  1.
</event>
<event>
 6    1  0.8353910E-003  0.1838531E+03  0.7546771E-02  0.1067383E+00
        -11   -1    0    0    0    0  0.00000000000E+00  0.00000000000E+00  0.18250000000E+03  0.18250000000E+03  0.00000000000E+00 0. -1.
         11   -1    0    0    0    0 -0.00000000000E+00 -0.00000000000E+00 -0.18250000000E+03  0.18250000000E+03  0.00000000000E+00 0.  1.
        -11    1    1    2    0    0 -0.39910996154E+01 -0.51165236167E+01  0.18103067850E+03  0.18114694104E+03  0.00000000000E+00 0. -1.
         11    1    1    2    0    0 -0.15906432538E+01  0.37909851748E+00 -0.11642886711E+03  0.11644034935E+03  0.00000000000E+00 0.  1.
        -15    1    1    2    0    0  0.46149788313E+00  0.27075621743E+00  0.50889398275E+00  0.19243158034E+01  0.17770000000E+01 0.  1.
         15    1    1    2    0    0  0.51202449861E+01  0.44666688818E+01 -0.65110705374E+02  0.65488393803E+02  0.17770000000E+01 0. -1.
</event>
<event>
 6    1  0.8353910E-003  0.1826799E+03  0.7546771E-02  0.1068312E+00
        -11   -1    0    0    0    0  0.00000000000E+00  0.00000000000E+00  0.18250000000E+03  0.18250000000E+03  0.00000000000E+00 0. -1.
         11   -1    0    0    0    0 -0.00000000000E+00 -0.00000000000E+00 -0.18250000000E+03  0.18250000000E+03  0.00000000000E+00 0.  1.
        -11    1    1    2    0    0 -0.57591527581E+00  0.64508665471E+00  0.58370955303E+02  0.58377360665E+02  0.00000000000E+00 0. -1.
         11    1    1    2    0    0 -0.24830894900E+01 -0.34353953359E+01 -0.18227078908E+03  0.18232007082E+03  0.00000000000E+00 0.  1.
        -15    1    1    2    0    0  0.42973417226E+01  0.25884319074E+01  0.37544503179E+02  0.37919844061E+02  0.17770000000E+01 0. -1.
         15    1    1    2    0    0 -0.12383369568E+01  0.20187677376E+00  0.86355330594E+02  0.86382724452E+02  0.17770000000E+01 0. -1.
</event>
<event>
 6    1  0.8353910E-003  0.1827636E+03  0.7546771E-02  0.1068245E+00
        -11   -1    0    0    0    0  0.00000000000E+00  0.00000000000E+00  0.18250000000E+03  0.18250000000E+03  0.00000000000E+00 0. -1.
         11   -1    0    0    0    0 -0.00000000000E+00 -0.00000000000E+00 -0.18250000000E+03  0.18250000000E+03  0.00000000000E+00 0.  1.
        -11    1    1    2    0    0 -0.26665612610E+01  0.43533893013E+01  0.18216485033E+03  0.18223637190E+03  0.00000000000E+00 0. -1.
         11    1    1    2    0    0 -0.20448700353E+01 -0.21108318127E+01 -0.10525138642E+03  0.10529240926E+03  0.00000000000E+00 0.  1.
        -15    1    1    2    0    0 -0.23144254901E+00  0.14131389338E+01 -0.10234381006E+02  0.10485743220E+02  0.17770000000E+01 0.  1.
         15    1    1    2    0    0  0.49428738454E+01 -0.36556964224E+01 -0.66679082905E+02  0.66985475621E+02  0.17770000000E+01 0. -1.
</event>
<event>
 6    1  0.8353910E-003  0.1890460E+03  0.7546771E-02  0.1063360E+00
        -11   -1    0    0    0    0  0.00000000000E+00  0.00000000000E+00  0.18250000000E+03  0.18250000000E+03  0.00000000000E+00 0.  1.
         11   -1    0    0    0    0 -0.00000000000E+00 -0.00000000000E+00 -0.18250000000E+03  0.18250000000E+03  0.00000000000E+00 0.  1.
        -11    1    1    2    0    0  0.14410785425E+00  0.13485606986E+02  0.14594224369E+03  0.14656405035E+03  0.00000000000E+00 0.  1.
         11    1    1    2    0    0  0.27019724174E+00  0.27033914461E+01 -0.17593298383E+03  0.17595396026E+03  0.00000000000E+00 0.  1.
        -15    1    1    2    0    0  0.27400807502E+01 -0.43918436866E+01  0.29635532982E+02  0.30136669982E+02  0.17770000000E+01 0. -1.
         15    1    1    2    0    0 -0.31543858462E+01 -0.11797154745E+02  0.35520715313E+00  0.12345319408E+02  0.17770000000E+01 0.  1.
</event>
<event>
 6    1  0.8353910E-003  0.1830109E+03  0.7546771E-02  0.1068049E+00
        -11   -1    0    0    0    0  0.00000000000E+00  0.00000000000E+00  0.18250000000E+03  0.18250000000E+03  0.00000000000E+00 0. -1.
         11   -1    0    0    0    0 -0.00000000000E+00 -0.00000000000E+00 -0.18250000000E+03  0.18250000000E+03  0.00000000000E+00 0.  1.
        -11    1    1    2    0    0  0.11478784906E+01 -0.93190701025E+00  0.75798978101E+02  0.75813396948E+02  0.00000000000E+00 0. -1.
         11    1    1    2    0    0  0.54790814215E+01 -0.34605368727E+01 -0.18187366496E+03  0.18198908114E+03  0.00000000000E+00 0.  1.
        -15    1    1    2    0    0 -0.38252572154E+01 -0.47036017840E+00  0.89638852807E+02  0.89739263943E+02  0.17770000000E+01 0. -1.
         15    1    1    2    0    0 -0.28017026966E+01  0.48628040614E+01  0.16435834051E+02  0.17458257968E+02  0.17770000000E+01 0.  1.
</event>
<event>
 6    1  0.8353910E-003  0.1762027E+03  0.7546771E-02  0.1073581E+00
        -11   -1    0    0    0    0  0.00000000000E+00  0.00000000000E+00  0.18250000000E+03  0.18250000000E+03  0.00000000000E+00 0.  1.
         11   -1    0    0    0    0 -0.00000000000E+00 -0.00000000000E+00 -0.18250000000E+03  0.18250000000E+03  0.00000000000E+00 0.  1.
        -11    1    1    2    0    0  0.31395067383E+01 -0.18459631747E+00  0.17800002781E+03  0.17802780816E+03  0.00000000000E+00 0.  1.
         11    1    1    2    0    0  0.56569000125E+01 -0.17978182076E+01 -0.17441021825E+03  0.17451119420E+03  0.00000000000E+00 0.  1.
        -15    1    1    2    0    0 -0.86480486874E+01 -0.49774766793E+00 -0.22441438773E+01  0.91230701840E+01  0.17770000000E+01 0. -1.
         15    1    1    2    0    0 -0.14835806344E+00  0.24801621930E+01 -0.13456656767E+01  0.33379274606E+01  0.17770000000E+01 0.  1.
</event>
<event>
 6    1  0.8353910E-003  0.2089402E+03  0.7546771E-02  0.1049162E+00
        -11   -1    0    0    0    0  0.00000000000E+00  0.00000000000E+00  0.18250000000E+03  0.18250000000E+03  0.00000000000E+00 0.  1.
         11   -1    0    0    0    0 -0.00000000000E+00 -0.00000000000E+00 -0.18250000000E+03  0.18250000000E+03  0.00000000000E+00 0.  1.
        -11    1    1    2    0    0  0.14836667946E+02  0.10690928227E+02  0.10793972676E+03  0.10947788486E+03  0.00000000000E+00 0.  1.
         11    1    1    2    0    0 -0.35447885228E+01 -0.43708483666E+00 -0.15601888753E+03  0.15605976366E+03  0.00000000000E+00 0.  1.
        -15    1    1    2    0    0 -0.13817505943E+02 -0.25486623067E+02 -0.16249916550E+02  0.33282261683E+02  0.17770000000E+01 0. -1.
         15    1    1    2    0    0  0.25256265197E+01  0.15232779677E+02  0.64329077324E+02  0.66180089788E+02  0.17770000000E+01 0.  1.
</event>
<event>
 6    1  0.8353910E-003  0.1703262E+03  0.7546771E-02  0.1078580E+00
        -11   -1    0    0    0    0  0.00000000000E+00  0.00000000000E+00  0.18250000000E+03  0.18250000000E+03  0.00000000000E+00 0.  1.
         11   -1    0    0    0    0 -0.00000000000E+00 -0.00000000000E+00 -0.18250000000E+03  0.18250000000E+03  0.00000000000E+00 0. -1.
        -11    1    1    2    0    0 -0.35146175445E+01  0.16293469619E+00  0.16838468704E+03  0.16842144137E+03  0.00000000000E+00 0.  1.
         11    1    1    2    0    0 -0.94078270869E+01 -0.97790701102E+01 -0.17209763032E+03  0.17263178092E+03  0.00000000000E+00 0. -1.
        -15    1    1    2    0    0  0.12409368227E+01 -0.40400301364E+01 -0.20061123695E+01  0.50043964211E+01  0.17770000000E+01 0. -1.
         15    1    1    2    0    0  0.11681507809E+02  0.13656165550E+02  0.57190556447E+01  0.18942381284E+02  0.17770000000E+01 0.  1.
</event>
<event>
 6    1  0.8353910E-003  0.1877818E+03  0.7546771E-02  0.1064327E+00
        -11   -1    0    0    0    0  0.00000000000E+00  0.00000000000E+00  0.18250000000E+03  0.18250000000E+03  0.00000000000E+00 0.  1.
         11   -1    0    0    0    0 -0.00000000000E+00 -0.00000000000E+00 -0.18250000000E+03  0.18250000000E+03  0.00000000000E+00 0. -1.
        -11    1    1    2    0    0 -0.18189384722E+00 -0.14653581942E+01  0.91890065843E+02  0.91901929037E+02  0.00000000000E+00 0.  1.
         11    1    1    2    0    0 -0.18639392846E+01 -0.12582745077E+02 -0.17676115371E+03  0.17721824174E+03  0.00000000000E+00 0. -1.
        -15    1    1    2    0    0  0.46887740015E+00  0.11812780283E+02  0.10561664917E+01  0.12001451607E+02  0.17770000000E+01 0. -1.
         15    1    1    2    0    0  0.15769557317E+01  0.22353229888E+01  0.83814921374E+02  0.83878377620E+02  0.17770000000E+01 0.  1.
</event>
<event>
 6    1  0.8353910E-003  0.1780293E+03  0.7546771E-02  0.1072070E+00
        -11   -1    0    0    0    0  0.00000000000E+00  0.00000000000E+00  0.18250000000E+03  0.18250000000E+03  0.00000000000E+00 0. -1.
         11   -1    0    0    0    0 -0.00000000000E+00 -0.00000000000E+00 -0.18250000000E+03  0.18250000000E+03  0.00000000000E+00 0. -1.
        -11    1    1    2    0    0 -0.19286179417E+01 -0.19545609906E+01  0.17656283123E+03  0.17658418176E+03  0.00000000000E+00 0. -1.
         11    1    1    2    0    0 -0.21915899942E+01 -0.11718508350E+01 -0.17950702645E+03  0.17952422914E+03  0.00000000000E+00 0. -1.
        -15    1    1    2    0    0  0.36929839562E+01  0.36259070685E+01  0.98566771283E-01  0.54729130250E+01  0.17770000000E+01 0. -1.
         15    1    1    2    0    0  0.42722397961E+00 -0.49949524294E+00  0.28456284575E+01  0.34186760807E+01  0.17770000000E+01 0.  1.
</event>
<event>
 6    1  0.8353910E-003  0.1872559E+03  0.7546771E-02  0.1064731E+00
        -11   -1    0    0    0    0  0.00000000000E+00  0.00000000000E+00  0.18250000000E+03  0.18250000000E+03  0.00000000000E+00 0. -1.
         11   -1    0    0    0    0 -0.00000000000E+00 -0.00000000000E+00 -0.18250000000E+03  0.18250000000E+03  0.00000000000E+00 0. -1.
        -11    1    1    2    0    0  0.25458811559E+01 -0.89880370937E+00  0.11780923524E+03  0.11784016830E+03  0.00000000000E+00 0. -1.
         11    1    1    2    0    0 -0.83436595298E+01 -0.12645885283E+00 -0.17754811407E+03  0.17774410105E+03  0.00000000000E+00 0. -1.
        -15    1    1    2    0    0  0.15095721952E+01 -0.64117558713E+01  0.60249099774E+02  0.60634158476E+02  0.17770000000E+01 0.  1.
         15    1    1    2    0    0  0.42882061788E+01  0.74370184335E+01 -0.51022093825E+00  0.87815721723E+01  0.17770000000E+01 0. -1.
</event>
<event>
 6    1  0.8353910E-003  0.1846592E+03  0.7546771E-02  0.1066749E+00
        -11   -1    0    0    0    0  0.00000000000E+00  0.00000000000E+00  0.18250000000E+03  0.18250000000E+03  0.00000000000E+00 0.  1.
         11   -1    0    0    0    0 -0.00000000000E+00 -0.00000000000E+00 -0.18250000000E+03  0.18250000000E+03  0.00000000000E+00 0. -1.
        -11    1    1    2    0    0  0.37889419665E+01 -0.13104646160E+01  0.18029620831E+03  0.18034077778E+03  0.00000000000E+00 0.  1.
         11    1    1    2    0    0  0.28683032077E+01  0.66581211687E+00 -0.16442278323E+03  0.16444914750E+03  0.00000000000E+00 0. -1.
        -15    1    1    2    0    0 -0.76437569881E+01 -0.18159805595E+01 -0.14787261954E+02  0.16838813835E+02  0.17770000000E+01 0.  1.
         15    1    1    2    0    0  0.98651181385E+00  0.24606330587E+01 -0.10861631282E+01  0.33712608842E+01  0.17770000000E+01 0. -1.
</event>
<event>
 6    1  0.8353910E-003  0.1913839E+03  0.7546771E-02  0.1061595E+00
        -11   -1    0    0    0    0  0.00000000000E+00  0.00000000000E+00  0.18250000000E+03  0.18250000000E+03  0.00000000000E+00 0. -1.
         11   -1    0    0    0    0 -0.00000000000E+00 -0.00000000000E+00 -0.18250000000E+03  0.18250000000E+03  0.00000000000E+00 0.  1.
        -11    1    1    2    0    0 -0.45530437458E+00 -0.80484333522E+01  0.13290203690E+03  0.13314629546E+03  0.00000000000E+00 0. -1.
         11    1    1    2    0    0 -0.25733680574E+01 -0.21841125251E+02 -0.17221758156E+03  0.17361610632E+03  0.00000000000E+00 0.  1.
        -15    1    1    2    0    0 -0.57595290199E+01  0.32646854796E+02  0.27221006792E+02  0.42931692750E+02  0.17770000000E+01 0.  1.
         15    1    1    2    0    0  0.87882014520E+01 -0.27572961926E+01  0.12094537869E+02  0.15305905472E+02  0.17770000000E+01 0. -1.
</event>
<event>
 6    1  0.8353910E-003  0.1863911E+03  0.7546771E-02  0.1065399E+00
        -11   -1    0    0    0    0  0.00000000000E+00  0.00000000000E+00  0.18250000000E+03  0.18250000000E+03  0.00000000000E+00 0. -1.
         11   -1    0    0    0    0 -0.00000000000E+00 -0.00000000000E+00 -0.18250000000E+03  0.18250000000E+03  0.00000000000E+00 0. -1.
        -11    1    1    2    0    0  0.12468559085E+01  0.36714164290E+01  0.17856684238E+03  0.17860893355E+03  0.00000000000E+00 0. -1.
         11    1    1    2    0    0 -0.16066835472E+01  0.27365927830E+01 -0.17398474367E+03  0.17401368165E+03  0.00000000000E+00 0. -1.
        -15    1    1    2    0    0  0.21900550417E+01 -0.79788616848E+01 -0.38276295391E+01  0.92880058010E+01  0.17770000000E+01 0. -1.
         15    1    1    2    0    0 -0.18302274029E+01  0.15708524729E+01 -0.75446916889E+00  0.30893789934E+01  0.17770000000E+01 0. -1.
</event>
<event>
 6    1  0.8353910E-003  0.1828266E+03  0.7546771E-02  0.1068195E+00
        -11   -1    0    0    0    0  0.00000000000E+00  0.00000000000E+00  0.18250000000E+03  0.18250000000E+03  0.00000000000E+00 0. -1.
         11   -1    0    0    0    0 -0.00000000000E+00 -0.00000000000E+00 -0.18250000000E+03  0.18250000000E+03  0.00000000000E+00 0. -1.
        -11    1    1    2    0    0  0.60659456058E+00 -0.41179454676E-01  0.18068418897E+02  0.18078645252E+02  0.00000000000E+00 0. -1.
         11    1    1    2    0    0  0.21515181247E+01  0.13656448427E+01 -0.18215555867E+03  0.18217338326E+03  0.00000000000E+00 0. -1.
        -15    1    1    2    0    0  0.27444629519E+01  0.17086817545E+01  0.12826957148E+02  0.13346918330E+02  0.17770000000E+01 0.  1.
         15    1    1    2    0    0 -0.55025756372E+01 -0.30331471425E+01  0.15126018262E+03  0.15140105316E+03  0.17770000000E+01 0. -1.
</event>
<event>
 6    1  0.8353910E-003  0.1869348E+03  0.7546771E-02  0.1064978E+00
        -11   -1    0    0    0    0  0.00000000000E+00  0.00000000000E+00  0.18250000000E+03  0.18250000000E+03  0.00000000000E+00 0.  1.
         11   -1    0    0    0    0 -0.00000000000E+00 -0.00000000000E+00 -0.18250000000E+03  0.18250000000E+03  0.00000000000E+00 0.  1.
        -11    1    1    2    0    0  0.21515754216E+01  0.12991656632E+00  0.45483044748E+02  0.45534091784E+02  0.00000000000E+00 0.  1.
         11    1    1    2    0    0  0.56144976952E+01 -0.47221057134E+00 -0.17797601668E+03  0.17806517930E+03  0.00000000000E+00 0.  1.
        -15    1    1    2    0    0 -0.30915644097E+01  0.99808748028E+00  0.13548549489E+03  0.13553608746E+03  0.17770000000E+01 0.  1.
         15    1    1    2    0    0 -0.46745087072E+01 -0.65579347527E+00 -0.29925229622E+01  0.58646414566E+01  0.17770000000E+01 0.  1.
</event>
<event>
 6    1  0.8353910E-003  0.1829744E+03  0.7546771E-02  0.1068078E+00
        -11   -1    0    0    0    0  0.00000000000E+00  0.00000000000E+00  0.18250000000E+03  0.18250000000E+03  0.00000000000E+00 0. -1.
         11   -1    0    0    0    0 -0.00000000000E+00 -0.00000000000E+00 -0.18250000000E+03  0.18250000000E+03  0.00000000000E+00 0. -1.
        -11    1    1    2    0    0 -0.61736253295E-02  0.24136140693E+01  0.16207238710E+03  0.16209035823E+03  0.00000000000E+00 0. -1.
         11    1    1    2    0    0 -0.11207885349E+01 -0.29693928842E+01 -0.18199790155E+03  0.18202557411E+03  0.00000000000E+00 0. -1.
        -15    1    1    2    0    0 -0.23547842390E+00  0.25853120959E+01  0.11886816328E+02  0.12296073363E+02  0.17770000000E+01 0.  1.
         15    1    1    2    0    0  0.13624405841E+01 -0.20295332810E+01  0.80386981203E+01  0.85879943033E+01  0.17770000000E+01 0.  1.
</event>
<event>
 6    1  0.8353910E-003  0.1839960E+03  0.7546771E-02  0.1067270E+00
        -11   -1    0    0    0    0  0.00000000000E+00  0.00000000000E+00  0.18250000000E+03  0.18250000000E+03  0.00000000000E+00 0. -1.
         11   -1    0    0    0    0 -0.00000000000E+00 -0.00000000000E+00 -0.18250000000E+03  0.18250000000E+03  0.00000000000E+00 0. -1.
        -11    1    1    2    0    0 -0.30008778455E+01 -0.14278655598E+01  0.15855030068E+03  0.15858512513E+03  0.00000000000E+00 0. -1.
         11    1    1    2    0    0 -0.18115916391E-01 -0.27872447427E+01 -0.18098256903E+03  0.18100403132E+03  0.00000000000E+00 0. -1.
        -15    1    1    2    0    0  0.48623943542E+01  0.22388278980E+01  0.21219818776E+02  0.21956631506E+02  0.17770000000E+01 0. -1.
         15    1    1    2    0    0 -0.18434005923E+01  0.19762824044E+01  0.12124495747E+01  0.34542120458E+01  0.17770000000E+01 0.  1.
</event>
<event>
 6    1  0.8353910E-003  0.1853192E+03  0.7546771E-02  0.1066233E+00
        -11   -1    0    0    0    0  0.00000000000E+00  0.00000000000E+00  0.18250000000E+03  0.18250000000E+03  0.00000000000E+00 0.  1.
         11   -1    0    0    0    0 -0.00000000000E+00 -0.00000000000E+00 -0.18250000000E+03  0.18250000000E+03  0.00000000000E+00 0. -1.
        -11    1    1    2    0    0  0.28423145172E+01 -0.36700508913E+01  0.17962081383E+03  0.17968078580E+03  0.00000000000E+00 0.  1.
         11    1    1    2    0    0  0.19584413010E+01 -0.88203115436E+00 -0.12559711730E+03  0.12561548211E+03  0.00000000000E+00 0. -1.
        -15    1    1    2    0    0  0.17568402088E+01 -0.78461312099E+01 -0.35267577704E+02  0.36216129398E+02  0.17770000000E+01 0. -1.
         15    1    1    2    0    0 -0.65575960270E+01  0.12398213256E+02 -0.18756118831E+02  0.23487602691E+02  0.17770000000E+01 0.  1.
</event>
<event>
 6    1  0.8353910E-003  0.1830061E+03  0.7546771E-02  0.1068053E+00
        -11   -1    0    0    0    0  0.00000000000E+00  0.00000000000E+00  0.18250000000E+03  0.18250000000E+03  0.00000000000E+00 0. -1.
         11   -1    0    0    0    0 -0.00000000000E+00 -0.00000000000E+00 -0.18250000000E+03  0.18250000000E+03  0.00000000000E+00 0.  1.
        -11    1    1    2    0    0  0.22132069529E+01  0.42816903373E+01  0.18193006396E+03  0.18199389915E+03  0.00000000000E+00 0. -1.
         11    1    1    2    0    0 -0.27297136194E+01  0.62930789997E+00 -0.12247976770E+03  0.12251179887E+03  0.00000000000E+00 0.  1.
        -15    1    1    2    0    0 -0.43358677436E+01 -0.30604600062E+01 -0.25882307788E+02  0.26480516422E+02  0.17770000000E+01 0. -1.
         15    1    1    2    0    0  0.48523744101E+01 -0.18505382311E+01 -0.33567988470E+02  0.34013785559E+02  0.17770000000E+01 0.  1.
</event>
<event>
 6    1  0.8353910E-003  0.1836788E+03  0.7546771E-02  0.1067520E+00
        -11   -1    0    0    0    0  0.00000000000E+00  0.00000000000E+00  0.18250000000E+03  0.18250000000E+03  0.00000000000E+00 0.  1.
         11   -1    0    0    0    0 -0.00000000000E+00 -0.00000000000E+00 -0.18250000000E+03  0.18250000000E+03  0.00000000000E+00 0. -1.
        -11    1    1    2    0    0  0.28588381520E+01 -0.20174811016E+01  0.18128743241E+03  0.18132119660E+03  0.00000000000E+00 0.  1.
         11    1    1    2    0    0 -0.20973745836E+01  0.45247371468E+01 -0.14098869654E+03  0.14107687542E+03  0.00000000000E+00 0. -1.
        -15    1    1    2    0    0  0.76474570793E+00 -0.99834382574E+00  0.29861327219E-01  0.21771878860E+01  0.17770000000E+01 0. -1.
         15    1    1    2    0    0 -0.15262092763E+01 -0.15089122195E+01 -0.40328597195E+02  0.40424740092E+02  0.17770000000E+01 0.  1.
</event>
<event>
 6    1  0.8353910E-003  0.1748289E+03  0.7546771E-02  0.1074730E+00
        -11   -1    0    0    0    0  0.00000000000E+00  0.00000000000E+00  0.18250000000E+03  0.18250000000E+03  0.00000000000E+00 0.  1.
         11   -1    0    0    0    0 -0.00000000000E+00 -0.00000000000E+00 -0.18250000000E+03  0.18250000000E+03  0.00000000000E+00 0. -1.
        -11    1    1    2    0    0 -0.19361512437E+01  0.17759773184E+01  0.17420524240E+03  0.17422505347E+03  0.00000000000E+00 0.  1.
         11    1    1    2    0    0 -0.46048856527E+01 -0.35428030413E+01 -0.17540430629E+03  0.17550050453E+03  0.00000000000E+00 0. -1.
        -15    1    1    2    0    0  0.33932068680E+01 -0.14376860635E+01  0.67641512003E+01  0.79052049010E+01  0.17770000000E+01 0.  1.
         15    1    1    2    0    0  0.31478300284E+01  0.32045117863E+01 -0.55650873102E+01  0.73692371007E+01  0.17770000000E+01 0. -1.
</event>
<event>
 6    1  0.8353910E-003  0.1851364E+03  0.7546771E-02  0.1066375E+00
        -11   -1    0    0    0    0  0.00000000000E+00  0.00000000000E+00  0.18250000000E+03  0.18250000000E+03  0.00000000000E+00 0. -1.
         11   -1    0    0    0    0 -0.00000000000E+00 -0.00000000000E+00 -0.18250000000E+03  0.18250000000E+03  0.00000000000E+00 0. -1.
        -11    1    1    2    0    0  0.40560016394E+01 -0.42179125967E+01  0.12074797440E+03  0.12088968218E+03  0.00000000000E+00 0. -1.
         11    1    1    2    0    0 -0.15417164380E+01  0.27771534651E+01 -0.17983557934E+03  0.17986362908E+03  0.00000000000E+00 0. -1.
        -15    1    1    2    0    0  0.10111327321E+02  0.17619352897E+01  0.14385587480E+02  0.17760805508E+02  0.17770000000E+01 0.  1.
         15    1    1    2    0    0 -0.12625612522E+02 -0.32117615805E+00  0.44702017458E+02  0.46485883228E+02  0.17770000000E+01 0. -1.
</event>
<event>
 6    1  0.8353910E-003  0.1944533E+03  0.7546771E-02  0.1059319E+00
        -11   -1    0    0    0    0  0.00000000000E+00  0.00000000000E+00  0.18250000000E+03  0.18250000000E+03  0.00000000000E+00 0.  1.
         11   -1    0    0    0    0 -0.00000000000E+00 -0.00000000000E+00 -0.18250000000E+03  0.18250000000E+03  0.00000000000E+00 0. -1.
        -11    1    1    2    0    0 -0.36392024939E+00  0.45129450883E+01  0.15597900834E+03  0.15604470563E+03  0.00000000000E+00 0.  1.
         11    1    1    2    0    0 -0.33766607394E+01  0.12866128459E+02 -0.17002712241E+03  0.17054665478E+03  0.00000000000E+00 0. -1.
        -15    1    1    2    0    0  0.16373181492E+00 -0.14962783517E+02 -0.71667611620E+01  0.16686278591E+02  0.17770000000E+01 0. -1.
         15    1    1    2    0    0  0.35768491738E+01 -0.24162900301E+01  0.21214875236E+02  0.21722361008E+02  0.17770000000E+01 0.  1.
</event>
<event>
 6    1  0.8353910E-003  0.1698613E+03  0.7546771E-02  0.1078985E+00
        -11   -1    0    0    0    0  0.00000000000E+00  0.00000000000E+00  0.18250000000E+03  0.18250000000E+03  0.00000000000E+00 0.  1.
         11   -1    0    0    0    0 -0.00000000000E+00 -0.00000000000E+00 -0.18250000000E+03  0.18250000000E+03  0.00000000000E+00 0. -1.
        -11    1    1    2    0    0  0.17247727398E+01 -0.58175343526E+01  0.16935272652E+03  0.16946139539E+03  0.00000000000E+00 0.  1.
         11    1    1    2    0    0 -0.48981224980E+01  0.10415196675E+01 -0.17023709646E+03  0.17031073184E+03  0.00000000000E+00 0. -1.
        -15    1    1    2    0    0 -0.81535700285E+01  0.44391606330E+01 -0.66028953383E+01  0.11530082705E+02  0.17770000000E+01 0. -1.
         15    1    1    2    0    0  0.11326919787E+02  0.33685405204E+00  0.74872652764E+01  0.13697790071E+02  0.17770000000E+01 0.  1.
</event>
<event>
 6    1  0.8353910E-003  0.1832824E+03  0.7546771E-02  0.1067834E+00
        -11   -1    0    0    0    0  0.00000000000E+00  0.00000000000E+00  0.18250000000E+03  0.18250000000E+03  0.00000000000E+00 0. -1.
         11   -1    0    0    0    0 -0.00000000000E+00 -0.00000000000E+00 -0.18250000000E+03  0.18250000000E+03  0.00000000000E+00 0.  1.
        -11    1    1    2    0    0 -0.13077498531E+01  0.18635296767E+01  0.16238077696E+03  0.16239673544E+03  0.00000000000E+00 0. -1.
         11    1    1    2    0    0  0.42666051352E+01 -0.30318635397E+01 -0.18164216887E+03  0.18171756555E+03  0.00000000000E+00 0.  1.
        -15    1    1    2    0    0  0.97831103928E+00 -0.14663747702E+01  0.33020763479E+01  0.41435232187E+01  0.17770000000E+01 0.  1.
         15    1    1    2    0    0 -0.39371663214E+01  0.26347086332E+01  0.15959315561E+02  0.16742175797E+02  0.17770000000E+01 0.  1.
</event>
<event>
 6    1  0.8353910E-003  0.1852995E+03  0.7546771E-02  0.1066248E+00
        -11   -1    0    0    0    0  0.00000000000E+00  0.00000000000E+00  0.18250000000E+03  0.18250000000E+03  0.00000000000E+00 0. -1.
         11   -1    0    0    0    0 -0.00000000000E+00 -0.00000000000E+00 -0.18250000000E+03  0.18250000000E+03  0.00000000000E+00 0. -1.
        -11    1    1    2    0    0  0.24842701292E+01 -0.37639969886E+01  0.16819567109E+03  0.16825612335E+03  0.00000000000E+00 0. -1.
         11    1    1    2    0    0 -0.14199136164E+01 -0.25558371742E+01 -0.17967672677E+03  0.17970051364E+03  0.00000000000E+00 0. -1.
        -15    1    1    2    0    0 -0.13447702822E+01  0.49490903729E+01  0.13154241830E+02  0.14230028452E+02  0.17770000000E+01 0.  1.
         15    1    1    2    0    0  0.28041376939E+00  0.13707437899E+01 -0.16731861511E+01  0.28133345546E+01  0.17770000000E+01 0.  1.
</event>
<event>
 6    1  0.8353910E-003  0.1756663E+03  0.7546771E-02  0.1074028E+00
        -11   -1    0    0    0    0  0.00000000000E+00  0.00000000000E+00  0.18250000000E+03  0.18250000000E+03  0.00000000000E+00 0. -1.
         11   -1    0    0    0    0 -0.00000000000E+00 -0.00000000000E+00 -0.18250000000E+03  0.18250000000E+03  0.00000000000E+00 0. -1.
        -11    1    1    2    0    0 -0.36017517895E+01 -0.89893859751E+00  0.17686027655E+03  0.17689923157E+03  0.00000000000E+00 0. -1.
         11    1    1    2    0    0  0.88149868649E+01  0.31824691871E+01 -0.17423738287E+03  0.17448924807E+03  0.00000000000E+00 0. -1.
        -15    1    1    2    0    0 -0.64635315152E+01 -0.52404828438E+00 -0.61489870199E+01  0.91115112151E+01  0.17770000000E+01 0.  1.
         15    1    1    2    0    0  0.12502964398E+01 -0.17594823052E+01  0.35260933331E+01  0.45000091515E+01  0.17770000000E+01 0. -1.
</event>
<event>
 6    1  0.8353910E-003  0.1868103E+03  0.7546771E-02  0.1065075E+00
        -11   -1    0    0    0    0  0.00000000000E+00  0.00000000000E+00  0.18250000000E+03  0.18250000000E+03  0.00000000000E+00 0. -1.
         11   -1    0    0    0    0 -0.00000000000E+00 -0.00000000000E+00 -0.18250000000E+03  0.18250000000E+03  0.00000000000E+00 0. -1.
        -11    1    1    2    0    0 -0.18662034394E+01 -0.14277767449E+01  0.11664898628E+03  0.11667265001E+03  0.00000000000E+00 0. -1.
         11    1    1    2    0    0  0.10559834932E+02 -0.52114293396E+01 -0.17780015100E+03  0.17818968210E+03  0.00000000000E+00 0. -1.
        -15    1    1    2    0    0 -0.77843237171E+01  0.49103006276E+01  0.64888194813E+02  0.65561744204E+02  0.17770000000E+01 0. -1.
         15    1    1    2    0    0 -0.90930777564E+00  0.17289054569E+01 -0.37370300883E+01  0.45759236872E+01  0.17770000000E+01 0.  1.
</event>
<event>
 6    1  0.8353910E-003  0.1835109E+03  0.7546771E-02  0.1067653E+00
        -11   -1    0    0    0    0  0.00000000000E+00  0.00000000000E+00  0.18250000000E+03  0.18250000000E+03  0.00000000000E+00 0. -1.
         11   -1    0    0    0    0 -0.00000000000E+00 -0.00000000000E+00 -0.18250000000E+03  0.18250000000E+03  0.00000000000E+00 0. -1.
        -11    1    1    2    0    0 -0.17786250953E+00  0.29557892255E+01  0.18146494240E+03  0.18148910062E+03  0.00000000000E+00 0. -1.
         11    1    1    2    0    0 -0.16538303063E+01  0.10620641129E+01 -0.14001582256E+03  0.14002961723E+03  0.00000000000E+00 0. -1.
        -15    1    1    2    0    0  0.25416225935E+01 -0.24493087037E+01 -0.40706628174E+02  0.40897998299E+02  0.17770000000E+01 0.  1.
         15    1    1    2    0    0 -0.70992977768E+00 -0.15685446346E+01 -0.74249166414E+00  0.25832838464E+01  0.17770000000E+01 0. -1.
</event>
<event>
 6    1  0.8353910E-003  0.1826736E+03  0.7546771E-02  0.1068317E+00
        -11   -1    0    0    0    0  0.00000000000E+00  0.00000000000E+00  0.18250000000E+03  0.18250000000E+03  0.00000000000E+00 0.  1.
         11   -1    0    0    0    0 -0.00000000000E+00 -0.00000000000E+00 -0.18250000000E+03  0.18250000000E+03  0.00000000000E+00 0.  1.
        -11    1    1    2    0    0 -0.34440606588E+00 -0.13639516356E+01  0.54918707039E+02  0.54936721439E+02  0.00000000000E+00 0.  1.
         11    1    1    2    0    0  0.27149017600E+01 -0.22991771802E+01 -0.18229172158E+03  0.18232643436E+03  0.00000000000E+00 0.  1.
        -15    1    1    2    0    0  0.26935085643E+01  0.43187617786E+00  0.34723263766E+02  0.34875554203E+02  0.17770000000E+01 0.  1.
         15    1    1    2    0    0 -0.50640042584E+01  0.32312526379E+01  0.92649750777E+02  0.92861290002E+02  0.17770000000E+01 0.  1.
</event>
<event>
 6    1  0.8353910E-003  0.1848667E+03  0.7546771E-02  0.1066586E+00
        -11   -1    0    0    0    0  0.00000000000E+00  0.00000000000E+00  0.18250000000E+03  0.18250000000E+03  0.00000000000E+00 0. -1.
         11   -1    0    0    0    0 -0.00000000000E+00 -0.00000000000E+00 -0.18250000000E+03  0.18250000000E+03  0.00000000000E+00 0.  1.
        -11    1    1    2    0    0 -0.25041426180E+01 -0.13653227187E+01  0.18011069567E+03  0.18013327713E+03  0.00000000000E+00 0. -1.
         11    1    1    2    0    0  0.33956359919E+01  0.29145897818E+01 -0.11702918105E+03  0.11711470614E+03  0.00000000000E+00 0.  1.
        -15    1    1    2    0    0 -0.12023904276E+01 -0.77552393255E+01 -0.60097046125E+02  0.60633341997E+02  0.17770000000E+01 0.  1.
         15    1    1    2    0    0  0.31089705379E+00  0.62059722624E+01 -0.29844684955E+01  0.71186747293E+01  0.17770000000E+01 0. -1.
</event>
<event>
 6    1  0.8353910E-003  0.1829809E+03  0.7546771E-02  0.1068073E+00
        -11   -1    0    0    0    0  0.00000000000E+00  0.00000000000E+00  0.18250000000E+03  0.18250000000E+03  0.00000000000E+00 0.  1.
         11   -1    0    0    0    0 -0.00000000000E+00 -0.00000000000E+00 -0.18250000000E+03  0.18250000000E+03  0.00000000000E+00 0. -1.
        -11    1    1    2    0    0  0.63997819869E+00  0.17152363037E+01  0.94538540353E+02  0.94556264836E+02  0.00000000000E+00 0.  1.
         11    1    1    2    0    0 -0.10563993350E+01  0.23589891214E+01 -0.18200070013E+03  0.18201905301E+03  0.00000000000E+00 0. -1.
        -15    1    1    2    0    0 -0.22761225127E+01 -0.34229537154E+01  0.81430422622E+02  0.81553472049E+02  0.17770000000E+01 0.  1.
         15    1    1    2    0    0  0.26925436490E+01 -0.65127170980E+00  0.60317371598E+01  0.68712101050E+01  0.17770000000E+01 0. -1.
</event>
<event>
 6    1  0.8353910E-003  0.1828538E+03  0.7546771E-02  0.1068174E+00
        -11   -1    0    0    0    0  0.00000000000E+00  0.00000000000E+00  0.18250000000E+03  0.18250000000E+03  0.00000000000E+00 0. -1.
         11   -1    0    0    0    0 -0.00000000000E+00 -0.00000000000E+00 -0.18250000000E+03  0.18250000000E+03  0.00000000000E+00 0. -1.
        -11    1    1    2    0    0 -0.72110947379E+00 -0.18826102154E+01  0.12829546081E+03  0.12831129913E+03  0.00000000000E+00 0. -1.
         11    1    1    2    0    0 -0.33344186189E+01 -0.78414785236E+00 -0.18211401308E+03  0.18214622421E+03  0.00000000000E+00 0. -1.
        -15    1    1    2    0    0  0.14054301678E+01 -0.19003694148E+01  0.12230397734E+02  0.12582805553E+02  0.17770000000E+01 0.  1.
         15    1    1    2    0    0  0.26500979249E+01  0.45671274826E+01  0.41588154531E+02  0.41959671099E+02  0.17770000000E+01 0. -1.
</event>
<event>
 6    1  0.8353910E-003  0.1902572E+03  0.7546771E-02  0.1062442E+00
        -11   -1    0    0    0    0  0.00000000000E+00  0.00000000000E+00  0.18250000000E+03  0.18250000000E+03  0.00000000000E+00 0.  1.
         11   -1    0    0    0    0 -0.00000000000E+00 -0.00000000000E+00 -0.18250000000E+03  0.18250000000E+03  0.00000000000E+00 0. -1.
        -11    1    1    2    0    0  0.68931782114E+01  0.14010015990E+01  0.16482514599E+03  0.16497517226E+03  0.00000000000E+00 0.  1.
         11    1    1    2    0    0  0.38932569917E+01  0.14233839234E+01 -0.17469364441E+03  0.17474281922E+03  0.00000000000E+00 0. -1.
        -15    1    1    2    0    0 -0.83337401921E+01 -0.45325734393E+01  0.15736841755E+02  0.18460806185E+02  0.17770000000E+01 0. -1.
         15    1    1    2    0    0 -0.24526950109E+01  0.17081879169E+01 -0.58683433396E+01  0.68212023374E+01  0.17770000000E+01 0.  1.
</event>
<event>
 6    1  0.8353910E-003  0.1868009E+03  0.7546771E-02  0.1065082E+00
        -11   -1    0    0    0    0  0.00000000000E+00  0.00000000000E+00  0.18250000000E+03  0.18250000000E+03  0.00000000000E+00 0. -1.
         11   -1    0    0    0    0 -0.00000000000E+00 -0.00000000000E+00 -0.18250000000E+03  0.18250000000E+03  0.00000000000E+00 0.  1.
        -11    1    1    2    0    0 -0.88323081074E+00  0.51638365323E+01  0.17812205001E+03  0.17819907409E+03  0.00000000000E+00 0. -1.
         11    1    1    2    0    0 -0.23099340682E+01 -0.13173866288E+01 -0.14285688236E+03  0.14288162982E+03  0.00000000000E+00 0.  1.
        -15    1    1    2    0    0 -0.17391235533E+01 -0.47955525668E+01  0.23771978734E+01  0.59017517640E+01  0.17770000000E+01 0.  1.
         15    1    1    2    0    0  0.49322884322E+01  0.94910266333E+00 -0.37642365533E+02  0.38017544331E+02  0.17770000000E+01 0.  1.
</event>
<event>
 6    1  0.8353910E-003  0.1860125E+03  0.7546771E-02  0.1065693E+00
        -11   -1    0    0    0    0  0.00000000000E+00  0.00000000000E+00  0.18250000000E+03  0.18250000000E+03  0.00000000000E+00 0.  1.
         11   -1    0    0    0    0 -0.00000000000E+00 -0.00000000000E+00 -0.18250000000E+03  0.18250000000E+03  0.00000000000E+00 0. -1.
        -11    1    1    2    0    0 -0.41994554699E+01  0.16371916253E+01  0.17893069653E+03  0.17898745762E+03  0.00000000000E+00 0.  1.
         11    1    1    2    0    0 -0.16982969951E+01  0.44387056784E+01 -0.17348130549E+03  0.17354639056E+03  0.00000000000E+00 0. -1.
        -15    1    1    2    0    0  0.12016534510E+01 -0.33900104261E+01 -0.54556436055E+01  0.67718474477E+01  0.17770000000E+01 0. -1.
         15    1    1    2    0    0  0.46960990140E+01 -0.26858868777E+01  0.62525627070E-02  0.56943043792E+01  0.17770000000E+01 0.  1.
</event>
<event>
 6    1  0.8353910E-003  0.1833590E+03  0.7546771E-02  0.1067773E+00
        -11   -1    0    0    0    0  0.00000000000E+00  0.00000000000E+00  0.18250000000E+03  0.18250000000E+03  0.00000000000E+00 0.  1.
         11   -1    0    0    0    0 -0.00000000000E+00 -0.00000000000E+00 -0.18250000000E+03  0.18250000000E+03  0.00000000000E+00 0. -1.
        -11    1    1    2    0    0 -0.10040144640E+01  0.30150760220E+00  0.50920006664E+02  0.50930796484E+02  0.00000000000E+00 0.  1.
         11    1    1    2    0    0  0.46872573179E+01 -0.45106426301E+01 -0.18152450344E+03  0.18164102407E+03  0.00000000000E+00 0. -1.
        -15    1    1    2    0    0 -0.90916226318E+01 -0.53401469885E+01  0.70093431428E+02  0.70904313199E+02  0.17770000000E+01 0. -1.
         15    1    1    2    0    0  0.54083797779E+01  0.95492820164E+01  0.60511065347E+02  0.61523866242E+02  0.17770000000E+01 0.  1.
</event>
<event>
 6    1  0.8353910E-003  0.1853303E+03  0.7546771E-02  0.1066224E+00
        -11   -1    0    0    0    0  0.00000000000E+00  0.00000000000E+00  0.18250000000E+03  0.18250000000E+03  0.00000000000E+00 0.  1.
         11   -1    0    0    0    0 -0.00000000000E+00 -0.00000000000E+00 -0.18250000000E+03  0.18250000000E+03  0.00000000000E+00 0. -1.
        -11    1    1    2    0    0 -0.42527949960E+01 -0.20831306026E+01  0.17960728587E+03  0.17966970484E+03  0.00000000000E+00 0.  1.
         11    1    1    2    0    0  0.94817321925E+00  0.55569066945E+01 -0.15878243846E+03  0.15888247546E+03  0.00000000000E+00 0. -1.
        -15    1    1    2    0    0 -0.10413343436E+01 -0.85046082977E+01 -0.78245616201E+01  0.11738578835E+02  0.17770000000E+01 0.  1.
         15    1    1    2    0    0  0.43459561203E+01  0.50308322058E+01 -0.13000285793E+02  0.14709240870E+02  0.17770000000E+01 0. -1.
</event>
<event>
 6    1  0.8353910E-003  0.1826693E+03  0.7546771E-02  0.1068320E+00
        -11   -1    0    0    0    0  0.00000000000E+00  0.00000000000E+00  0.18250000000E+03  0.18250000000E+03  0.00000000000E+00 0.  1.
         11   -1    0    0    0    0 -0.00000000000E+00 -0.00000000000E+00 -0.18250000000E+03  0.18250000000E+03  0.00000000000E+00 0. -1.
        -11    1    1    2    0    0 -0.30728574595E+01 -0.23563925744E+01  0.41575167090E+02  0.41755114148E+02  0.00000000000E+00 0.  1.
         11    1    1    2    0    0  0.25088534968E+01  0.43049792277E+01 -0.18226257668E+03  0.18233067227E+03  0.00000000000E+00 0. -1.
        -15    1    1    2    0    0 -0.15878431925E+01 -0.27494598359E+01  0.11593933617E+03  0.11599641449E+03  0.17770000000E+01 0.  1.
         15    1    1    2    0    0  0.21518471552E+01  0.80087318270E+00  0.24748073428E+02  0.24917799089E+02  0.17770000000E+01 0.  1.
</event>
<event>
 6    1  0.8353910E-003  0.1832687E+03  0.7546771E-02  0.1067845E+00
        -11   -1    0    0    0    0  0.00000000000E+00  0.00000000000E+00  0.18250000000E+03  0.18250000000E+03  0.00000000000E+00 0.  1.
         11   -1    0    0    0    0 -0.00000000000E+00 -0.00000000000E+00 -0.18250000000E+03  0.18250000000E+03  0.00000000000E+00 0.  1.
        -11    1    1    2    0    0 -0.42692369968E+01 -0.61105067755E+00  0.18168012460E+03  0.18173130562E+03  0.00000000000E+00 0.  1.
         11    1    1    2    0    0  0.32407452192E+01  0.33832334963E+01 -0.13462089165E+03  0.13470238738E+03  0.00000000000E+00 0.  1.
        -15    1    1    2    0    0  0.60056264595E+01 -0.18458267050E+01 -0.29054561139E+02  0.29779185304E+02  0.17770000000E+01 0. -1.
         15    1    1    2    0    0 -0.49771346819E+01 -0.92635611373E+00 -0.18004671816E+02  0.18787121693E+02  0.17770000000E+01 0.  1.
</event>
<event>
 6    1  0.8353910E-003  0.1831421E+03  0.7546771E-02  0.1067945E+00
        -11   -1    0    0    0    0  0.00000000000E+00  0.00000000000E+00  0.18250000000E+03  0.18250000000E+03  0.00000000000E+00 0. -1.
         11   -1    0    0    0    0 -0.00000000000E+00 -0.00000000000E+00 -0.18250000000E+03  0.18250000000E+03  0.00000000000E+00 0. -1.
        -11    1    1    2    0    0 -0.62449128446E+00 -0.21706045533E+01  0.15101433731E+03  0.15103122719E+03  0.00000000000E+00 0. -1.
         11    1    1    2    0    0 -0.25233386946E+01 -0.38124175881E+01 -0.18180040894E+03  0.18185788533E+03  0.00000000000E+00 0. -1.
        -15    1    1    2    0    0  0.34397090721E+00  0.19757161240E+01  0.39375986930E+01  0.47627914771E+01  0.17770000000E+01 0.  1.
         15    1    1    2    0    0  0.28038590718E+01  0.40073060175E+01  0.26848472937E+02  0.27348096008E+02  0.17770000000E+01 0. -1.
</event>
<event>
 6    1  0.8353910E-003  0.1831217E+03  0.7546771E-02  0.1067961E+00
        -11   -1    0    0    0    0  0.00000000000E+00  0.00000000000E+00  0.18250000000E+03  0.18250000000E+03  0.00000000000E+00 0. -1.
         11   -1    0    0    0    0 -0.00000000000E+00 -0.00000000000E+00 -0.18250000000E+03  0.18250000000E+03  0.00000000000E+00 0. -1.
        -11    1    1    2    0    0 -0.16157832388E+01 -0.17522029927E+01  0.15114305614E+03  0.15116184833E+03  0.00000000000E+00 0. -1.
         11    1    1    2    0    0 -0.21171569462E+01  0.18303753021E+01 -0.18185678885E+03  0.18187832273E+03  0.00000000000E+00 0. -1.
        -15    1    1    2    0    0 -0.39358396193E-01 -0.82308563180E+00  0.15712011676E+01  0.25110597663E+01  0.17770000000E+01 0. -1.
         15    1    1    2    0    0  0.37722985811E+01  0.74491332245E+00  0.29142531539E+02  0.29448769176E+02  0.17770000000E+01 0.  1.
</event>
<event>
 6    1  0.8353910E-003  0.1842853E+03  0.7546771E-02  0.1067043E+00
        -11   -1    0    0    0    0  0.00000000000E+00  0.00000000000E+00  0.18250000000E+03  0.18250000000E+03  0.00000000000E+00 0. -1.
         11   -1    0    0    0    0 -0.00000000000E+00 -0.00000000000E+00 -0.18250000000E+03  0.18250000000E+03  0.00000000000E+00 0. -1.
        -11    1    1    2    0    0 -0.51637876295E+01 -0.10892973875E+02  0.10158810440E+03  0.10230085307E+03  0.00000000000E+00 0. -1.
         11    1    1    2    0    0 -0.32185715007E+00  0.31250653464E+01 -0.18068742867E+03  0.18071473793E+03  0.00000000000E+00 0. -1.
        -15    1    1    2    0    0 -0.17065797260E+01 -0.39686586218E+00  0.59058437754E+02  0.59111138679E+02  0.17770000000E+01 0. -1.
         15    1    1    2    0    0  0.71922245056E+01  0.81647743906E+01  0.20040886514E+02  0.22873270327E+02  0.17770000000E+01 0.  1.
</event>
<event>
 6    1  0.8353910E-003  0.1829901E+03  0.7546771E-02  0.1068065E+00
        -11   -1    0    0    0    0  0.00000000000E+00  0.00000000000E+00  0.18250000000E+03  0.18250000000E+03  0.00000000000E+00 0.  1.
         11   -1    0    0    0    0 -0.00000000000E+00 -0.00000000000E+00 -0.18250000000E+03  0.18250000000E+03  0.00000000000E+00 0. -1.
        -11    1    1    2    0    0 -0.29056987484E+01 -0.10102158585E+01  0.18198394065E+03  0.18200994005E+03  0.00000000000E+00 0.  1.
         11    1    1    2    0    0  0.57907121539E+01 -0.30848622812E+00 -0.14900879405E+03  0.14912158870E+03  0.00000000000E+00 0. -1.
        -15    1    1    2    0    0 -0.35854365041E+01  0.21181110781E+01 -0.12607400837E+02  0.13395746875E+02  0.17770000000E+01 0. -1.
         15    1    1    2    0    0  0.70042309855E+00 -0.79940899149E+00 -0.20367745757E+02  0.20472724378E+02  0.17770000000E+01 0.  1.
</event>
<event>
 6    1  0.8353910E-003  0.1891067E+03  0.7546771E-02  0.1063314E+00
        -11   -1    0    0    0    0  0.00000000000E+00  0.00000000000E+00  0.18250000000E+03  0.18250000000E+03  0.00000000000E+00 0. -1.
         11   -1    0    0    0    0 -0.00000000000E+00 -0.00000000000E+00 -0.18250000000E+03  0.18250000000E+03  0.00000000000E+00 0. -1.
        -11    1    1    2    0    0 -0.34744622241E+01  0.53931542274E+01  0.17577625579E+03  0.17589329180E+03  0.00000000000E+00 0. -1.
         11    1    1    2    0    0  0.77350587544E+00 -0.34828675934E+01 -0.17050375670E+03  0.17054107930E+03  0.00000000000E+00 0. -1.
        -15    1    1    2    0    0  0.84806659509E+01 -0.20219302297E+01  0.19872715188E+01  0.91168456121E+01  0.17770000000E+01 0.  1.
         15    1    1    2    0    0 -0.57797096023E+01  0.11164359561E+00 -0.72597706088E+01  0.94487832906E+01  0.17770000000E+01 0. -1.
</event>
<event>
 6    1  0.8353910E-003  0.1869139E+03  0.7546771E-02  0.1064995E+00
        -11   -1    0    0    0    0  0.00000000000E+00  0.00000000000E+00  0.18250000000E+03  0.18250000000E+03  0.00000000000E+00 0. -1.
         11   -1    0    0    0    0 -0.00000000000E+00 -0.00000000000E+00 -0.18250000000E+03  0.18250000000E+03  0.00000000000E+00 0.  1.
        -11    1    1    2    0    0  0.28319292361E+01  0.16058745283E+01  0.17805631055E+03  0.17808607015E+03  0.00000000000E+00 0. -1.
         11    1    1    2    0    0  0.45442846551E+01  0.29591132675E+01 -0.17150360898E+03  0.17158932008E+03  0.00000000000E+00 0.  1.
        -15    1    1    2    0    0 -0.77436367269E+01 -0.28644996556E+01 -0.14010875129E+00  0.84466932878E+01  0.17770000000E+01 0.  1.
         15    1    1    2    0    0  0.36742283575E+00 -0.17004881402E+01 -0.64125928192E+01  0.68779164810E+01  0.17770000000E+01 0. -1.
</event>
<event>
 6    1  0.8353910E-003  0.1845903E+03  0.7546771E-02  0.1066803E+00
        -11   -1    0    0    0    0  0.00000000000E+00  0.00000000000E+00  0.18250000000E+03  0.18250000000E+03  0.00000000000E+00 0. -1.
         11   -1    0    0    0    0 -0.00000000000E+00 -0.00000000000E+00 -0.18250000000E+03  0.18250000000E+03  0.00000000000E+00 0.  1.
        -11    1    1    2    0    0  0.12499124593E+02 -0.58476810354E+01  0.17988114454E+03  0.18040967172E+03  0.00000000000E+00 0. -1.
         11    1    1    2    0    0 -0.11871947117E+01  0.47160146768E+01 -0.13086680043E+03  0.13095712917E+03  0.00000000000E+00 0.  1.
        -15    1    1    2    0    0  0.33822578282E+01 -0.19131145713E+01 -0.24241933759E+02  0.24615620178E+02  0.17770000000E+01 0.  1.
         15    1    1    2    0    0 -0.14694187709E+02  0.30447809298E+01 -0.24772410352E+02  0.29017578930E+02  0.17770000000E+01 0. -1.
</event>
<event>
 6    1  0.8353910E-003  0.1834902E+03  0.7546771E-02  0.1067669E+00
        -11   -1    0    0    0    0  0.00000000000E+00  0.00000000000E+00  0.18250000000E+03  0.18250000000E+03  0.00000000000E+00 0. -1.
         11   -1    0    0    0    0 -0.00000000000E+00 -0.00000000000E+00 -0.18250000000E+03  0.18250000000E+03  0.00000000000E+00 0. -1.
        -11    1    1    2    0    0  0.22233396936E+01  0.11535843999E+01  0.16305363432E+03  0.16307287225E+03  0.00000000000E+00 0. -1.
         11    1    1    2    0    0  0.18623903180E+01  0.16158993840E+01 -0.18149303360E+03  0.18150978176E+03  0.00000000000E+00 0. -1.
        -15    1    1    2    0    0 -0.35438194204E+01 -0.20787720986E+01  0.45340283516E+01  0.63714277533E+01  0.17770000000E+01 0.  1.
         15    1    1    2    0    0 -0.54191059113E+00 -0.69071168529E+00  0.13905370925E+02  0.14045918243E+02  0.17770000000E+01 0.  1.
</event>
<event>
 6    1  0.9546970E-003  0.1839552E+03  0.7546771E-02  0.1067302E+00
        -11   -1    0    0    0    0  0.00000000000E+00  0.00000000000E+00  0.18250000000E+03  0.18250000000E+03  0.00000000000E+00 0.  1.
         11   -1    0    0    0    0 -0.00000000000E+00 -0.00000000000E+00 -0.18250000000E+03  0.18250000000E+03  0.00000000000E+00 0.  1.
        -11    1    1    2    0    0  0.27900085213E+01  0.12824700168E-01  0.18102331409E+03  0.18104481367E+03  0.00000000000E+00 0.  1.
         11    1    1    2    0    0 -0.55812618293E+01  0.12214281894E+01 -0.46587462402E+02  0.46936489254E+02  0.00000000000E+00 0.  1.
        -15    1    1    2    0    0  0.72109783162E+01 -0.42954272988E+01 -0.12860510722E+03  0.12889096258E+03  0.17770000000E+01 0.  1.
         15    1    1    2    0    0 -0.44197250081E+01  0.30611744092E+01 -0.58307444741E+01  0.81277344958E+01  0.17770000000E+01 0. -1.
</event>
<event>
 6    1  0.8353910E-003  0.1837415E+03  0.7546771E-02  0.1067471E+00
        -11   -1    0    0    0    0  0.00000000000E+00  0.00000000000E+00  0.18250000000E+03  0.18250000000E+03  0.00000000000E+00 0.  1.
         11   -1    0    0    0    0 -0.00000000000E+00 -0.00000000000E+00 -0.18250000000E+03  0.18250000000E+03  0.00000000000E+00 0.  1.
        -11    1    1    2    0    0  0.26557852866E+01 -0.34731597093E+01  0.16405529870E+03  0.16411354931E+03  0.00000000000E+00 0.  1.
         11    1    1    2    0    0 -0.47834191846E+01 -0.22396434560E+01 -0.18118152065E+03  0.18125849091E+03  0.00000000000E+00 0.  1.
        -15    1    1    2    0    0  0.43068810068E+00  0.65475074996E+01  0.14014055653E+02  0.15575841279E+02  0.17770000000E+01 0.  1.
         15    1    1    2    0    0  0.16969457972E+01 -0.83470433433E+00  0.31121662936E+01  0.40521185081E+01  0.17770000000E+01 0. -1.
</event>
<event>
 6    1  0.8353910E-003  0.1866857E+03  0.7546771E-02  0.1065171E+00
        -11   -1    0    0    0    0  0.00000000000E+00  0.00000000000E+00  0.18250000000E+03  0.18250000000E+03  0.00000000000E+00 0.  1.
         11   -1    0    0    0    0 -0.00000000000E+00 -0.00000000000E+00 -0.18250000000E+03  0.18250000000E+03  0.00000000000E+00 0. -1.
        -11    1    1    2    0    0 -0.32263822730E+01  0.98623885178E+01  0.17801211926E+03  0.17831430356E+03  0.00000000000E+00 0.  1.
         11    1    1    2    0    0  0.10043364288E+02 -0.94918247565E+01 -0.16133730244E+03  0.16192803668E+03  0.00000000000E+00 0. -1.
        -15    1    1    2    0    0 -0.10940856100E+02  0.34019293748E+01 -0.14350393943E+02  0.18449037671E+02  0.17770000000E+01 0. -1.
         15    1    1    2    0    0  0.41238740856E+01 -0.37724931361E+01 -0.23244228759E+01  0.63086220874E+01  0.17770000000E+01 0.  1.
</event>
<event>
 6    1  0.8353910E-003  0.1856195E+03  0.7546771E-02  0.1065998E+00
        -11   -1    0    0    0    0  0.00000000000E+00  0.00000000000E+00  0.18250000000E+03  0.18250000000E+03  0.00000000000E+00 0.  1.
         11   -1    0    0    0    0 -0.00000000000E+00 -0.00000000000E+00 -0.18250000000E+03  0.18250000000E+03  0.00000000000E+00 0.  1.
        -11    1    1    2    0    0  0.18966897689E+01 -0.20343140378E+01  0.17935894554E+03  0.17938050956E+03  0.00000000000E+00 0.  1.
         11    1    1    2    0    0  0.17889757204E+01 -0.20295903783E+01 -0.17572864203E+03  0.17574946743E+03  0.00000000000E+00 0.  1.
        -15    1    1    2    0    0 -0.27876058574E+01  0.30172084344E+01  0.11202915420E+01  0.46137918561E+01  0.17770000000E+01 0.  1.
         15    1    1    2    0    0 -0.89805963189E+00  0.10466959817E+01 -0.47505950487E+01  0.52562311495E+01  0.17770000000E+01 0.  1.
</event>
<event>
 6    1  0.8353910E-003  0.1847483E+03  0.7546771E-02  0.1066679E+00
        -11   -1    0    0    0    0  0.00000000000E+00  0.00000000000E+00  0.18250000000E+03  0.18250000000E+03  0.00000000000E+00 0.  1.
         11   -1    0    0    0    0 -0.00000000000E+00 -0.00000000000E+00 -0.18250000000E+03  0.18250000000E+03  0.00000000000E+00 0. -1.
        -11    1    1    2    0    0 -0.34300153391E+01  0.96404747395E+00  0.16149969026E+03  0.16153898708E+03  0.00000000000E+00 0.  1.
         11    1    1    2    0    0  0.80199449201E+01  0.83068487891E+01 -0.17988149610E+03  0.18025170150E+03  0.00000000000E+00 0. -1.
        -15    1    1    2    0    0 -0.27576680217E+01 -0.73239062065E+01  0.18317610905E+02  0.19998423270E+02  0.17770000000E+01 0.  1.
         15    1    1    2    0    0 -0.18322615593E+01 -0.19469900566E+01  0.64194933966E-01  0.32108881468E+01  0.17770000000E+01 0. -1.
</event>
<event>
 6    1  0.8353910E-003  0.1880136E+03  0.7546771E-02  0.1064149E+00
        -11   -1    0    0    0    0  0.00000000000E+00  0.00000000000E+00  0.18250000000E+03  0.18250000000E+03  0.00000000000E+00 0. -1.
         11   -1    0    0    0    0 -0.00000000000E+00 -0.00000000000E+00 -0.18250000000E+03  0.18250000000E+03  0.00000000000E+00 0.  1.
        -11    1    1    2    0    0  0.78687730774E+00  0.34466703015E+01  0.16178811460E+03  0.16182673678E+03  0.00000000000E+00 0. -1.
         11    1    1    2    0    0 -0.84521075052E+01 -0.24528545064E+01 -0.17676744953E+03  0.17698640012E+03  0.00000000000E+00 0.  1.
        -15    1    1    2    0    0  0.73759104319E+01 -0.58254142507E+01  0.17874862807E+02  0.20273331134E+02  0.17770000000E+01 0.  1.
         15    1    1    2    0    0  0.28931976555E+00  0.48315984556E+01 -0.28955278791E+01  0.59135319617E+01  0.17770000000E+01 0. -1.
</event>
<event>
 6    1  0.8353910E-003  0.1850222E+03  0.7546771E-02  0.1066465E+00
        -11   -1    0    0    0    0  0.00000000000E+00  0.00000000000E+00  0.18250000000E+03  0.18250000000E+03  0.00000000000E+00 0. -1.
         11   -1    0    0    0    0 -0.00000000000E+00 -0.00000000000E+00 -0.18250000000E+03  0.18250000000E+03  0.00000000000E+00 0. -1.
        -11    1    1    2    0    0  0.34474525161E+01  0.23574210843E+01  0.17992934595E+03  0.17997780946E+03  0.00000000000E+00 0. -1.
         11    1    1    2    0    0  0.24333079891E+01 -0.40089599496E+01 -0.15869476717E+03  0.15876404465E+03  0.00000000000E+00 0. -1.
        -15    1    1    2    0    0 -0.75758801523E+01 -0.41824021037E+01 -0.98427021512E+01  0.13225844475E+02  0.17770000000E+01 0.  1.
         15    1    1    2    0    0  0.16951196471E+01  0.58339409691E+01 -0.11391876636E+02  0.13032301414E+02  0.17770000000E+01 0.  1.
</event>
<event>
 6    1  0.8353910E-003  0.1719416E+03  0.7546771E-02  0.1077184E+00
        -11   -1    0    0    0    0  0.00000000000E+00  0.00000000000E+00  0.18250000000E+03  0.18250000000E+03  0.00000000000E+00 0.  1.
         11   -1    0    0    0    0 -0.00000000000E+00 -0.00000000000E+00 -0.18250000000E+03  0.18250000000E+03  0.00000000000E+00 0.  1.
        -11    1    1    2    0    0  0.40960005992E+01 -0.27051871521E+00  0.17185382843E+03  0.17190284683E+03  0.00000000000E+00 0.  1.
         11    1    1    2    0    0 -0.32066835083E+01  0.61175614088E+01 -0.17189247000E+03  0.17203118502E+03  0.00000000000E+00 0.  1.
        -15    1    1    2    0    0 -0.21780773631E+01  0.19487917092E+01  0.86154231279E+01  0.92695768403E+01  0.17770000000E+01 0. -1.
         15    1    1    2    0    0  0.12887602723E+01 -0.77958344028E+01 -0.85767815619E+01  0.11796391314E+02  0.17770000000E+01 0.  1.
</event>
<event>
 6    1  0.8353910E-003  0.1851278E+03  0.7546771E-02  0.1066382E+00
        -11   -1    0    0    0    0  0.00000000000E+00  0.00000000000E+00  0.18250000000E+03  0.18250000000E+03  0.00000000000E+00 0.  1.
         11   -1    0    0    0    0 -0.00000000000E+00 -0.00000000000E+00 -0.18250000000E+03  0.18250000000E+03  0.00000000000E+00 0. -1.
        -11    1    1    2    0    0 -0.57733539236E+01 -0.12879889936E+01  0.16961542139E+03  0.16971853671E+03  0.00000000000E+00 0.  1.
         11    1    1    2    0    0 -0.14277480838E+01 -0.35426047651E+01 -0.17983161455E+03  0.17987217157E+03  0.00000000000E+00 0. -1.
        -15    1    1    2    0    0  0.69643114741E+01  0.58242911209E+01  0.70228724245E+01  0.11614752148E+02  0.17770000000E+01 0. -1.
         15    1    1    2    0    0  0.23679053330E+00 -0.99369736222E+00  0.31933207386E+01  0.37945395694E+01  0.17770000000E+01 0.  1.
</event>
<event>
 6    1  0.8353910E-003  0.1835436E+03  0.7546771E-02  0.1067627E+00
        -11   -1    0    0    0    0  0.00000000000E+00  0.00000000000E+00  0.18250000000E+03  0.18250000000E+03  0.00000000000E+00 0. -1.
         11   -1    0    0    0    0 -0.00000000000E+00 -0.00000000000E+00 -0.18250000000E+03  0.18250000000E+03  0.00000000000E+00 0.  1.
        -11    1    1    2    0    0 -0.32460415504E+01 -0.14843184864E+00  0.15292459200E+03  0.15295911106E+03  0.00000000000E+00 0. -1.
         11    1    1    2    0    0  0.23900367989E+00  0.49996359505E+01 -0.18138739809E+03  0.18145644565E+03  0.00000000000E+00 0.  1.
        -15    1    1    2    0    0  0.49345762559E+01 -0.50349222003E+01  0.12956086623E+02  0.14856594293E+02  0.17770000000E+01 0. -1.
         15    1    1    2    0    0 -0.19275383854E+01  0.18371809851E+00  0.15506719462E+02  0.15727848996E+02  0.17770000000E+01 0. -1.
</event>
<event>
 6    1  0.8353910E-003  0.1736124E+03  0.7546771E-02  0.1075758E+00
        -11   -1    0    0    0    0  0.00000000000E+00  0.00000000000E+00  0.18250000000E+03  0.18250000000E+03  0.00000000000E+00 0.  1.
         11   -1    0    0    0    0 -0.00000000000E+00 -0.00000000000E+00 -0.18250000000E+03  0.18250000000E+03  0.00000000000E+00 0.  1.
        -11    1    1    2    0    0  0.41067772489E+01  0.51380887106E+01  0.17440869960E+03  0.17453269055E+03  0.00000000000E+00 0.  1.
         11    1    1    2    0    0 -0.38629849494E+01  0.15758074211E+01 -0.17271087467E+03  0.17276125738E+03  0.00000000000E+00 0.  1.
        -15    1    1    2    0    0 -0.25108409945E+01 -0.21402233439E+01 -0.83395893353E+01  0.91428309480E+01  0.17770000000E+01 0. -1.
         15    1    1    2    0    0  0.22670486950E+01 -0.45736727878E+01  0.66417644063E+01  0.85632211220E+01  0.17770000000E+01 0.  1.
</event>
<event>
 6    1  0.8353910E-003  0.1843117E+03  0.7546771E-02  0.1067022E+00
        -11   -1    0    0    0    0  0.00000000000E+00  0.00000000000E+00  0.18250000000E+03  0.18250000000E+03  0.00000000000E+00 0. -1.
         11   -1    0    0    0    0 -0.00000000000E+00 -0.00000000000E+00 -0.18250000000E+03  0.18250000000E+03  0.00000000000E+00 0.  1.
        -11    1    1    2    0    0 -0.19992145631E+01  0.52099745631E+01  0.14361596895E+03  0.14372434460E+03  0.00000000000E+00 0. -1.
         11    1    1    2    0    0 -0.54319053151E+01 -0.59804906148E+01 -0.18050758597E+03  0.18068829640E+03  0.00000000000E+00 0.  1.
        -15    1    1    2    0    0  0.30032309322E+01 -0.16512439999E+01  0.34519178957E+02  0.34734384228E+02  0.17770000000E+01 0. -1.
         15    1    1    2    0    0  0.44278889460E+01  0.24217600517E+01  0.23724380693E+01  0.58529747700E+01  0.17770000000E+01 0.  1.
</event>
<event>
 6    1  0.8353910E-003  0.1857635E+03  0.7546771E-02  0.1065886E+00
        -11   -1    0    0    0    0  0.00000000000E+00  0.00000000000E+00  0.18250000000E+03  0.18250000000E+03  0.00000000000E+00 0.  1.
         11   -1    0    0    0    0 -0.00000000000E+00 -0.00000000000E+00 -0.18250000000E+03  0.18250000000E+03  0.00000000000E+00 0.  1.
        -11    1    1    2    0    0 -0.18638155801E+01 -0.63379286947E+01  0.14462647019E+03  0.14477727386E+03  0.00000000000E+00 0.  1.
         11    1    1    2    0    0  0.60025344054E+01 -0.98357311892E+00 -0.17913323184E+03  0.17923647113E+03  0.00000000000E+00 0.  1.
        -15    1    1    2    0    0  0.17502653728E+01  0.10434067479E+02  0.31832796851E+02  0.33591931731E+02  0.17770000000E+01 0.  1.
         15    1    1    2    0    0 -0.58889841980E+01 -0.31125656658E+01  0.26739647998E+01  0.73943232726E+01  0.17770000000E+01 0. -1.
</event>
<event>
 6    1  0.8353910E-003  0.1950590E+03  0.7546771E-02  0.1058875E+00
        -11   -1    0    0    0    0  0.00000000000E+00  0.00000000000E+00  0.18250000000E+03  0.18250000000E+03  0.00000000000E+00 0. -1.
         11   -1    0    0    0    0 -0.00000000000E+00 -0.00000000000E+00 -0.18250000000E+03  0.18250000000E+03  0.00000000000E+00 0.  1.
        -11    1    1    2    0    0  0.42560308781E+01  0.45070665627E+02  0.16380005127E+03  0.16994097650E+03  0.00000000000E+00 0. -1.
         11    1    1    2    0    0 -0.12019746628E+02  0.13447532735E+02 -0.10724274250E+03  0.10874886788E+03  0.00000000000E+00 0.  1.
        -15    1    1    2    0    0  0.51062986376E+01 -0.55871612471E+02 -0.59047098507E+02  0.81470417558E+02  0.17770000000E+01 0. -1.
         15    1    1    2    0    0  0.26574171121E+01 -0.26465858913E+01  0.24897897340E+01  0.48397380618E+01  0.17770000000E+01 0.  1.
</event>
<event>
 6    1  0.8353910E-003  0.1730416E+03  0.7546771E-02  0.1076243E+00
        -11   -1    0    0    0    0  0.00000000000E+00  0.00000000000E+00  0.18250000000E+03  0.18250000000E+03  0.00000000000E+00 0.  1.
         11   -1    0    0    0    0 -0.00000000000E+00 -0.00000000000E+00 -0.18250000000E+03  0.18250000000E+03  0.00000000000E+00 0.  1.
        -11    1    1    2    0    0 -0.55931435040E+01  0.41905290983E+00  0.17361903975E+03  0.17370961351E+03  0.00000000000E+00 0.  1.
         11    1    1    2    0    0  0.47664575442E+01  0.27009073134E+01 -0.17230408206E+03  0.17239115613E+03  0.00000000000E+00 0.  1.
        -15    1    1    2    0    0 -0.76385790278E+01  0.18867364709E+01  0.21042394089E+01  0.83362591469E+01  0.17770000000E+01 0.  1.
         15    1    1    2    0    0  0.84652649876E+01 -0.50066966941E+01 -0.34191971008E+01  0.10562971216E+02  0.17770000000E+01 0. -1.
</event>
<event>
 6    1  0.8353910E-003  0.1872943E+03  0.7546771E-02  0.1064701E+00
        -11   -1    0    0    0    0  0.00000000000E+00  0.00000000000E+00  0.18250000000E+03  0.18250000000E+03  0.00000000000E+00 0.  1.
         11   -1    0    0    0    0 -0.00000000000E+00 -0.00000000000E+00 -0.18250000000E+03  0.18250000000E+03  0.00000000000E+00 0.  1.
        -11    1    1    2    0    0  0.22854501478E+01 -0.19578447257E+01  0.17768019131E+03  0.17770567470E+03  0.00000000000E+00 0.  1.
         11    1    1    2    0    0 -0.32324349800E+00  0.20612166328E+01 -0.14342428579E+03  0.14343946059E+03  0.00000000000E+00 0.  1.
        -15    1    1    2    0    0 -0.82938345215E+00  0.13464042266E+02 -0.15780851300E+02  0.20836537807E+02  0.17770000000E+01 0. -1.
         15    1    1    2    0    0 -0.11328231976E+01 -0.13567414173E+02 -0.18475054217E+02  0.23018326895E+02  0.17770000000E+01 0.  1.
</event>
<event>
 6    1  0.8353910E-003  0.1777905E+03  0.7546771E-02  0.1072267E+00
        -11   -1    0    0    0    0  0.00000000000E+00  0.00000000000E+00  0.18250000000E+03  0.18250000000E+03  0.00000000000E+00 0.  1.
         11   -1    0    0    0    0 -0.00000000000E+00 -0.00000000000E+00 -0.18250000000E+03  0.18250000000E+03  0.00000000000E+00 0.  1.
        -11    1    1    2    0    0 -0.65269053795E+00 -0.42020307272E+01  0.17825142365E+03  0.17830213992E+03  0.00000000000E+00 0.  1.
         11    1    1    2    0    0 -0.32515779645E+01 -0.23555201036E+01 -0.17731660253E+03  0.17736205561E+03  0.00000000000E+00 0.  1.
        -15    1    1    2    0    0  0.27096247724E+01  0.11363284854E+01 -0.80548496600E-02  0.34338175133E+01  0.17770000000E+01 0.  1.
         15    1    1    2    0    0  0.11946437301E+01  0.54212223455E+01 -0.92676626609E+00  0.59019869597E+01  0.17770000000E+01 0. -1.
</event>
<event>
 6    1  0.8353910E-003  0.1904851E+03  0.7546771E-02  0.1062271E+00
        -11   -1    0    0    0    0  0.00000000000E+00  0.00000000000E+00  0.18250000000E+03  0.18250000000E+03  0.00000000000E+00 0.  1.
         11   -1    0    0    0    0 -0.00000000000E+00 -0.00000000000E+00 -0.18250000000E+03  0.18250000000E+03  0.00000000000E+00 0. -1.
        -11    1    1    2    0    0  0.22225268107E+00 -0.62754122843E+01  0.75106925491E+02  0.75368962128E+02  0.00000000000E+00 0.  1.
         11    1    1    2    0    0  0.14091746432E+01  0.20172824665E+01 -0.17449750809E+03  0.17451485763E+03  0.00000000000E+00 0. -1.
        -15    1    1    2    0    0 -0.79230601977E+01 -0.80762784082E+01 -0.29512660810E+01  0.11826616435E+02  0.17770000000E+01 0. -1.
         15    1    1    2    0    0  0.62916328734E+01  0.12334408226E+02  0.10234184868E+03  0.10328956381E+03  0.17770000000E+01 0. -1.
</event>
<event>
 6    1  0.8353910E-003  0.1857533E+03  0.7546771E-02  0.1065894E+00
        -11   -1    0    0    0    0  0.00000000000E+00  0.00000000000E+00  0.18250000000E+03  0.18250000000E+03  0.00000000000E+00 0. -1.
         11   -1    0    0    0    0 -0.00000000000E+00 -0.00000000000E+00 -0.18250000000E+03  0.18250000000E+03  0.00000000000E+00 0. -1.
        -11    1    1    2    0    0  0.36792274333E+01  0.77725982697E+00  0.16591524034E+03  0.16595784954E+03  0.00000000000E+00 0. -1.
         11    1    1    2    0    0 -0.74780729375E+00 -0.44538547887E+01 -0.17918983644E+03  0.17924673923E+03  0.00000000000E+00 0. -1.
        -15    1    1    2    0    0 -0.49358043339E+01  0.55044352205E+00  0.14557243235E+02  0.15483417326E+02  0.17770000000E+01 0. -1.
         15    1    1    2    0    0  0.20043841943E+01  0.31261514397E+01 -0.12826471275E+01  0.43119939096E+01  0.17770000000E+01 0. -1.
</event>
<event>
 6    1  0.1141973E-002  0.1913439E+03  0.7546771E-02  0.1061625E+00
        -11   -1    0    0    0    0  0.00000000000E+00  0.00000000000E+00  0.18250000000E+03  0.18250000000E+03  0.00000000000E+00 0. -1.
         11   -1    0    0    0    0 -0.00000000000E+00 -0.00000000000E+00 -0.18250000000E+03  0.18250000000E+03  0.00000000000E+00 0. -1.
        -11    1    1    2    0    0  0.78793346217E+01  0.24170355236E+01  0.17346042425E+03  0.17365611062E+03  0.00000000000E+00 0. -1.
         11    1    1    2    0    0  0.74032609443E+00 -0.35060935507E+01 -0.16199285996E+03  0.16203248888E+03  0.00000000000E+00 0. -1.
        -15    1    1    2    0    0 -0.24425531043E+01  0.86353871614E+00 -0.19085045612E+02  0.19341883564E+02  0.17770000000E+01 0.  1.
         15    1    1    2    0    0 -0.61771076118E+01  0.22551931099E+00  0.76174813169E+01  0.99695169402E+01  0.17770000000E+01 0. -1.
</event>
<event>
 6    1  0.8353910E-003  0.1883293E+03  0.7546771E-02  0.1063907E+00
        -11   -1    0    0    0    0  0.00000000000E+00  0.00000000000E+00  0.18250000000E+03  0.18250000000E+03  0.00000000000E+00 0. -1.
         11   -1    0    0    0    0 -0.00000000000E+00 -0.00000000000E+00 -0.18250000000E+03  0.18250000000E+03  0.00000000000E+00 0. -1.
        -11    1    1    2    0    0  0.22303858380E+01 -0.33956255832E+00  0.15003731387E+03  0.15005427510E+03  0.00000000000E+00 0. -1.
         11    1    1    2    0    0 -0.14577837641E+02  0.63930376613E+01 -0.17595212529E+03  0.17667069558E+03  0.00000000000E+00 0. -1.
        -15    1    1    2    0    0  0.13340404786E+02 -0.81758945967E+01  0.41123925922E+01  0.16275169865E+02  0.17770000000E+01 0.  1.
         15    1    1    2    0    0 -0.99295298305E+00  0.21224194937E+01  0.21802418834E+02  0.21999859458E+02  0.17770000000E+01 0. -1.
</event>
<event>
 6    1  0.8353910E-003  0.1919728E+03  0.7546771E-02  0.1061155E+00
        -11   -1    0    0    0    0  0.00000000000E+00  0.00000000000E+00  0.18250000000E+03  0.18250000000E+03  0.00000000000E+00 0.  1.
         11   -1    0    0    0    0 -0.00000000000E+00 -0.00000000000E+00 -0.18250000000E+03  0.18250000000E+03  0.00000000000E+00 0. -1.
        -11    1    1    2    0    0 -0.51698328789E+01  0.24644110233E+01  0.16235878639E+03  0.16245976736E+03  0.00000000000E+00 0.  1.
         11    1    1    2    0    0 -0.28691825628E+01 -0.20767785085E+01 -0.17299095333E+03  0.17302720928E+03  0.00000000000E+00 0. -1.
        -15    1    1    2    0    0  0.10193822740E+02  0.56896111281E+01  0.16719598245E+02  0.20469205928E+02  0.17770000000E+01 0.  1.
         15    1    1    2    0    0 -0.21548072984E+01 -0.60772436430E+01 -0.60874313085E+01  0.90438174309E+01  0.17770000000E+01 0. -1.
</event>
<event>
 6    1  0.8353910E-003  0.1845869E+03  0.7546771E-02  0.1066806E+00
        -11   -1    0    0    0    0  0.00000000000E+00  0.00000000000E+00  0.18250000000E+03  0.18250000000E+03  0.00000000000E+00 0. -1.
         11   -1    0    0    0    0 -0.00000000000E+00 -0.00000000000E+00 -0.18250000000E+03  0.18250000000E+03  0.00000000000E+00 0.  1.
        -11    1    1    2    0    0  0.31689000311E+01  0.43652579109E+01  0.14974223640E+03  0.14983936321E+03  0.00000000000E+00 0. -1.
         11    1    1    2    0    0  0.24782584570E+01 -0.38506585933E+01 -0.18035495767E+03  0.18041308182E+03  0.00000000000E+00 0.  1.
        -15    1    1    2    0    0 -0.26022382575E+01  0.25379023853E+01  0.27700983764E+00  0.40554969999E+01  0.17770000000E+01 0. -1.
         15    1    1    2    0    0 -0.30449202306E+01 -0.30525017028E+01  0.30335711426E+02  0.30692057972E+02  0.17770000000E+01 0.  1.
</event>
<event>
 6    1  0.8353910E-003  0.1867583E+03  0.7546771E-02  0.1065115E+00
        -11   -1    0    0    0    0  0.00000000000E+00  0.00000000000E+00  0.18250000000E+03  0.18250000000E+03  0.00000000000E+00 0.  1.
         11   -1    0    0    0    0 -0.00000000000E+00 -0.00000000000E+00 -0.18250000000E+03  0.18250000000E+03  0.00000000000E+00 0. -1.
        -11    1    1    2    0    0 -0.42372571439E-01  0.24903103767E+01  0.17822433487E+03  0.17824173749E+03  0.00000000000E+00 0.  1.
         11    1    1    2    0    0 -0.12552996386E+01 -0.28357596486E+01 -0.16419609670E+03  0.16422538014E+03  0.00000000000E+00 0. -1.
        -15    1    1    2    0    0  0.41193134011E+01 -0.52440757789E+01 -0.14447101808E+02  0.16010794900E+02  0.17770000000E+01 0. -1.
         15    1    1    2    0    0 -0.28216411911E+01  0.55895250508E+01  0.41886363174E+00  0.65220874761E+01  0.17770000000E+01 0.  1.
</event>
<event>
 6    1  0.8353910E-003  0.2110351E+03  0.7546771E-02  0.1047768E+00
        -11   -1    0    0    0    0  0.00000000000E+00  0.00000000000E+00  0.18250000000E+03  0.18250000000E+03  0.00000000000E+00 0. -1.
         11   -1    0    0    0    0 -0.00000000000E+00 -0.00000000000E+00 -0.18250000000E+03  0.18250000000E+03  0.00000000000E+00 0.  1.
        -11    1    1    2    0    0  0.22530497672E+01  0.19901884163E+01  0.15393552591E+03  0.15396487658E+03  0.00000000000E+00 0. -1.
         11    1    1    2    0    0  0.12858889864E+01  0.27350400075E+01 -0.14725306669E+03  0.14728407790E+03  0.00000000000E+00 0.  1.
        -15    1    1    2    0    0 -0.64085349057E+01  0.59633738145E+01 -0.33507857717E+02  0.34678024809E+02  0.17770000000E+01 0. -1.
         15    1    1    2    0    0  0.28695961521E+01 -0.10688602238E+02  0.26825398498E+02  0.29073020715E+02  0.17770000000E+01 0.  1.
</event>
<event>
 6    1  0.8353910E-003  0.1857585E+03  0.7546771E-02  0.1065890E+00
        -11   -1    0    0    0    0  0.00000000000E+00  0.00000000000E+00  0.18250000000E+03  0.18250000000E+03  0.00000000000E+00 0.  1.
         11   -1    0    0    0    0 -0.00000000000E+00 -0.00000000000E+00 -0.18250000000E+03  0.18250000000E+03  0.00000000000E+00 0. -1.
        -11    1    1    2    0    0 -0.79157558342E+01 -0.25371910720E+01  0.41329761004E+02  0.42157391684E+02  0.00000000000E+00 0.  1.
         11    1    1    2    0    0  0.27447094658E+01 -0.16172398042E+02 -0.17848927218E+03  0.17924145774E+03  0.00000000000E+00 0. -1.
        -15    1    1    2    0    0  0.82482301811E+00 -0.80945581319E+00  0.10898559936E+03  0.10900621151E+03  0.17770000000E+01 0.  1.
         15    1    1    2    0    0  0.43462233503E+01  0.19519044927E+02  0.28173911820E+02  0.34594939059E+02  0.17770000000E+01 0. -1.
</event>
<event>
 6    1  0.8353910E-003  0.1828087E+03  0.7546771E-02  0.1068209E+00
        -11   -1    0    0    0    0  0.00000000000E+00  0.00000000000E+00  0.18250000000E+03  0.18250000000E+03  0.00000000000E+00 0. -1.
         11   -1    0    0    0    0 -0.00000000000E+00 -0.00000000000E+00 -0.18250000000E+03  0.18250000000E+03  0.00000000000E+00 0.  1.
        -11    1    1    2    0    0 -0.40243557303E+01 -0.12368868926E+01  0.18214262944E+03  0.18219128077E+03  0.00000000000E+00 0. -1.
         11    1    1    2    0    0  0.14280725147E+01 -0.76855465349E+00 -0.89837976755E+02  0.89852613400E+02  0.00000000000E+00 0.  1.
        -15    1    1    2    0    0  0.39923074821E+01  0.24236854047E+01 -0.19995671740E+02  0.20610613462E+02  0.17770000000E+01 0.  1.
         15    1    1    2    0    0 -0.13960242665E+01 -0.41824385856E+00 -0.72308980947E+02  0.72345492370E+02  0.17770000000E+01 0.  1.
</event>
<event>
 6    1  0.8353910E-003  0.1830734E+03  0.7546771E-02  0.1067999E+00
        -11   -1    0    0    0    0  0.00000000000E+00  0.00000000000E+00  0.18250000000E+03  0.18250000000E+03  0.00000000000E+00 0. -1.
         11   -1    0    0    0    0 -0.00000000000E+00 -0.00000000000E+00 -0.18250000000E+03  0.18250000000E+03  0.00000000000E+00 0. -1.
        -11    1    1    2    0    0  0.10243450860E+01 -0.36489747717E+01  0.15048243133E+03  0.15053015126E+03  0.00000000000E+00 0. -1.
         11    1    1    2    0    0  0.44846043904E+01  0.74229699494E+00 -0.18186977122E+03  0.18192656860E+03  0.00000000000E+00 0. -1.
        -15    1    1    2    0    0 -0.49203202528E+01  0.20937124506E+01  0.14895923575E+02  0.15926062017E+02  0.17770000000E+01 0. -1.
         15    1    1    2    0    0 -0.58862922363E+00  0.81296532610E+00  0.16491416311E+02  0.16617218116E+02  0.17770000000E+01 0. -1.
</event>
<event>
 6    1  0.8353910E-003  0.1781867E+03  0.7546771E-02  0.1071941E+00
        -11   -1    0    0    0    0  0.00000000000E+00  0.00000000000E+00  0.18250000000E+03  0.18250000000E+03  0.00000000000E+00 0. -1.
         11   -1    0    0    0    0 -0.00000000000E+00 -0.00000000000E+00 -0.18250000000E+03  0.18250000000E+03  0.00000000000E+00 0. -1.
        -11    1    1    2    0    0  0.29918418260E+01  0.24270245739E+01  0.17850565305E+03  0.17854721991E+03  0.00000000000E+00 0. -1.
         11    1    1    2    0    0  0.49460271432E+00  0.24001077505E+01 -0.17785965614E+03  0.17787653704E+03  0.00000000000E+00 0. -1.
        -15    1    1    2    0    0 -0.20343919247E+01 -0.55144031909E+01 -0.22915459062E+00  0.61447240688E+01  0.17770000000E+01 0.  1.
         15    1    1    2    0    0 -0.14520526156E+01  0.68727086652E+00 -0.41684232420E+00  0.24315189832E+01  0.17770000000E+01 0. -1.
</event>
<event>
 6    1  0.8353910E-003  0.1866440E+03  0.7546771E-02  0.1065203E+00
        -11   -1    0    0    0    0  0.00000000000E+00  0.00000000000E+00  0.18250000000E+03  0.18250000000E+03  0.00000000000E+00 0.  1.
         11   -1    0    0    0    0 -0.00000000000E+00 -0.00000000000E+00 -0.18250000000E+03  0.18250000000E+03  0.00000000000E+00 0. -1.
        -11    1    1    2    0    0 -0.48626699475E+00  0.24186694067E+01  0.17833896260E+03  0.17835602597E+03  0.00000000000E+00 0.  1.
         11    1    1    2    0    0 -0.24572441100E+01  0.23854015955E+01 -0.17377543653E+03  0.17380917850E+03  0.00000000000E+00 0. -1.
        -15    1    1    2    0    0  0.40181313052E+01 -0.38170306180E+01 -0.72510689365E+01  0.92978939360E+01  0.17770000000E+01 0. -1.
         15    1    1    2    0    0 -0.10746202004E+01 -0.98704038422E+00  0.26875428587E+01  0.35369015978E+01  0.17770000000E+01 0.  1.
</event>
<event>
 6    1  0.8353910E-003  0.1841085E+03  0.7546771E-02  0.1067182E+00
        -11   -1    0    0    0    0  0.00000000000E+00  0.00000000000E+00  0.18250000000E+03  0.18250000000E+03  0.00000000000E+00 0. -1.
         11   -1    0    0    0    0 -0.00000000000E+00 -0.00000000000E+00 -0.18250000000E+03  0.18250000000E+03  0.00000000000E+00 0. -1.
        -11    1    1    2    0    0 -0.10831636624E+02  0.79745252267E+00  0.18056513921E+03  0.18089148621E+03  0.00000000000E+00 0. -1.
         11    1    1    2    0    0 -0.35545018975E+01 -0.12655262284E+01 -0.14129538143E+03  0.14134574933E+03  0.00000000000E+00 0. -1.
        -15    1    1    2    0    0  0.10517962444E+01  0.26066996615E+00 -0.13818492366E+02  0.13974358105E+02  0.17770000000E+01 0. -1.
         15    1    1    2    0    0  0.13334342277E+02  0.20740373961E+00 -0.25451265421E+02  0.28788406361E+02  0.17770000000E+01 0. -1.
</event>
<event>
 6    1  0.8353910E-003  0.1828373E+03  0.7546771E-02  0.1068187E+00
        -11   -1    0    0    0    0  0.00000000000E+00  0.00000000000E+00  0.18250000000E+03  0.18250000000E+03  0.00000000000E+00 0. -1.
         11   -1    0    0    0    0 -0.00000000000E+00 -0.00000000000E+00 -0.18250000000E+03  0.18250000000E+03  0.00000000000E+00 0.  1.
        -11    1    1    2    0    0 -0.26682256406E+01  0.39490421026E+01  0.18210030010E+03  0.18216265714E+03  0.00000000000E+00 0. -1.
         11    1    1    2    0    0 -0.38343113496E+01 -0.13791839861E+01 -0.94900016097E+02  0.94987457842E+02  0.00000000000E+00 0.  1.
        -15    1    1    2    0    0  0.52345526418E+01 -0.25466983785E+01 -0.30168255705E+02  0.30776088044E+02  0.17770000000E+01 0.  1.
         15    1    1    2    0    0  0.12679843484E+01 -0.23159738030E-01 -0.57032028293E+02  0.57073796973E+02  0.17770000000E+01 0.  1.
</event>
<event>
 6    1  0.8353910E-003  0.1831238E+03  0.7546771E-02  0.1067959E+00
        -11   -1    0    0    0    0  0.00000000000E+00  0.00000000000E+00  0.18250000000E+03  0.18250000000E+03  0.00000000000E+00 0. -1.
         11   -1    0    0    0    0 -0.00000000000E+00 -0.00000000000E+00 -0.18250000000E+03  0.18250000000E+03  0.00000000000E+00 0.  1.
        -11    1    1    2    0    0  0.22251862945E+01 -0.90414171645E+00  0.16876809992E+03  0.16878519033E+03  0.00000000000E+00 0. -1.
         11    1    1    2    0    0 -0.32760202495E+01  0.38726891242E-01 -0.18184672223E+03  0.18187623318E+03  0.00000000000E+00 0.  1.
        -15    1    1    2    0    0 -0.16365294683E+01  0.59884675438E-01  0.70940261205E+01  0.74943145432E+01  0.17770000000E+01 0.  1.
         15    1    1    2    0    0  0.26873634234E+01  0.80553014977E+00  0.59845961927E+01  0.68442619457E+01  0.17770000000E+01 0.  1.
</event>
<event>
 6    1  0.8353910E-003  0.1452876E+03  0.7546771E-02  0.1102664E+00
        -11   -1    0    0    0    0  0.00000000000E+00  0.00000000000E+00  0.18250000000E+03  0.18250000000E+03  0.00000000000E+00 0. -1.
         11   -1    0    0    0    0 -0.00000000000E+00 -0.00000000000E+00 -0.18250000000E+03  0.18250000000E+03  0.00000000000E+00 0.  1.
        -11    1    1    2    0    0  0.12562367792E+02 -0.92915821747E+01  0.16314009431E+03  0.16388665887E+03  0.00000000000E+00 0. -1.
         11    1    1    2    0    0  0.40230647851E+02 -0.10833189531E+01 -0.12756342256E+03  0.13376137478E+03  0.00000000000E+00 0.  1.
        -15    1    1    2    0    0 -0.48563845647E+02  0.13666321050E+02 -0.35484694465E+02  0.61705240501E+02  0.17770000000E+01 0. -1.
         15    1    1    2    0    0 -0.42291699965E+01 -0.32914199223E+01 -0.91977286208E-01  0.56467258465E+01  0.17770000000E+01 0.  1.
</event>
<event>
 6    1  0.8353910E-003  0.1832073E+03  0.7546771E-02  0.1067893E+00
        -11   -1    0    0    0    0  0.00000000000E+00  0.00000000000E+00  0.18250000000E+03  0.18250000000E+03  0.00000000000E+00 0.  1.
         11   -1    0    0    0    0 -0.00000000000E+00 -0.00000000000E+00 -0.18250000000E+03  0.18250000000E+03  0.00000000000E+00 0. -1.
        -11    1    1    2    0    0  0.25227281716E+00 -0.41991420948E+01  0.13437610140E+03  0.13444193194E+03  0.00000000000E+00 0.  1.
         11    1    1    2    0    0  0.50762946843E+01  0.18855647249E+01 -0.18171201302E+03  0.18179268356E+03  0.00000000000E+00 0. -1.
        -15    1    1    2    0    0 -0.39262184956E+01 -0.17807886515E+01  0.89169531800E+01  0.10062613125E+02  0.17770000000E+01 0.  1.
         15    1    1    2    0    0 -0.14023490059E+01  0.40943660213E+01  0.38418958432E+02  0.38702771372E+02  0.17770000000E+01 0. -1.
</event>
<event>
 6    1  0.8353910E-003  0.1837507E+03  0.7546771E-02  0.1067464E+00
        -11   -1    0    0    0    0  0.00000000000E+00  0.00000000000E+00  0.18250000000E+03  0.18250000000E+03  0.00000000000E+00 0. -1.
         11   -1    0    0    0    0 -0.00000000000E+00 -0.00000000000E+00 -0.18250000000E+03  0.18250000000E+03  0.00000000000E+00 0. -1.
        -11    1    1    2    0    0 -0.84840345000E+00  0.23063955055E+01  0.11843326858E+03  0.11845876226E+03  0.00000000000E+00 0. -1.
         11    1    1    2    0    0  0.14184043697E+01 -0.21101117521E+01 -0.18123149164E+03  0.18124932553E+03  0.00000000000E+00 0. -1.
        -15    1    1    2    0    0 -0.22870227683E+01  0.19304902795E+01  0.13126311913E+01  0.37199456322E+01  0.17770000000E+01 0. -1.
         15    1    1    2    0    0  0.17170218487E+01 -0.21267740329E+01  0.61485591868E+02  0.61571966577E+02  0.17770000000E+01 0. -1.
</event>
<event>
 6    1  0.8353910E-003  0.1843568E+03  0.7546771E-02  0.1066986E+00
        -11   -1    0    0    0    0  0.00000000000E+00  0.00000000000E+00  0.18250000000E+03  0.18250000000E+03  0.00000000000E+00 0. -1.
         11   -1    0    0    0    0 -0.00000000000E+00 -0.00000000000E+00 -0.18250000000E+03  0.18250000000E+03  0.00000000000E+00 0. -1.
        -11    1    1    2    0    0  0.13810052306E+01 -0.16232634090E+01  0.15767406653E+03  0.15768846950E+03  0.00000000000E+00 0. -1.
         11    1    1    2    0    0  0.80443819972E+00 -0.26019727488E+01 -0.18062263118E+03  0.18064316283E+03  0.00000000000E+00 0. -1.
        -15    1    1    2    0    0 -0.68836313465E+01  0.23315985990E+01  0.88877432793E+01  0.11617678001E+02  0.17770000000E+01 0. -1.
         15    1    1    2    0    0  0.46981879162E+01  0.18936375588E+01  0.14060821371E+02  0.15050689670E+02  0.17770000000E+01 0.  1.
</event>
<event>
 6    1  0.8353910E-003  0.1949154E+03  0.7546771E-02  0.1058980E+00
        -11   -1    0    0    0    0  0.00000000000E+00  0.00000000000E+00  0.18250000000E+03  0.18250000000E+03  0.00000000000E+00 0. -1.
         11   -1    0    0    0    0 -0.00000000000E+00 -0.00000000000E+00 -0.18250000000E+03  0.18250000000E+03  0.00000000000E+00 0. -1.
        -11    1    1    2    0    0 -0.73986741922E+01 -0.33689434171E+01  0.16989019923E+03  0.17008459646E+03  0.00000000000E+00 0. -1.
         11    1    1    2    0    0  0.82682256719E+00  0.98471582945E+00 -0.30497523106E+02  0.30524616565E+02  0.00000000000E+00 0. -1.
        -15    1    1    2    0    0  0.26556373055E+01 -0.10401542492E+02 -0.14799319635E+03  0.14839268308E+03  0.17770000000E+01 0. -1.
         15    1    1    2    0    0  0.39162143195E+01  0.12785770079E+02  0.86005202310E+01  0.15998103899E+02  0.17770000000E+01 0.  1.
</event>
<event>
 6    1  0.8353910E-003  0.1771627E+03  0.7546771E-02  0.1072785E+00
        -11   -1    0    0    0    0  0.00000000000E+00  0.00000000000E+00  0.18250000000E+03  0.18250000000E+03  0.00000000000E+00 0. -1.
         11   -1    0    0    0    0 -0.00000000000E+00 -0.00000000000E+00 -0.18250000000E+03  0.18250000000E+03  0.00000000000E+00 0. -1.
        -11    1    1    2    0    0  0.81347109528E+01  0.71955285327E+01  0.17768191926E+03  0.17801352080E+03  0.00000000000E+00 0. -1.
         11    1    1    2    0    0 -0.60857819431E+01 -0.25862546663E+01 -0.17622669015E+03  0.17635070676E+03  0.00000000000E+00 0. -1.
        -15    1    1    2    0    0 -0.53262690644E+01 -0.19026872989E+01 -0.78144203078E+00  0.59797777343E+01  0.17770000000E+01 0.  1.
         15    1    1    2    0    0  0.32773400548E+01 -0.27065865674E+01 -0.67378708759E+00  0.46559947080E+01  0.17770000000E+01 0. -1.
</event>
<event>
 6    1  0.8353910E-003  0.1842983E+03  0.7546771E-02  0.1067032E+00
        -11   -1    0    0    0    0  0.00000000000E+00  0.00000000000E+00  0.18250000000E+03  0.18250000000E+03  0.00000000000E+00 0. -1.
         11   -1    0    0    0    0 -0.00000000000E+00 -0.00000000000E+00 -0.18250000000E+03  0.18250000000E+03  0.00000000000E+00 0.  1.
        -11    1    1    2    0    0  0.19346533826E+01 -0.27577438017E+01  0.16716187742E+03  0.16719581722E+03  0.00000000000E+00 0. -1.
         11    1    1    2    0    0  0.25509161132E+01 -0.33247770434E-02 -0.18068371703E+03  0.18070172325E+03  0.00000000000E+00 0.  1.
        -15    1    1    2    0    0 -0.17041722808E+01  0.55328555569E+01  0.66825450631E+01  0.90183607877E+01  0.17770000000E+01 0.  1.
         15    1    1    2    0    0 -0.27813972149E+01 -0.27717869781E+01  0.68392945544E+01  0.80840987452E+01  0.17770000000E+01 0. -1.
</event>
<event>
 6    1  0.8353910E-003  0.1844299E+03  0.7546771E-02  0.1066929E+00
        -11   -1    0    0    0    0  0.00000000000E+00  0.00000000000E+00  0.18250000000E+03  0.18250000000E+03  0.00000000000E+00 0. -1.
         11   -1    0    0    0    0 -0.00000000000E+00 -0.00000000000E+00 -0.18250000000E+03  0.18250000000E+03  0.00000000000E+00 0. -1.
        -11    1    1    2    0    0 -0.13500941392E+01 -0.21921223412E+01  0.18055173005E+03  0.18057008440E+03  0.00000000000E+00 0. -1.
         11    1    1    2    0    0  0.69429983385E+00 -0.24761536296E+01 -0.15628179159E+03  0.15630294870E+03  0.00000000000E+00 0. -1.
        -15    1    1    2    0    0 -0.17939569185E+01  0.21534478920E+01 -0.23950285379E+02  0.24179113259E+02  0.17770000000E+01 0. -1.
         15    1    1    2    0    0  0.24497512239E+01  0.25148280789E+01 -0.31965308610E+00  0.39478536473E+01  0.17770000000E+01 0. -1.
</event>
<event>
 6    1  0.8353910E-003  0.1878918E+03  0.7546771E-02  0.1064242E+00
        -11   -1    0    0    0    0  0.00000000000E+00  0.00000000000E+00  0.18250000000E+03  0.18250000000E+03  0.00000000000E+00 0.  1.
         11   -1    0    0    0    0 -0.00000000000E+00 -0.00000000000E+00 -0.18250000000E+03  0.18250000000E+03  0.00000000000E+00 0.  1.
        -11    1    1    2    0    0 -0.12200536941E+02  0.33139663868E+01  0.17665633970E+03  0.17710815292E+03  0.00000000000E+00 0.  1.
         11    1    1    2    0    0 -0.10790004207E+01  0.13458975928E+02 -0.12810005020E+03  0.12880967020E+03  0.00000000000E+00 0.  1.
        -15    1    1    2    0    0 -0.26972629263E+01 -0.41283296214E+01  0.11202282910E+01  0.53601280937E+01  0.17770000000E+01 0. -1.
         15    1    1    2    0    0  0.15976800288E+02 -0.12644612693E+02 -0.49676517788E+02  0.53722048789E+02  0.17770000000E+01 0.  1.
</event>
<event>
 6    1  0.8353910E-003  0.1572862E+03  0.7546771E-02  0.1090509E+00
        -11   -1    0    0    0    0  0.00000000000E+00  0.00000000000E+00  0.18250000000E+03  0.18250000000E+03  0.00000000000E+00 0.  1.
         11   -1    0    0    0    0 -0.00000000000E+00 -0.00000000000E+00 -0.18250000000E+03  0.18250000000E+03  0.00000000000E+00 0.  1.
        -11    1    1    2    0    0 -0.93186316595E+00 -0.32809640588E+01  0.16154868765E+03  0.16158468855E+03  0.00000000000E+00 0.  1.
         11    1    1    2    0    0  0.12554899247E+02  0.17751096343E+02 -0.15212967821E+03  0.15367552150E+03  0.00000000000E+00 0.  1.
        -15    1    1    2    0    0 -0.74792488332E+01 -0.19893736548E+02 -0.24865670605E+02  0.32759108971E+02  0.17770000000E+01 0.  1.
         15    1    1    2    0    0 -0.41437872478E+01  0.54236042635E+01  0.15446661171E+02  0.16980680973E+02  0.17770000000E+01 0.  1.
</event>
<event>
 6    1  0.8353910E-003  0.1281737E+03  0.7546771E-02  0.1122436E+00
        -11   -1    0    0    0    0  0.00000000000E+00  0.00000000000E+00  0.18250000000E+03  0.18250000000E+03  0.00000000000E+00 0. -1.
         11   -1    0    0    0    0 -0.00000000000E+00 -0.00000000000E+00 -0.18250000000E+03  0.18250000000E+03  0.00000000000E+00 0. -1.
        -11    1    1    2    0    0  0.12267248271E+02 -0.31218924164E+02  0.10775181159E+03  0.11285193621E+03  0.00000000000E+00 0. -1.
         11    1    1    2    0    0  0.15037686318E+01 -0.68795837455E+01 -0.14991397597E+03  0.15007927967E+03  0.00000000000E+00 0. -1.
        -15    1    1    2    0    0 -0.16335851193E+02  0.33547355188E+02  0.66954177453E+02  0.76670102919E+02  0.17770000000E+01 0. -1.
         15    1    1    2    0    0  0.25648342899E+01  0.45511527220E+01 -0.24792013067E+02  0.25398681205E+02  0.17770000000E+01 0.  1.
</event>
<event>
 6    1  0.8353910E-003  0.1855545E+03  0.7546771E-02  0.1066049E+00
        -11   -1    0    0    0    0  0.00000000000E+00  0.00000000000E+00  0.18250000000E+03  0.18250000000E+03  0.00000000000E+00 0.  1.
         11   -1    0    0    0    0 -0.00000000000E+00 -0.00000000000E+00 -0.18250000000E+03  0.18250000000E+03  0.00000000000E+00 0.  1.
        -11    1    1    2    0    0  0.30399030355E+01  0.22344933457E+01  0.16465765120E+03  0.16470086845E+03  0.00000000000E+00 0.  1.
         11    1    1    2    0    0 -0.58253354472E+01 -0.78600898503E+00 -0.17934916380E+03  0.17944546497E+03  0.00000000000E+00 0.  1.
        -15    1    1    2    0    0  0.71930327451E+01 -0.32698578803E+01  0.40438443252E+01  0.90521873907E+01  0.17770000000E+01 0.  1.
         15    1    1    2    0    0 -0.44076003334E+01  0.18213735196E+01  0.10647668277E+02  0.11801479184E+02  0.17770000000E+01 0. -1.
</event>
<event>
 6    1  0.8353910E-003  0.2281510E+03  0.7546771E-02  0.1036996E+00
        -11   -1    0    0    0    0  0.00000000000E+00  0.00000000000E+00  0.18250000000E+03  0.18250000000E+03  0.00000000000E+00 0.  1.
         11   -1    0    0    0    0 -0.00000000000E+00 -0.00000000000E+00 -0.18250000000E+03  0.18250000000E+03  0.00000000000E+00 0.  1.
        -11    1    1    2    0    0  0.25670599608E+01  0.12177960497E+01  0.11641564262E+03  0.11645030988E+03  0.00000000000E+00 0.  1.
         11    1    1    2    0    0  0.27477723790E+01  0.30333634803E+00 -0.13682105070E+03  0.13684897581E+03  0.00000000000E+00 0.  1.
        -15    1    1    2    0    0 -0.17253328717E+02 -0.12491718843E+02 -0.42039155398E+02  0.47161093149E+02  0.17770000000E+01 0. -1.
         15    1    1    2    0    0  0.11938496377E+02  0.10970586445E+02  0.62444563477E+02  0.64539621160E+02  0.17770000000E+01 0.  1.
</event>
<event>
 6    1  0.8353910E-003  0.1756524E+03  0.7546771E-02  0.1074040E+00
        -11   -1    0    0    0    0  0.00000000000E+00  0.00000000000E+00  0.18250000000E+03  0.18250000000E+03  0.00000000000E+00 0.  1.
         11   -1    0    0    0    0 -0.00000000000E+00 -0.00000000000E+00 -0.18250000000E+03  0.18250000000E+03  0.00000000000E+00 0. -1.
        -11    1    1    2    0    0 -0.33519724287E+01  0.14915930295E+01  0.17426170784E+03  0.17430032527E+03  0.00000000000E+00 0.  1.
         11    1    1    2    0    0 -0.51790213516E+01 -0.11575421205E+01 -0.17703960878E+03  0.17711912727E+03  0.00000000000E+00 0. -1.
        -15    1    1    2    0    0 -0.17465183840E+01  0.10847812580E+01  0.10515324683E+01  0.29138507812E+01  0.17770000000E+01 0. -1.
         15    1    1    2    0    0  0.10277512164E+02 -0.14188321671E+01  0.17263684683E+01  0.10666696681E+02  0.17770000000E+01 0. -1.
</event>
<event>
 6    1  0.8353910E-003  0.2158210E+03  0.7546771E-02  0.1044647E+00
        -11   -1    0    0    0    0  0.00000000000E+00  0.00000000000E+00  0.18250000000E+03  0.18250000000E+03  0.00000000000E+00 0. -1.
         11   -1    0    0    0    0 -0.00000000000E+00 -0.00000000000E+00 -0.18250000000E+03  0.18250000000E+03  0.00000000000E+00 0.  1.
        -11    1    1    2    0    0 -0.29841333139E+01 -0.19767356502E+01  0.14913607092E+03  0.14917902059E+03  0.00000000000E+00 0. -1.
         11    1    1    2    0    0  0.16119482909E+01 -0.23826036689E+01 -0.11722724270E+03  0.11726253285E+03  0.00000000000E+00 0.  1.
        -15    1    1    2    0    0 -0.34250591808E+02 -0.12427522304E+02  0.13070524540E+02  0.38749744393E+02  0.17770000000E+01 0.  1.
         15    1    1    2    0    0  0.35622776831E+02  0.16786861623E+02 -0.44979352752E+02  0.59808702170E+02  0.17770000000E+01 0. -1.
</event>
<event>
 6    1  0.8353910E-003  0.1845974E+03  0.7546771E-02  0.1066797E+00
        -11   -1    0    0    0    0  0.00000000000E+00  0.00000000000E+00  0.18250000000E+03  0.18250000000E+03  0.00000000000E+00 0. -1.
         11   -1    0    0    0    0 -0.00000000000E+00 -0.00000000000E+00 -0.18250000000E+03  0.18250000000E+03  0.00000000000E+00 0. -1.
        -11    1    1    2    0    0  0.46873310594E+01 -0.18704360785E+02  0.17936911145E+03  0.18040261175E+03  0.00000000000E+00 0. -1.
         11    1    1    2    0    0  0.15193590367E+01 -0.13325177192E+01 -0.60884842713E+02  0.60918372660E+02  0.00000000000E+00 0. -1.
        -15    1    1    2    0    0  0.52475504747E+01  0.16504042520E+02 -0.10047786087E+03  0.10197489132E+03  0.17770000000E+01 0. -1.
         15    1    1    2    0    0 -0.11454240571E+02  0.35328359839E+01 -0.18006407860E+02  0.21704124266E+02  0.17770000000E+01 0.  1.
</event>
<event>
 6    1  0.8353910E-003  0.1827325E+03  0.7546771E-02  0.1068270E+00
        -11   -1    0    0    0    0  0.00000000000E+00  0.00000000000E+00  0.18250000000E+03  0.18250000000E+03  0.00000000000E+00 0. -1.
         11   -1    0    0    0    0 -0.00000000000E+00 -0.00000000000E+00 -0.18250000000E+03  0.18250000000E+03  0.00000000000E+00 0. -1.
        -11    1    1    2    0    0  0.14276602149E+01  0.78827564080E+00  0.54278068812E+02  0.54302562980E+02  0.00000000000E+00 0. -1.
         11    1    1    2    0    0  0.34512275593E+01  0.53511368200E+01 -0.18215621410E+03  0.18226747371E+03  0.00000000000E+00 0. -1.
        -15    1    1    2    0    0 -0.41693497720E+01 -0.63188016899E+01  0.57252161105E+02  0.57777836689E+02  0.17770000000E+01 0. -1.
         15    1    1    2    0    0 -0.70953800215E+00  0.17938922911E+00  0.70625984186E+02  0.70652126620E+02  0.17770000000E+01 0.  1.
</event>
<event>
 6    1  0.8353910E-003  0.1911772E+03  0.7546771E-02  0.1061750E+00
        -11   -1    0    0    0    0  0.00000000000E+00  0.00000000000E+00  0.18250000000E+03  0.18250000000E+03  0.00000000000E+00 0.  1.
         11   -1    0    0    0    0 -0.00000000000E+00 -0.00000000000E+00 -0.18250000000E+03  0.18250000000E+03  0.00000000000E+00 0.  1.
        -11    1    1    2    0    0 -0.40805730873E+01 -0.20992522790E+01  0.16415721674E+03  0.16422134376E+03  0.00000000000E+00 0.  1.
         11    1    1    2    0    0  0.31289306029E+01  0.14461904723E+01 -0.17378862200E+03  0.17382280290E+03  0.00000000000E+00 0.  1.
        -15    1    1    2    0    0  0.59256226780E+01  0.26163684362E+01  0.16650770169E+02  0.17954505399E+02  0.17770000000E+01 0.  1.
         15    1    1    2    0    0 -0.49739801936E+01 -0.19633066295E+01 -0.70193649166E+01  0.90013479391E+01  0.17770000000E+01 0.  1.
</event>
<event>
 6    1  0.8353910E-003  0.1853188E+03  0.7546771E-02  0.1066233E+00
        -11   -1    0    0    0    0  0.00000000000E+00  0.00000000000E+00  0.18250000000E+03  0.18250000000E+03  0.00000000000E+00 0.  1.
         11   -1    0    0    0    0 -0.00000000000E+00 -0.00000000000E+00 -0.18250000000E+03  0.18250000000E+03  0.00000000000E+00 0. -1.
        -11    1    1    2    0    0 -0.37514692412E+01  0.89207969673E+00  0.17963986125E+03  0.17968124297E+03  0.00000000000E+00 0.  1.
         11    1    1    2    0    0  0.33887425063E+01 -0.14665028181E+00 -0.17575184017E+03  0.17578456816E+03  0.00000000000E+00 0. -1.
        -15    1    1    2    0    0  0.17076073525E+01 -0.22758734792E+01  0.13686726654E+01  0.36230535227E+01  0.17770000000E+01 0.  1.
         15    1    1    2    0    0 -0.13448806175E+01  0.15304440643E+01 -0.52566937451E+01  0.59111353427E+01  0.17770000000E+01 0. -1.
</event>
<event>
 6    1  0.8353910E-003  0.1957077E+03  0.7546771E-02  0.1058402E+00
        -11   -1    0    0    0    0  0.00000000000E+00  0.00000000000E+00  0.18250000000E+03  0.18250000000E+03  0.00000000000E+00 0.  1.
         11   -1    0    0    0    0 -0.00000000000E+00 -0.00000000000E+00 -0.18250000000E+03  0.18250000000E+03  0.00000000000E+00 0.  1.
        -11    1    1    2    0    0 -0.44896803198E+01 -0.26489662934E+01  0.16921204424E+03  0.16929232165E+03  0.00000000000E+00 0.  1.
         11    1    1    2    0    0  0.26656279049E+01  0.16695871245E+01 -0.16086133838E+03  0.16089208582E+03  0.00000000000E+00 0.  1.
        -15    1    1    2    0    0 -0.14580795333E+02 -0.51410783879E+01 -0.56944027529E+00  0.15572805487E+02  0.17770000000E+01 0.  1.
         15    1    1    2    0    0  0.16404847747E+02  0.61204575567E+01 -0.77812655876E+01  0.19242787050E+02  0.17770000000E+01 0. -1.
</event>
<event>
 6    1  0.8353910E-003  0.1891413E+03  0.7546771E-02  0.1063288E+00
        -11   -1    0    0    0    0  0.00000000000E+00  0.00000000000E+00  0.18250000000E+03  0.18250000000E+03  0.00000000000E+00 0. -1.
         11   -1    0    0    0    0 -0.00000000000E+00 -0.00000000000E+00 -0.18250000000E+03  0.18250000000E+03  0.00000000000E+00 0. -1.
        -11    1    1    2    0    0 -0.15287593233E+01  0.60853169799E+01  0.17574668916E+03  0.17585865613E+03  0.00000000000E+00 0. -1.
         11    1    1    2    0    0 -0.30072891716E+01  0.26366882955E+01 -0.16977539818E+03  0.16982250069E+03  0.00000000000E+00 0. -1.
        -15    1    1    2    0    0  0.29032647370E+01 -0.12984227719E+02 -0.50095426125E+01  0.14327329192E+02  0.17770000000E+01 0. -1.
         15    1    1    2    0    0  0.16327837579E+01  0.42622224438E+01 -0.96174836463E+00  0.49915139865E+01  0.17770000000E+01 0.  1.
</event>
<event>
 6    1  0.8353910E-003  0.1855711E+03  0.7546771E-02  0.1066036E+00
        -11   -1    0    0    0    0  0.00000000000E+00  0.00000000000E+00  0.18250000000E+03  0.18250000000E+03  0.00000000000E+00 0. -1.
         11   -1    0    0    0    0 -0.00000000000E+00 -0.00000000000E+00 -0.18250000000E+03  0.18250000000E+03  0.00000000000E+00 0. -1.
        -11    1    1    2    0    0  0.64956763666E+01  0.31308828552E+01  0.80906717151E+02  0.81227416056E+02  0.00000000000E+00 0. -1.
         11    1    1    2    0    0  0.25674072932E+01 -0.24501966924E+01 -0.17939376907E+03  0.17942887010E+03  0.00000000000E+00 0. -1.
        -15    1    1    2    0    0 -0.11672977194E+02  0.49383485907E+01  0.11771123457E+02  0.17388581306E+02  0.17770000000E+01 0. -1.
         15    1    1    2    0    0  0.26098935346E+01 -0.56190347535E+01  0.86715928465E+02  0.86955132536E+02  0.17770000000E+01 0.  1.
</event>
<event>
 6    1  0.8353910E-003  0.1879963E+03  0.7546771E-02  0.1064162E+00
        -11   -1    0    0    0    0  0.00000000000E+00  0.00000000000E+00  0.18250000000E+03  0.18250000000E+03  0.00000000000E+00 0.  1.
         11   -1    0    0    0    0 -0.00000000000E+00 -0.00000000000E+00 -0.18250000000E+03  0.18250000000E+03  0.00000000000E+00 0. -1.
        -11    1    1    2    0    0  0.39192813374E+00 -0.23789401385E+01  0.16811362230E+03  0.16813091021E+03  0.00000000000E+00 0.  1.
         11    1    1    2    0    0  0.82693074650E+01  0.18493247075E+01 -0.17680079325E+03  0.17700373426E+03  0.00000000000E+00 0. -1.
        -15    1    1    2    0    0 -0.23365582384E+01  0.77784902794E+00 -0.43261712377E+01  0.52856447185E+01  0.17770000000E+01 0.  1.
         15    1    1    2    0    0 -0.63246773603E+01 -0.24823359699E+00  0.13013342185E+02  0.14579710816E+02  0.17770000000E+01 0. -1.
</event>
<event>
 6    1  0.8353910E-003  0.1827799E+03  0.7546771E-02  0.1068232E+00
        -11   -1    0    0    0    0  0.00000000000E+00  0.00000000000E+00  0.18250000000E+03  0.18250000000E+03  0.00000000000E+00 0. -1.
         11   -1    0    0    0    0 -0.00000000000E+00 -0.00000000000E+00 -0.18250000000E+03  0.18250000000E+03  0.00000000000E+00 0. -1.
        -11    1    1    2    0    0  0.26711508330E+01  0.90798221868E+00  0.13113434239E+03  0.13116468745E+03  0.00000000000E+00 0. -1.
         11    1    1    2    0    0 -0.86402810019E+00  0.33551094980E+01 -0.18218712263E+03  0.18222006190E+03  0.00000000000E+00 0. -1.
        -15    1    1    2    0    0  0.14975238256E+01 -0.10277235818E+01  0.13498763055E+02  0.13735833662E+02  0.17770000000E+01 0.  1.
         15    1    1    2    0    0 -0.33046465584E+01 -0.32353681349E+01  0.37554017187E+02  0.37879416993E+02  0.17770000000E+01 0. -1.
</event>
<event>
 6    1  0.1021268E-002  0.1974056E+03  0.7546771E-02  0.1057173E+00
        -11   -1    0    0    0    0  0.00000000000E+00  0.00000000000E+00  0.18250000000E+03  0.18250000000E+03  0.00000000000E+00 0.  1.
         11   -1    0    0    0    0 -0.00000000000E+00 -0.00000000000E+00 -0.18250000000E+03  0.18250000000E+03  0.00000000000E+00 0.  1.
        -11    1    1    2    0    0  0.14306292793E+02 -0.58015850694E+01  0.48723182820E+02  0.51110438728E+02  0.00000000000E+00 0.  1.
         11    1    1    2    0    0 -0.35535232479E+01 -0.18447511484E+01 -0.16754652998E+03  0.16759436250E+03  0.00000000000E+00 0.  1.
        -15    1    1    2    0    0 -0.14303815618E+02  0.80803315987E+01  0.13174139773E+03  0.13277365893E+03  0.17770000000E+01 0.  1.
         15    1    1    2    0    0  0.35510460726E+01 -0.43399538087E+00 -0.12918050569E+02  0.13521539842E+02  0.17770000000E+01 0. -1.
</event>
<event>
 6    1  0.8353910E-003  0.1830598E+03  0.7546771E-02  0.1068010E+00
        -11   -1    0    0    0    0  0.00000000000E+00  0.00000000000E+00  0.18250000000E+03  0.18250000000E+03  0.00000000000E+00 0.  1.
         11   -1    0    0    0    0 -0.00000000000E+00 -0.00000000000E+00 -0.18250000000E+03  0.18250000000E+03  0.00000000000E+00 0.  1.
        -11    1    1    2    0    0 -0.53992761829E+01  0.36352900328E+01  0.18182368893E+03  0.18194015877E+03  0.00000000000E+00 0.  1.
         11    1    1    2    0    0 -0.86958097317E+00 -0.19549911005E+01 -0.14958845779E+03  0.14960375953E+03  0.00000000000E+00 0.  1.
        -15    1    1    2    0    0  0.71170954107E+00 -0.17112642568E+01 -0.15991513109E+02  0.16196332188E+02  0.17770000000E+01 0.  1.
         15    1    1    2    0    0  0.55571476150E+01  0.30965324443E-01 -0.16243718033E+02  0.17259749506E+02  0.17770000000E+01 0. -1.
</event>
<event>
 6    1  0.8353910E-003  0.1858948E+03  0.7546771E-02  0.1065784E+00
        -11   -1    0    0    0    0  0.00000000000E+00  0.00000000000E+00  0.18250000000E+03  0.18250000000E+03  0.00000000000E+00 0. -1.
         11   -1    0    0    0    0 -0.00000000000E+00 -0.00000000000E+00 -0.18250000000E+03  0.18250000000E+03  0.00000000000E+00 0. -1.
        -11    1    1    2    0    0  0.13468838612E+02  0.46628657249E+01  0.92026295809E+02  0.93123525764E+02  0.00000000000E+00 0. -1.
         11    1    1    2    0    0 -0.18087549340E+02 -0.52780714659E+01 -0.17811134449E+03  0.17910518841E+03  0.00000000000E+00 0. -1.
        -15    1    1    2    0    0  0.84907773231E+01  0.84821690480E+01  0.88439146836E+01  0.15013761928E+02  0.17770000000E+01 0.  1.
         15    1    1    2    0    0 -0.38720665947E+01 -0.78669633070E+01  0.77241134001E+02  0.77757523894E+02  0.17770000000E+01 0. -1.
</event>
<event>
 6    1  0.8353910E-003  0.1847888E+03  0.7546771E-02  0.1066647E+00
        -11   -1    0    0    0    0  0.00000000000E+00  0.00000000000E+00  0.18250000000E+03  0.18250000000E+03  0.00000000000E+00 0.  1.
         11   -1    0    0    0    0 -0.00000000000E+00 -0.00000000000E+00 -0.18250000000E+03  0.18250000000E+03  0.00000000000E+00 0.  1.
        -11    1    1    2    0    0  0.43053081361E+01 -0.41357371185E+01  0.18011232777E+03  0.18021123887E+03  0.00000000000E+00 0.  1.
         11    1    1    2    0    0 -0.13569679724E+01 -0.21919352717E+01 -0.15890407087E+03  0.15892498130E+03  0.00000000000E+00 0.  1.
        -15    1    1    2    0    0  0.41000939164E+01 -0.73692922286E+00 -0.82562445082E+01  0.94168538898E+01  0.17770000000E+01 0.  1.
         15    1    1    2    0    0 -0.70484340801E+01  0.70646016130E+01 -0.12952012391E+02  0.16446925941E+02  0.17770000000E+01 0. -1.
</event>
<event>
 6    1  0.8353910E-003  0.1877212E+03  0.7546771E-02  0.1064373E+00
        -11   -1    0    0    0    0  0.00000000000E+00  0.00000000000E+00  0.18250000000E+03  0.18250000000E+03  0.00000000000E+00 0.  1.
         11   -1    0    0    0    0 -0.00000000000E+00 -0.00000000000E+00 -0.18250000000E+03  0.18250000000E+03  0.00000000000E+00 0. -1.
        -11    1    1    2    0    0  0.23003553689E+01 -0.23196245026E+00  0.17031993884E+03  0.17033563047E+03  0.00000000000E+00 0.  1.
         11    1    1    2    0    0 -0.24877354486E+01  0.31013084788E+01 -0.17723424654E+03  0.17727883429E+03  0.00000000000E+00 0. -1.
        -15    1    1    2    0    0 -0.19459513913E+01 -0.68730167983E+01 -0.16396725437E+01  0.75413090228E+01  0.17770000000E+01 0. -1.
         15    1    1    2    0    0  0.21333314711E+01  0.40036707697E+01  0.85539802399E+01  0.98442262135E+01  0.17770000000E+01 0.  1.
</event>
<event>
 6    1  0.8353910E-003  0.1890198E+03  0.7546771E-02  0.1063380E+00
        -11   -1    0    0    0    0  0.00000000000E+00  0.00000000000E+00  0.18250000000E+03  0.18250000000E+03  0.00000000000E+00 0.  1.
         11   -1    0    0    0    0 -0.00000000000E+00 -0.00000000000E+00 -0.18250000000E+03  0.18250000000E+03  0.00000000000E+00 0.  1.
        -11    1    1    2    0    0  0.15790666409E+01  0.33449152752E+01  0.17594128964E+03  0.17598016738E+03  0.00000000000E+00 0.  1.
         11    1    1    2    0    0  0.34812075408E+01 -0.89241433064E+00 -0.14550860129E+03  0.14555297406E+03  0.00000000000E+00 0.  1.
        -15    1    1    2    0    0 -0.15681563936E+02  0.62200469980E+01 -0.19455991675E+02  0.25812666913E+02  0.17770000000E+01 0. -1.
         15    1    1    2    0    0  0.10621289754E+02 -0.86725479426E+01 -0.10976696679E+02  0.17654191651E+02  0.17770000000E+01 0.  1.
</event>
<event>
 6    1  0.8353910E-003  0.1842505E+03  0.7546771E-02  0.1067070E+00
        -11   -1    0    0    0    0  0.00000000000E+00  0.00000000000E+00  0.18250000000E+03  0.18250000000E+03  0.00000000000E+00 0.  1.
         11   -1    0    0    0    0 -0.00000000000E+00 -0.00000000000E+00 -0.18250000000E+03  0.18250000000E+03  0.00000000000E+00 0.  1.
        -11    1    1    2    0    0  0.52123971954E+01 -0.29194924463E+01  0.18065072426E+03  0.18074948602E+03  0.00000000000E+00 0.  1.
         11    1    1    2    0    0 -0.19808074863E+01 -0.42384934067E+01 -0.15125491739E+03  0.15132725617E+03  0.00000000000E+00 0.  1.
        -15    1    1    2    0    0 -0.25831798939E+01  0.51301177568E+01 -0.29540679749E+02  0.30146316783E+02  0.17770000000E+01 0.  1.
         15    1    1    2    0    0 -0.64840981520E+00  0.20278680962E+01  0.14487288121E+00  0.27769410249E+01  0.17770000000E+01 0. -1.
</event>
<event>
 6    1  0.8353910E-003  0.1946515E+03  0.7546771E-02  0.1059174E+00
        -11   -1    0    0    0    0  0.00000000000E+00  0.00000000000E+00  0.18250000000E+03  0.18250000000E+03  0.00000000000E+00 0.  1.
         11   -1    0    0    0    0 -0.00000000000E+00 -0.00000000000E+00 -0.18250000000E+03  0.18250000000E+03  0.00000000000E+00 0. -1.
        -11    1    1    2    0    0  0.74823470722E+01 -0.11504182215E+01  0.17018024151E+03  0.17034853560E+03  0.00000000000E+00 0.  1.
         11    1    1    2    0    0  0.91355507529E+01  0.12131574183E+02 -0.15014142059E+03  0.15090751988E+03  0.00000000000E+00 0. -1.
        -15    1    1    2    0    0 -0.25283782794E+02 -0.93962050261E+00 -0.11342672339E+02  0.27784285196E+02  0.17770000000E+01 0.  1.
         15    1    1    2    0    0  0.86658849687E+01 -0.10041535459E+02 -0.86961485856E+01  0.15959659329E+02  0.17770000000E+01 0. -1.
</event>
<event>
 6    1  0.8353910E-003  0.1835307E+03  0.7546771E-02  0.1067637E+00
        -11   -1    0    0    0    0  0.00000000000E+00  0.00000000000E+00  0.18250000000E+03  0.18250000000E+03  0.00000000000E+00 0.  1.
         11   -1    0    0    0    0 -0.00000000000E+00 -0.00000000000E+00 -0.18250000000E+03  0.18250000000E+03  0.00000000000E+00 0.  1.
        -11    1    1    2    0    0  0.10419553265E+01  0.39485438907E+01  0.18142331840E+03  0.18146927324E+03  0.00000000000E+00 0.  1.
         11    1    1    2    0    0 -0.31235373372E+01  0.23287306235E+00 -0.12172671577E+03  0.12176700722E+03  0.00000000000E+00 0.  1.
        -15    1    1    2    0    0 -0.16276414628E+01  0.92518434875E+00 -0.11074459030E+01  0.28087983620E+01  0.17770000000E+01 0.  1.
         15    1    1    2    0    0  0.37092234735E+01 -0.51066013018E+01 -0.58589156727E+02  0.58954921174E+02  0.17770000000E+01 0. -1.
</event>
<event>
 6    1  0.8353910E-003  0.1847820E+03  0.7546771E-02  0.1066653E+00
        -11   -1    0    0    0    0  0.00000000000E+00  0.00000000000E+00  0.18250000000E+03  0.18250000000E+03  0.00000000000E+00 0. -1.
         11   -1    0    0    0    0 -0.00000000000E+00 -0.00000000000E+00 -0.18250000000E+03  0.18250000000E+03  0.00000000000E+00 0.  1.
        -11    1    1    2    0    0  0.41982256661E+01 -0.92174531665E+00  0.18016677439E+03  0.18021803824E+03  0.00000000000E+00 0. -1.
         11    1    1    2    0    0 -0.61303770672E+00  0.16394988958E+01 -0.10641049986E+03  0.10642489489E+03  0.00000000000E+00 0.  1.
        -15    1    1    2    0    0  0.43666560197E+01  0.39834120677E+01 -0.65649316366E+02  0.65938802877E+02  0.17770000000E+01 0. -1.
         15    1    1    2    0    0 -0.79518439791E+01 -0.47011656469E+01 -0.81069581571E+01  0.12418263996E+02  0.17770000000E+01 0. -1.
</event>
<event>
 6    1  0.8353910E-003  0.1835092E+03  0.7546771E-02  0.1067654E+00
        -11   -1    0    0    0    0  0.00000000000E+00  0.00000000000E+00  0.18250000000E+03  0.18250000000E+03  0.00000000000E+00 0.  1.
         11   -1    0    0    0    0 -0.00000000000E+00 -0.00000000000E+00 -0.18250000000E+03  0.18250000000E+03  0.00000000000E+00 0. -1.
        -11    1    1    2    0    0  0.27512053196E+01  0.35051995287E+01  0.13243683422E+03  0.13251177537E+03  0.00000000000E+00 0.  1.
         11    1    1    2    0    0 -0.35467470745E+01 -0.30016291272E+01 -0.18143128640E+03  0.18149077353E+03  0.00000000000E+00 0. -1.
        -15    1    1    2    0    0 -0.47047563149E+01  0.14973667387E+01  0.81205437707E+01  0.96683917620E+01  0.17770000000E+01 0. -1.
         15    1    1    2    0    0  0.55002980698E+01 -0.20009371402E+01  0.40873908406E+02  0.41329059337E+02  0.17770000000E+01 0.  1.
</event>
<event>
 6    1  0.8353910E-003  0.1829674E+03  0.7546771E-02  0.1068083E+00
        -11   -1    0    0    0    0  0.00000000000E+00  0.00000000000E+00  0.18250000000E+03  0.18250000000E+03  0.00000000000E+00 0.  1.
         11   -1    0    0    0    0 -0.00000000000E+00 -0.00000000000E+00 -0.18250000000E+03  0.18250000000E+03  0.00000000000E+00 0.  1.
        -11    1    1    2    0    0 -0.20486783674E+01  0.56523631759E+01  0.14706438406E+03  0.14718722550E+03  0.00000000000E+00 0.  1.
         11    1    1    2    0    0  0.20086916968E+01 -0.21197960952E+01 -0.18200912828E+03  0.18203255520E+03  0.00000000000E+00 0.  1.
        -15    1    1    2    0    0 -0.15431793947E+01  0.82156198297E+00  0.16160026946E+02  0.16351164076E+02  0.17770000000E+01 0.  1.
         15    1    1    2    0    0  0.15831660653E+01 -0.43541290637E+01  0.18784717276E+02  0.19429055222E+02  0.17770000000E+01 0. -1.
</event>
<event>
 6    1  0.8353910E-003  0.1828851E+03  0.7546771E-02  0.1068149E+00
        -11   -1    0    0    0    0  0.00000000000E+00  0.00000000000E+00  0.18250000000E+03  0.18250000000E+03  0.00000000000E+00 0.  1.
         11   -1    0    0    0    0 -0.00000000000E+00 -0.00000000000E+00 -0.18250000000E+03  0.18250000000E+03  0.00000000000E+00 0.  1.
        -11    1    1    2    0    0  0.45975330942E+00  0.78000255798E+01  0.18194722222E+03  0.18211491824E+03  0.00000000000E+00 0.  1.
         11    1    1    2    0    0 -0.21542801697E+01 -0.19560377084E+00 -0.92267457631E+02  0.92292810780E+02  0.00000000000E+00 0.  1.
        -15    1    1    2    0    0 -0.36981035290E+00 -0.13354247382E+01 -0.36374309825E+01  0.42788727582E+01  0.17770000000E+01 0.  1.
         15    1    1    2    0    0  0.20643372132E+01 -0.62689970707E+01 -0.86042333602E+02  0.86313398225E+02  0.17770000000E+01 0.  1.
</event>
<event>
 6    1  0.8353910E-003  0.1982606E+03  0.7546771E-02  0.1056559E+00
        -11   -1    0    0    0    0  0.00000000000E+00  0.00000000000E+00  0.18250000000E+03  0.18250000000E+03  0.00000000000E+00 0.  1.
         11   -1    0    0    0    0 -0.00000000000E+00 -0.00000000000E+00 -0.18250000000E+03  0.18250000000E+03  0.00000000000E+00 0. -1.
        -11    1    1    2    0    0 -0.45512186001E+01  0.53708385117E+01  0.14569156110E+03  0.14586154555E+03  0.00000000000E+00 0.  1.
         11    1    1    2    0    0 -0.10297970608E+02  0.17110981138E+01 -0.16641228598E+03  0.16673939241E+03  0.00000000000E+00 0. -1.
        -15    1    1    2    0    0  0.15763441034E+02 -0.82293046557E+01 -0.10742836197E+02  0.20851229865E+02  0.17770000000E+01 0.  1.
         15    1    1    2    0    0 -0.91425182639E+00  0.11473680301E+01  0.31463561082E+02  0.31547832172E+02  0.17770000000E+01 0. -1.
</event>
<event>
 6    1  0.8353910E-003  0.1840088E+03  0.7546771E-02  0.1067260E+00
        -11   -1    0    0    0    0  0.00000000000E+00  0.00000000000E+00  0.18250000000E+03  0.18250000000E+03  0.00000000000E+00 0. -1.
         11   -1    0    0    0    0 -0.00000000000E+00 -0.00000000000E+00 -0.18250000000E+03  0.18250000000E+03  0.00000000000E+00 0. -1.
        -11    1    1    2    0    0  0.91998400487E+00  0.22733382250E+01  0.18097461592E+03  0.18099123195E+03  0.00000000000E+00 0. -1.
         11    1    1    2    0    0  0.41046957892E+01  0.57235688138E+01 -0.14735108463E+03  0.14751932046E+03  0.00000000000E+00 0. -1.
        -15    1    1    2    0    0 -0.75122154134E+01 -0.30218814676E+01 -0.18260507152E+02  0.20054151652E+02  0.17770000000E+01 0. -1.
         15    1    1    2    0    0  0.24875356192E+01 -0.49750255712E+01 -0.15363024134E+02  0.16435295934E+02  0.17770000000E+01 0.  1.
</event>
<event>
 6    1  0.8456682E-003  0.1866549E+03  0.7546771E-02  0.1065195E+00
        -11   -1    0    0    0    0  0.00000000000E+00  0.00000000000E+00  0.18250000000E+03  0.18250000000E+03  0.00000000000E+00 0. -1.
         11   -1    0    0    0    0 -0.00000000000E+00 -0.00000000000E+00 -0.18250000000E+03  0.18250000000E+03  0.00000000000E+00 0.  1.
        -11    1    1    2    0    0 -0.49720731711E+01  0.10708509868E+01  0.11415240648E+03  0.11426565599E+03  0.00000000000E+00 0. -1.
         11    1    1    2    0    0  0.10749687829E+02  0.23795173873E+01 -0.17800493883E+03  0.17834510405E+03  0.00000000000E+00 0.  1.
        -15    1    1    2    0    0  0.76574975359E+00 -0.85842656662E+00  0.65004977197E+02  0.65039434640E+02  0.17770000000E+01 0. -1.
         15    1    1    2    0    0 -0.65433644112E+01 -0.25919418076E+01 -0.11524448512E+01  0.73498053230E+01  0.17770000000E+01 0.  1.
</event>
<event>
 6    1  0.8353910E-003  0.1827574E+03  0.7546771E-02  0.1068250E+00
        -11   -1    0    0    0    0  0.00000000000E+00  0.00000000000E+00  0.18250000000E+03  0.18250000000E+03  0.00000000000E+00 0. -1.
         11   -1    0    0    0    0 -0.00000000000E+00 -0.00000000000E+00 -0.18250000000E+03  0.18250000000E+03  0.00000000000E+00 0. -1.
        -11    1    1    2    0    0 -0.49910843479E+01 -0.18806136434E+01  0.46590075747E+01  0.70819476293E+01  0.00000000000E+00 0. -1.
         11    1    1    2    0    0  0.42536281924E+02 -0.74222092968E+01 -0.17253535519E+03  0.17785632758E+03  0.00000000000E+00 0. -1.
        -15    1    1    2    0    0 -0.88637066176E+01  0.26615717220E+02  0.48459648619E+02  0.56021932950E+02  0.17770000000E+01 0.  1.
         15    1    1    2    0    0 -0.28681490959E+02 -0.17312894280E+02  0.11941669899E+03  0.12403979184E+03  0.17770000000E+01 0. -1.
</event>
<event>
 6    1  0.8353910E-003  0.1745497E+03  0.7546771E-02  0.1074965E+00
        -11   -1    0    0    0    0  0.00000000000E+00  0.00000000000E+00  0.18250000000E+03  0.18250000000E+03  0.00000000000E+00 0.  1.
         11   -1    0    0    0    0 -0.00000000000E+00 -0.00000000000E+00 -0.18250000000E+03  0.18250000000E+03  0.00000000000E+00 0. -1.
        -11    1    1    2    0    0  0.30346054201E+01  0.27430269316E+01  0.17635544161E+03  0.17640287643E+03  0.00000000000E+00 0.  1.
         11    1    1    2    0    0  0.38165064399E+01  0.20351332837E+01 -0.17276087215E+03  0.17281500640E+03  0.00000000000E+00 0. -1.
        -15    1    1    2    0    0 -0.33771205113E+01  0.32598316037E+00 -0.73874420619E+01  0.83212521406E+01  0.17770000000E+01 0. -1.
         15    1    1    2    0    0 -0.34739913487E+01 -0.51041433757E+01  0.37928726074E+01  0.74608650374E+01  0.17770000000E+01 0.  1.
</event>
<event>
 6    1  0.8353910E-003  0.1848507E+03  0.7546771E-02  0.1066599E+00
        -11   -1    0    0    0    0  0.00000000000E+00  0.00000000000E+00  0.18250000000E+03  0.18250000000E+03  0.00000000000E+00 0.  1.
         11   -1    0    0    0    0 -0.00000000000E+00 -0.00000000000E+00 -0.18250000000E+03  0.18250000000E+03  0.00000000000E+00 0.  1.
        -11    1    1    2    0    0 -0.61911061338E+01  0.48689210806E+01  0.16739473086E+03  0.16757992752E+03  0.00000000000E+00 0.  1.
         11    1    1    2    0    0  0.37913293836E+01 -0.68000349282E+00 -0.18010812620E+03  0.18014930948E+03  0.00000000000E+00 0.  1.
        -15    1    1    2    0    0  0.50477171901E+01 -0.14270463936E+01  0.11681195504E+02  0.12927643545E+02  0.17770000000E+01 0.  1.
         15    1    1    2    0    0 -0.26479404399E+01 -0.27618711942E+01  0.10321998404E+01  0.43431194523E+01  0.17770000000E+01 0. -1.
</event>
<event>
 6    1  0.8353910E-003  0.1833067E+03  0.7546771E-02  0.1067814E+00
        -11   -1    0    0    0    0  0.00000000000E+00  0.00000000000E+00  0.18250000000E+03  0.18250000000E+03  0.00000000000E+00 0.  1.
         11   -1    0    0    0    0 -0.00000000000E+00 -0.00000000000E+00 -0.18250000000E+03  0.18250000000E+03  0.00000000000E+00 0.  1.
        -11    1    1    2    0    0 -0.21079026625E+01  0.61517401828E+01  0.18157689642E+03  0.18169330332E+03  0.00000000000E+00 0.  1.
         11    1    1    2    0    0  0.17864988488E+01 -0.69899843734E+01 -0.11369305443E+03  0.11392173667E+03  0.00000000000E+00 0.  1.
        -15    1    1    2    0    0  0.46510131615E+00  0.57871905958E+01 -0.56718265775E+02  0.57042328983E+02  0.17770000000E+01 0.  1.
         15    1    1    2    0    0 -0.14369750247E+00 -0.49489464052E+01 -0.11165576208E+02  0.12342631022E+02  0.17770000000E+01 0. -1.
</event>
<event>
 6    1  0.8353910E-003  0.1826199E+03  0.7546771E-02  0.1068359E+00
        -11   -1    0    0    0    0  0.00000000000E+00  0.00000000000E+00  0.18250000000E+03  0.18250000000E+03  0.00000000000E+00 0. -1.
         11   -1    0    0    0    0 -0.00000000000E+00 -0.00000000000E+00 -0.18250000000E+03  0.18250000000E+03  0.00000000000E+00 0.  1.
        -11    1    1    2    0    0 -0.17252965988E-01  0.14430002693E+01  0.53880497750E+02  0.53899819900E+02  0.00000000000E+00 0. -1.
         11    1    1    2    0    0  0.13827342058E+01 -0.28640011183E+01 -0.18235238889E+03  0.18238012005E+03  0.00000000000E+00 0.  1.
        -15    1    1    2    0    0  0.25136261132E+01  0.71833342771E+00  0.33216818999E+02  0.33366886468E+02  0.17770000000E+01 0.  1.
         15    1    1    2    0    0 -0.38791073531E+01  0.70266742130E+00  0.95255072137E+02  0.95353173582E+02  0.17770000000E+01 0. -1.
</event>
<event>
 6    1  0.8353910E-003  0.1937481E+03  0.7546771E-02  0.1059838E+00
        -11   -1    0    0    0    0  0.00000000000E+00  0.00000000000E+00  0.18250000000E+03  0.18250000000E+03  0.00000000000E+00 0.  1.
         11   -1    0    0    0    0 -0.00000000000E+00 -0.00000000000E+00 -0.18250000000E+03  0.18250000000E+03  0.00000000000E+00 0.  1.
        -11    1    1    2    0    0 -0.70737071335E+01  0.11948000716E+01  0.14401014805E+03  0.14418872224E+03  0.00000000000E+00 0.  1.
         11    1    1    2    0    0  0.44278338250E+01  0.21306675218E+00 -0.17119454343E+03  0.17125192790E+03  0.00000000000E+00 0.  1.
        -15    1    1    2    0    0 -0.95346588693E+01  0.14653500648E+02  0.26737775398E+01  0.17774746590E+02  0.17770000000E+01 0. -1.
         15    1    1    2    0    0  0.12180532178E+02 -0.16061367472E+02  0.24510617839E+02  0.31784603270E+02  0.17770000000E+01 0.  1.
</event>
<event>
 6    1  0.8353910E-003  0.1852995E+03  0.7546771E-02  0.1066248E+00
        -11   -1    0    0    0    0  0.00000000000E+00  0.00000000000E+00  0.18250000000E+03  0.18250000000E+03  0.00000000000E+00 0. -1.
         11   -1    0    0    0    0 -0.00000000000E+00 -0.00000000000E+00 -0.18250000000E+03  0.18250000000E+03  0.00000000000E+00 0. -1.
        -11    1    1    2    0    0  0.26620179621E+01  0.14828634560E+01  0.17967467623E+03  0.17970051336E+03  0.00000000000E+00 0. -1.
         11    1    1    2    0    0 -0.65948851419E+01  0.50195598343E+01 -0.14925366834E+03  0.14948359777E+03  0.00000000000E+00 0. -1.
        -15    1    1    2    0    0 -0.21478339558E+01  0.38924928083E+00  0.10331727788E+01  0.29983129748E+01  0.17770000000E+01 0. -1.
         15    1    1    2    0    0  0.60807011356E+01 -0.68916725711E+01 -0.31454180667E+02  0.32817575894E+02  0.17770000000E+01 0.  1.
</event>
<event>
 6    1  0.8353910E-003  0.1826956E+03  0.7546771E-02  0.1068299E+00
        -11   -1    0    0    0    0  0.00000000000E+00  0.00000000000E+00  0.18250000000E+03  0.18250000000E+03  0.00000000000E+00 0.  1.
         11   -1    0    0    0    0 -0.00000000000E+00 -0.00000000000E+00 -0.18250000000E+03  0.18250000000E+03  0.00000000000E+00 0.  1.
        -11    1    1    2    0    0  0.87719736810E+00 -0.19983202602E+01  0.15160673415E+03  0.15162244095E+03  0.00000000000E+00 0.  1.
         11    1    1    2    0    0  0.19515091253E+01  0.20159885757E+01 -0.18228278443E+03  0.18230437761E+03  0.00000000000E+00 0.  1.
        -15    1    1    2    0    0 -0.73847479954E+00 -0.68781629018E+00  0.15780189302E+02  0.15911962157E+02  0.17770000000E+01 0.  1.
         15    1    1    2    0    0 -0.20902316938E+01  0.67014797459E+00  0.14895860980E+02  0.15161219284E+02  0.17770000000E+01 0. -1.
</event>
<event>
 6    1  0.8353910E-003  0.1828548E+03  0.7546771E-02  0.1068173E+00
        -11   -1    0    0    0    0  0.00000000000E+00  0.00000000000E+00  0.18250000000E+03  0.18250000000E+03  0.00000000000E+00 0.  1.
         11   -1    0    0    0    0 -0.00000000000E+00 -0.00000000000E+00 -0.18250000000E+03  0.18250000000E+03  0.00000000000E+00 0. -1.
        -11    1    1    2    0    0  0.18561360273E+01  0.21696503151E+01  0.18212281444E+03  0.18214519528E+03  0.00000000000E+00 0.  1.
         11    1    1    2    0    0 -0.22327638807E+01  0.12054894299E+01 -0.16154389575E+03  0.16156382236E+03  0.00000000000E+00 0. -1.
        -15    1    1    2    0    0 -0.44718578349E+00 -0.36425250372E+00 -0.69968817840E+01  0.72420120623E+01  0.17770000000E+01 0. -1.
         15    1    1    2    0    0  0.82381363687E+00 -0.30108872413E+01 -0.13582036906E+02  0.14048970297E+02  0.17770000000E+01 0.  1.
</event>
<event>
 6    1  0.8353910E-003  0.1849255E+03  0.7546771E-02  0.1066540E+00
        -11   -1    0    0    0    0  0.00000000000E+00  0.00000000000E+00  0.18250000000E+03  0.18250000000E+03  0.00000000000E+00 0. -1.
         11   -1    0    0    0    0 -0.00000000000E+00 -0.00000000000E+00 -0.18250000000E+03  0.18250000000E+03  0.00000000000E+00 0. -1.
        -11    1    1    2    0    0  0.20146664339E+01  0.95375087541E+00  0.15924835324E+03  0.15926395239E+03  0.00000000000E+00 0. -1.
         11    1    1    2    0    0  0.23669028558E+01 -0.45270161666E+01 -0.18000199711E+03  0.18007447089E+03  0.00000000000E+00 0. -1.
        -15    1    1    2    0    0 -0.16893641818E+01  0.28882785506E+01 -0.78737337188E+00  0.38695981899E+01  0.17770000000E+01 0.  1.
         15    1    1    2    0    0 -0.26922051079E+01  0.68498674063E+00  0.21541017239E+02  0.21791978521E+02  0.17770000000E+01 0. -1.
</event>
<event>
 6    1  0.8353910E-003  0.1655501E+03  0.7546771E-02  0.1082809E+00
        -11   -1    0    0    0    0  0.00000000000E+00  0.00000000000E+00  0.18250000000E+03  0.18250000000E+03  0.00000000000E+00 0.  1.
         11   -1    0    0    0    0 -0.00000000000E+00 -0.00000000000E+00 -0.18250000000E+03  0.18250000000E+03  0.00000000000E+00 0. -1.
        -11    1    1    2    0    0  0.23597176026E+01 -0.14130815864E+02  0.16334773627E+03  0.16397478821E+03  0.00000000000E+00 0.  1.
         11    1    1    2    0    0  0.91002053686E+00 -0.23184244619E+01 -0.16755809646E+03  0.16757660612E+03  0.00000000000E+00 0. -1.
        -15    1    1    2    0    0 -0.54469274996E+00 -0.12971284582E+01 -0.10143247305E+02  0.10393383824E+02  0.17770000000E+01 0.  1.
         15    1    1    2    0    0 -0.27250453895E+01  0.17746368784E+02  0.14353607496E+02  0.23055221850E+02  0.17770000000E+01 0. -1.
</event>
<event>
 6    1  0.8353910E-003  0.1847391E+03  0.7546771E-02  0.1066686E+00
        -11   -1    0    0    0    0  0.00000000000E+00  0.00000000000E+00  0.18250000000E+03  0.18250000000E+03  0.00000000000E+00 0. -1.
         11   -1    0    0    0    0 -0.00000000000E+00 -0.00000000000E+00 -0.18250000000E+03  0.18250000000E+03  0.00000000000E+00 0. -1.
        -11    1    1    2    0    0 -0.23306835945E+01 -0.42831389920E+00  0.17578965771E+03  0.17580562930E+03  0.00000000000E+00 0. -1.
         11    1    1    2    0    0 -0.22936436227E+01  0.15561043892E+01 -0.18023957890E+03  0.18026088889E+03  0.00000000000E+00 0. -1.
        -15    1    1    2    0    0  0.41623699441E+01 -0.13321037990E+01  0.51256911394E+01  0.69663665378E+01  0.17770000000E+01 0.  1.
         15    1    1    2    0    0  0.46195727304E+00  0.20431330896E+00 -0.67576994311E+00  0.19671152651E+01  0.17770000000E+01 0.  1.
</event>
<event>
 6    1  0.8353910E-003  0.1831146E+03  0.7546771E-02  0.1067967E+00
        -11   -1    0    0    0    0  0.00000000000E+00  0.00000000000E+00  0.18250000000E+03  0.18250000000E+03  0.00000000000E+00 0.  1.
         11   -1    0    0    0    0 -0.00000000000E+00 -0.00000000000E+00 -0.18250000000E+03  0.18250000000E+03  0.00000000000E+00 0. -1.
        -11    1    1    2    0    0  0.33468002799E+01 -0.20459953498E+01  0.18184311584E+03  0.18188541983E+03  0.00000000000E+00 0.  1.
         11    1    1    2    0    0 -0.23873660924E+01 -0.34891590863E+00 -0.15581784833E+03  0.15583652691E+03  0.00000000000E+00 0. -1.
        -15    1    1    2    0    0 -0.16921723551E+01  0.20853609628E+01 -0.38575164330E+01  0.50249716074E+01  0.17770000000E+01 0. -1.
         15    1    1    2    0    0  0.73273816759E+00  0.30955029561E+00 -0.22167751071E+02  0.22253081656E+02  0.17770000000E+01 0.  1.
</event>
<event>
 6    1  0.8353910E-003  0.1842496E+03  0.7546771E-02  0.1067071E+00
        -11   -1    0    0    0    0  0.00000000000E+00  0.00000000000E+00  0.18250000000E+03  0.18250000000E+03  0.00000000000E+00 0.  1.
         11   -1    0    0    0    0 -0.00000000000E+00 -0.00000000000E+00 -0.18250000000E+03  0.18250000000E+03  0.00000000000E+00 0.  1.
        -11    1    1    2    0    0  0.21251765188E+01 -0.83216531051E+00  0.12824060534E+03  0.12826091272E+03  0.00000000000E+00 0.  1.
         11    1    1    2    0    0 -0.16314815953E+01 -0.20247910468E+01 -0.18073170594E+03  0.18075041091E+03  0.00000000000E+00 0.  1.
        -15    1    1    2    0    0  0.33801250105E+01  0.65187274572E+01  0.48528358565E+02  0.49112914460E+02  0.17770000000E+01 0.  1.
         15    1    1    2    0    0 -0.38738199341E+01 -0.36617710999E+01  0.39627420374E+01  0.68757619159E+01  0.17770000000E+01 0. -1.
</event>
<event>
 6    1  0.8353910E-003  0.1838481E+03  0.7546771E-02  0.1067387E+00
        -11   -1    0    0    0    0  0.00000000000E+00  0.00000000000E+00  0.18250000000E+03  0.18250000000E+03  0.00000000000E+00 0. -1.
         11   -1    0    0    0    0 -0.00000000000E+00 -0.00000000000E+00 -0.18250000000E+03  0.18250000000E+03  0.00000000000E+00 0.  1.
        -11    1    1    2    0    0 -0.98899028243E-01 -0.25188840675E+01  0.14465940485E+03  0.14468136705E+03  0.00000000000E+00 0. -1.
         11    1    1    2    0    0 -0.43801517013E+00 -0.33918573199E+01 -0.18111960680E+03  0.18115189351E+03  0.00000000000E+00 0.  1.
        -15    1    1    2    0    0  0.35469612760E+01  0.77573058429E+01  0.32186823234E+02  0.33345255241E+02  0.17770000000E+01 0.  1.
         15    1    1    2    0    0 -0.30100470776E+01 -0.18465644555E+01  0.42733787143E+01  0.58214842036E+01  0.17770000000E+01 0. -1.
</event>
<event>
 6    1  0.8353910E-003  0.1832469E+03  0.7546771E-02  0.1067862E+00
        -11   -1    0    0    0    0  0.00000000000E+00  0.00000000000E+00  0.18250000000E+03  0.18250000000E+03  0.00000000000E+00 0.  1.
         11   -1    0    0    0    0 -0.00000000000E+00 -0.00000000000E+00 -0.18250000000E+03  0.18250000000E+03  0.00000000000E+00 0.  1.
        -11    1    1    2    0    0  0.30136503694E+01 -0.19139657326E+01  0.18171801715E+03  0.18175308281E+03  0.00000000000E+00 0.  1.
         11    1    1    2    0    0 -0.10681866194E+01  0.24907446660E+01 -0.15580155406E+03  0.15582512339E+03  0.00000000000E+00 0.  1.
        -15    1    1    2    0    0 -0.91031187828E+00 -0.55654949391E-02 -0.70089275245E+00  0.21160525374E+01  0.17770000000E+01 0. -1.
         15    1    1    2    0    0 -0.10351518717E+01 -0.57121343843E+00 -0.25215570338E+02  0.25305741259E+02  0.17770000000E+01 0.  1.
</event>
<event>
 6    1  0.8353910E-003  0.1888637E+03  0.7546771E-02  0.1063499E+00
        -11   -1    0    0    0    0  0.00000000000E+00  0.00000000000E+00  0.18250000000E+03  0.18250000000E+03  0.00000000000E+00 0.  1.
         11   -1    0    0    0    0 -0.00000000000E+00 -0.00000000000E+00 -0.18250000000E+03  0.18250000000E+03  0.00000000000E+00 0.  1.
        -11    1    1    2    0    0 -0.17315910313E+01 -0.22740257492E+01  0.84471764806E+02  0.84520107963E+02  0.00000000000E+00 0.  1.
         11    1    1    2    0    0  0.29172817137E+02  0.24556812890E+02 -0.17195898279E+03  0.17613625998E+03  0.00000000000E+00 0.  1.
        -15    1    1    2    0    0 -0.21714445545E+02 -0.23867323979E+02  0.23257097100E+02  0.39814778585E+02  0.17770000000E+01 0. -1.
         15    1    1    2    0    0 -0.57267805603E+01  0.15845368377E+01  0.64230120883E+02  0.64528853470E+02  0.17770000000E+01 0.  1.
</event>
<event>
 6    1  0.8353910E-003  0.1834351E+03  0.7546771E-02  0.1067713E+00
        -11   -1    0    0    0    0  0.00000000000E+00  0.00000000000E+00  0.18250000000E+03  0.18250000000E+03  0.00000000000E+00 0. -1.
         11   -1    0    0    0    0 -0.00000000000E+00 -0.00000000000E+00 -0.18250000000E+03  0.18250000000E+03  0.00000000000E+00 0.  1.
        -11    1    1    2    0    0 -0.98483696781E+00  0.15639802217E+01  0.95378747623E+02  0.95396653171E+02  0.00000000000E+00 0. -1.
         11    1    1    2    0    0 -0.49739377911E+01  0.12035455470E+01 -0.18149276805E+03  0.18156490143E+03  0.00000000000E+00 0.  1.
        -15    1    1    2    0    0 -0.84499433277E+00 -0.87608007443E+00  0.73052021095E+02  0.73083767327E+02  0.17770000000E+01 0. -1.
         15    1    1    2    0    0  0.68037690917E+01 -0.18914456942E+01  0.13061999329E+02  0.14954678069E+02  0.17770000000E+01 0.  1.
</event>
<event>
 6    1  0.8353910E-003  0.1864080E+03  0.7546771E-02  0.1065386E+00
        -11   -1    0    0    0    0  0.00000000000E+00  0.00000000000E+00  0.18250000000E+03  0.18250000000E+03  0.00000000000E+00 0. -1.
         11   -1    0    0    0    0 -0.00000000000E+00 -0.00000000000E+00 -0.18250000000E+03  0.18250000000E+03  0.00000000000E+00 0. -1.
        -11    1    1    2    0    0  0.38470568302E+01  0.81791182467E+01  0.14981067557E+02  0.17496576999E+02  0.00000000000E+00 0. -1.
         11    1    1    2    0    0 -0.30338868642E+01 -0.17117527388E+01 -0.17855805368E+03  0.17859202978E+03  0.00000000000E+00 0. -1.
        -15    1    1    2    0    0 -0.74105082826E+01 -0.94223586748E+01  0.16033443124E+03  0.16079174122E+03  0.17770000000E+01 0. -1.
         15    1    1    2    0    0  0.65973383166E+01  0.29549931669E+01  0.32425548814E+01  0.81196520023E+01  0.17770000000E+01 0.  1.
</event>
<event>
 6    1  0.8353910E-003  0.1784493E+03  0.7546771E-02  0.1071726E+00
        -11   -1    0    0    0    0  0.00000000000E+00  0.00000000000E+00  0.18250000000E+03  0.18250000000E+03  0.00000000000E+00 0.  1.
         11   -1    0    0    0    0 -0.00000000000E+00 -0.00000000000E+00 -0.18250000000E+03  0.18250000000E+03  0.00000000000E+00 0.  1.
        -11    1    1    2    0    0  0.12525463369E+01  0.55445161202E+01  0.17735686598E+03  0.17744793163E+03  0.00000000000E+00 0.  1.
         11    1    1    2    0    0  0.18085644730E+01 -0.37193504691E+01 -0.17942680575E+03  0.17947446363E+03  0.00000000000E+00 0.  1.
        -15    1    1    2    0    0 -0.24396150808E+01 -0.28166711751E+01 -0.10884376081E+01  0.42694008570E+01  0.17770000000E+01 0.  1.
         15    1    1    2    0    0 -0.62149572905E+00  0.99150552400E+00  0.31583773816E+01  0.38082038850E+01  0.17770000000E+01 0. -1.
</event>
<event>
 6    1  0.8353910E-003  0.1843248E+03  0.7546771E-02  0.1067011E+00
        -11   -1    0    0    0    0  0.00000000000E+00  0.00000000000E+00  0.18250000000E+03  0.18250000000E+03  0.00000000000E+00 0.  1.
         11   -1    0    0    0    0 -0.00000000000E+00 -0.00000000000E+00 -0.18250000000E+03  0.18250000000E+03  0.00000000000E+00 0. -1.
        -11    1    1    2    0    0  0.25636680507E+01  0.24101780815E+01  0.18064090087E+03  0.18067516824E+03  0.00000000000E+00 0.  1.
         11    1    1    2    0    0 -0.38437445838E+01 -0.24639245997E+00 -0.17086456850E+03  0.17090797480E+03  0.00000000000E+00 0. -1.
        -15    1    1    2    0    0 -0.21417651282E+01 -0.36824039315E+01 -0.31039477981E+01  0.55623266276E+01  0.17770000000E+01 0.  1.
         15    1    1    2    0    0  0.34218416614E+01  0.15186183100E+01 -0.66723845668E+01  0.78545303318E+01  0.17770000000E+01 0.  1.
</event>
<event>
 6    1  0.8353910E-003  0.1784184E+03  0.7546771E-02  0.1071751E+00
        -11   -1    0    0    0    0  0.00000000000E+00  0.00000000000E+00  0.18250000000E+03  0.18250000000E+03  0.00000000000E+00 0. -1.
         11   -1    0    0    0    0 -0.00000000000E+00 -0.00000000000E+00 -0.18250000000E+03  0.18250000000E+03  0.00000000000E+00 0. -1.
        -11    1    1    2    0    0  0.11175861336E+01  0.28854993641E+01  0.17795881349E+03  0.17798571404E+03  0.00000000000E+00 0. -1.
         11    1    1    2    0    0  0.44630005632E+01 -0.21355257663E+01 -0.17882812503E+03  0.17889655432E+03  0.00000000000E+00 0. -1.
        -15    1    1    2    0    0 -0.26936118684E+01  0.51437978340E+00  0.25339097798E+01  0.41350404147E+01  0.17770000000E+01 0.  1.
         15    1    1    2    0    0 -0.28869748284E+01 -0.12643533813E+01 -0.16645982344E+01  0.39826912276E+01  0.17770000000E+01 0. -1.
</event>
<event>
 6    1  0.8353910E-003  0.1861312E+03  0.7546771E-02  0.1065601E+00
        -11   -1    0    0    0    0  0.00000000000E+00  0.00000000000E+00  0.18250000000E+03  0.18250000000E+03  0.00000000000E+00 0. -1.
         11   -1    0    0    0    0 -0.00000000000E+00 -0.00000000000E+00 -0.18250000000E+03  0.18250000000E+03  0.00000000000E+00 0. -1.
        -11    1    1    2    0    0  0.37765471768E+01 -0.92568140346E+00  0.17882650579E+03  0.17886877416E+03  0.00000000000E+00 0. -1.
         11    1    1    2    0    0  0.93336699695E+00  0.10898935951E+01 -0.98599857528E+02  0.98610298380E+02  0.00000000000E+00 0. -1.
        -15    1    1    2    0    0  0.88091048373E+00  0.50040694743E+01  0.13669185108E+01  0.55536393292E+01  0.17770000000E+01 0.  1.
         15    1    1    2    0    0 -0.55908246575E+01 -0.51682816660E+01 -0.81593566776E+02  0.81967288133E+02  0.17770000000E+01 0. -1.
</event>
<event>
 6    1  0.8353910E-003  0.1825747E+03  0.7546771E-02  0.1068395E+00
        -11   -1    0    0    0    0  0.00000000000E+00  0.00000000000E+00  0.18250000000E+03  0.18250000000E+03  0.00000000000E+00 0.  1.
         11   -1    0    0    0    0 -0.00000000000E+00 -0.00000000000E+00 -0.18250000000E+03  0.18250000000E+03  0.00000000000E+00 0. -1.
        -11    1    1    2    0    0 -0.23926891506E+01 -0.62951092356E+00  0.18240850798E+03  0.18242528615E+03  0.00000000000E+00 0.  1.
         11    1    1    2    0    0  0.11836550371E+01  0.18975245328E+01 -0.10712175369E+03  0.10714509673E+03  0.00000000000E+00 0. -1.
        -15    1    1    2    0    0  0.16732280141E+01 -0.39671696721E+00 -0.32131954814E+02  0.32226965813E+02  0.17770000000E+01 0. -1.
         15    1    1    2    0    0 -0.46419390063E+00 -0.87129664201E+00 -0.43154799469E+02  0.43202651308E+02  0.17770000000E+01 0.  1.
</event>
<event>
 6    1  0.8353910E-003  0.1847613E+03  0.7546771E-02  0.1066669E+00
        -11   -1    0    0    0    0  0.00000000000E+00  0.00000000000E+00  0.18250000000E+03  0.18250000000E+03  0.00000000000E+00 0.  1.
         11   -1    0    0    0    0 -0.00000000000E+00 -0.00000000000E+00 -0.18250000000E+03  0.18250000000E+03  0.00000000000E+00 0. -1.
        -11    1    1    2    0    0  0.52176700330E+01 -0.70472404607E+00  0.14595545939E+03  0.14605039144E+03  0.00000000000E+00 0.  1.
         11    1    1    2    0    0 -0.25885525441E+00 -0.82834261234E+01 -0.18004803044E+03  0.18023866239E+03  0.00000000000E+00 0. -1.
        -15    1    1    2    0    0 -0.18207959334E+01  0.77703455540E+01  0.54720400339E+01  0.98384205537E+01  0.17770000000E+01 0.  1.
         15    1    1    2    0    0 -0.31380188451E+01  0.12178046155E+01  0.28620531021E+02  0.28872525613E+02  0.17770000000E+01 0. -1.
</event>
<event>
 6    1  0.8353910E-003  0.1902137E+03  0.7546771E-02  0.1062475E+00
        -11   -1    0    0    0    0  0.00000000000E+00  0.00000000000E+00  0.18250000000E+03  0.18250000000E+03  0.00000000000E+00 0. -1.
         11   -1    0    0    0    0 -0.00000000000E+00 -0.00000000000E+00 -0.18250000000E+03  0.18250000000E+03  0.00000000000E+00 0. -1.
        -11    1    1    2    0    0 -0.18924164611E+01  0.12681901991E+01  0.16865326844E+03  0.16866865300E+03  0.00000000000E+00 0. -1.
         11    1    1    2    0    0  0.40544824251E+01  0.36777505462E+01 -0.17470056970E+03  0.17478630876E+03  0.00000000000E+00 0. -1.
        -15    1    1    2    0    0 -0.81910077081E+01 -0.19136292627E+01 -0.38621511676E+01  0.94248885866E+01  0.17770000000E+01 0. -1.
         15    1    1    2    0    0  0.60289417440E+01 -0.30323114827E+01  0.99094524201E+01  0.12120149659E+02  0.17770000000E+01 0.  1.
</event>
<event>
 6    1  0.8353910E-003  0.1831364E+03  0.7546771E-02  0.1067949E+00
        -11   -1    0    0    0    0  0.00000000000E+00  0.00000000000E+00  0.18250000000E+03  0.18250000000E+03  0.00000000000E+00 0.  1.
         11   -1    0    0    0    0 -0.00000000000E+00 -0.00000000000E+00 -0.18250000000E+03  0.18250000000E+03  0.00000000000E+00 0. -1.
        -11    1    1    2    0    0 -0.40036179480E+01  0.12942380568E+01  0.18181487369E+03  0.18186355409E+03  0.00000000000E+00 0.  1.
         11    1    1    2    0    0  0.12457971665E+01  0.47840741497E+01 -0.76830278919E+02  0.76989162451E+02  0.00000000000E+00 0. -1.
        -15    1    1    2    0    0  0.30398772641E+00  0.14052464466E+01 -0.76671835946E+02  0.76705901223E+02  0.17770000000E+01 0. -1.
         15    1    1    2    0    0  0.24538330551E+01 -0.74835586532E+01 -0.28312758827E+02  0.29441382240E+02  0.17770000000E+01 0.  1.
</event>
<event>
 6    1  0.8353910E-003  0.1882232E+03  0.7546771E-02  0.1063988E+00
        -11   -1    0    0    0    0  0.00000000000E+00  0.00000000000E+00  0.18250000000E+03  0.18250000000E+03  0.00000000000E+00 0.  1.
         11   -1    0    0    0    0 -0.00000000000E+00 -0.00000000000E+00 -0.18250000000E+03  0.18250000000E+03  0.00000000000E+00 0. -1.
        -11    1    1    2    0    0 -0.57203198406E+01  0.12677423161E+01  0.16455667487E+03  0.16466095005E+03  0.00000000000E+00 0.  1.
         11    1    1    2    0    0  0.56264511075E+01 -0.54855697430E+00 -0.17668641755E+03  0.17677683110E+03  0.00000000000E+00 0. -1.
        -15    1    1    2    0    0 -0.77848385182E+01  0.57573272517E+01  0.61268975120E+01  0.11595133891E+02  0.17770000000E+01 0.  1.
         15    1    1    2    0    0  0.78787072513E+01 -0.64765125935E+01  0.60028451685E+01  0.11967084960E+02  0.17770000000E+01 0. -1.
</event>
<event>
 6    1  0.8353910E-003  0.1846035E+03  0.7546771E-02  0.1066793E+00
        -11   -1    0    0    0    0  0.00000000000E+00  0.00000000000E+00  0.18250000000E+03  0.18250000000E+03  0.00000000000E+00 0. -1.
         11   -1    0    0    0    0 -0.00000000000E+00 -0.00000000000E+00 -0.18250000000E+03  0.18250000000E+03  0.00000000000E+00 0. -1.
        -11    1    1    2    0    0  0.19772878655E+01 -0.39312748085E+01  0.18034282062E+03  0.18039650091E+03  0.00000000000E+00 0. -1.
         11    1    1    2    0    0  0.15385672869E+01  0.33257992508E+01 -0.17344776302E+03  0.17348646813E+03  0.00000000000E+00 0. -1.
        -15    1    1    2    0    0 -0.11259918478E+01  0.36798369133E+01 -0.22436188712E+01  0.47958953272E+01  0.17770000000E+01 0.  1.
         15    1    1    2    0    0 -0.23898633046E+01 -0.30743613555E+01 -0.46514387367E+01  0.63211356322E+01  0.17770000000E+01 0.  1.
</event>
<event>
 6    1  0.8353910E-003  0.1836197E+03  0.7546771E-02  0.1067567E+00
        -11   -1    0    0    0    0  0.00000000000E+00  0.00000000000E+00  0.18250000000E+03  0.18250000000E+03  0.00000000000E+00 0. -1.
         11   -1    0    0    0    0 -0.00000000000E+00 -0.00000000000E+00 -0.18250000000E+03  0.18250000000E+03  0.00000000000E+00 0.  1.
        -11    1    1    2    0    0 -0.31963793958E+01  0.42293821867E+01  0.18130277816E+03  0.18138026872E+03  0.00000000000E+00 0. -1.
         11    1    1    2    0    0  0.10551128018E+01 -0.25214897118E+01 -0.16633433234E+03  0.16635678913E+03  0.00000000000E+00 0.  1.
        -15    1    1    2    0    0  0.46671208645E+01 -0.21161957750E+01 -0.84933113576E+01  0.10077418744E+02  0.17770000000E+01 0.  1.
         15    1    1    2    0    0 -0.25258542704E+01  0.40830330012E+00 -0.64751344594E+01  0.71855234080E+01  0.17770000000E+01 0.  1.
</event>
<event>
 6    1  0.8353910E-003  0.1829377E+03  0.7546771E-02  0.1068107E+00
        -11   -1    0    0    0    0  0.00000000000E+00  0.00000000000E+00  0.18250000000E+03  0.18250000000E+03  0.00000000000E+00 0.  1.
         11   -1    0    0    0    0 -0.00000000000E+00 -0.00000000000E+00 -0.18250000000E+03  0.18250000000E+03  0.00000000000E+00 0.  1.
        -11    1    1    2    0    0 -0.28763663669E+01 -0.37059451177E+00  0.18203915534E+03  0.18206225556E+03  0.00000000000E+00 0.  1.
         11    1    1    2    0    0 -0.28920224908E+01  0.68875130086E-01 -0.59278598566E+02  0.59349143093E+02  0.00000000000E+00 0.  1.
        -15    1    1    2    0    0  0.69853385827E+01 -0.13885763066E+01 -0.33887487820E+02  0.34673371036E+02  0.17770000000E+01 0.  1.
         15    1    1    2    0    0 -0.12169497251E+01  0.16902956883E+01 -0.88873068955E+02  0.88915230307E+02  0.17770000000E+01 0. -1.
</event>
<event>
 6    1  0.8353910E-003  0.1856557E+03  0.7546771E-02  0.1065970E+00
        -11   -1    0    0    0    0  0.00000000000E+00  0.00000000000E+00  0.18250000000E+03  0.18250000000E+03  0.00000000000E+00 0. -1.
         11   -1    0    0    0    0 -0.00000000000E+00 -0.00000000000E+00 -0.18250000000E+03  0.18250000000E+03  0.00000000000E+00 0.  1.
        -11    1    1    2    0    0  0.51074600939E+01 -0.23079761082E+01  0.17563768199E+03  0.17572708453E+03  0.00000000000E+00 0. -1.
         11    1    1    2    0    0 -0.16656052416E+01  0.51963983105E+01 -0.17926122058E+03  0.17934425556E+03  0.00000000000E+00 0.  1.
        -15    1    1    2    0    0  0.10180443018E+00 -0.17886315472E+01  0.49916223311E+01  0.55931734687E+01  0.17770000000E+01 0. -1.
         15    1    1    2    0    0 -0.35436592825E+01 -0.10997906550E+01 -0.13680837376E+01  0.43354864443E+01  0.17770000000E+01 0.  1.
</event>
<event>
 6    1  0.8353910E-003  0.1833018E+03  0.7546771E-02  0.1067818E+00
        -11   -1    0    0    0    0  0.00000000000E+00  0.00000000000E+00  0.18250000000E+03  0.18250000000E+03  0.00000000000E+00 0. -1.
         11   -1    0    0    0    0 -0.00000000000E+00 -0.00000000000E+00 -0.18250000000E+03  0.18250000000E+03  0.00000000000E+00 0. -1.
        -11    1    1    2    0    0 -0.10889453516E+01  0.33024999209E+01  0.11567264043E+03  0.11572489815E+03  0.00000000000E+00 0. -1.
         11    1    1    2    0    0  0.41439272526E+01  0.12831135190E+01 -0.18164644964E+03  0.18169824209E+03  0.00000000000E+00 0. -1.
        -15    1    1    2    0    0 -0.86862972589E+00 -0.23371162777E+01  0.62486251543E+02  0.62561217947E+02  0.17770000000E+01 0. -1.
         15    1    1    2    0    0 -0.21863521752E+01 -0.22484971622E+01  0.34875576599E+01  0.50156418087E+01  0.17770000000E+01 0.  1.
</event>
<event>
 6    1  0.8353910E-003  0.1681600E+03  0.7546771E-02  0.1080479E+00
        -11   -1    0    0    0    0  0.00000000000E+00  0.00000000000E+00  0.18250000000E+03  0.18250000000E+03  0.00000000000E+00 0. -1.
         11   -1    0    0    0    0 -0.00000000000E+00 -0.00000000000E+00 -0.18250000000E+03  0.18250000000E+03  0.00000000000E+00 0. -1.
        -11    1    1    2    0    0 -0.24666264265E+01  0.11581202847E+02  0.16837197896E+03  0.16878783074E+03  0.00000000000E+00 0. -1.
         11    1    1    2    0    0 -0.42382366562E+01  0.48572206904E+01 -0.16787709763E+03  0.16800081890E+03  0.00000000000E+00 0. -1.
        -15    1    1    2    0    0  0.25346186084E+01 -0.13190854043E+02  0.96503518475E+01  0.16634600736E+02  0.17770000000E+01 0. -1.
         15    1    1    2    0    0  0.41702444743E+01 -0.32475694941E+01 -0.10145233178E+02  0.11576749623E+02  0.17770000000E+01 0.  1.
</event>
<event>
 6    1  0.8353910E-003  0.1845081E+03  0.7546771E-02  0.1066868E+00
        -11   -1    0    0    0    0  0.00000000000E+00  0.00000000000E+00  0.18250000000E+03  0.18250000000E+03  0.00000000000E+00 0. -1.
         11   -1    0    0    0    0 -0.00000000000E+00 -0.00000000000E+00 -0.18250000000E+03  0.18250000000E+03  0.00000000000E+00 0. -1.
        -11    1    1    2    0    0 -0.33051413912E+01  0.33890677775E+01  0.11978272018E+03  0.11987622698E+03  0.00000000000E+00 0. -1.
         11    1    1    2    0    0  0.31430691324E+01 -0.71066548243E-01 -0.18046454619E+03  0.18049192881E+03  0.00000000000E+00 0. -1.
        -15    1    1    2    0    0  0.82400878199E+01 -0.39272547720E+01  0.51187059183E+02  0.52024947229E+02  0.17770000000E+01 0.  1.
         15    1    1    2    0    0 -0.80780155611E+01  0.60925354276E+00  0.94947668270E+01  0.12606896977E+02  0.17770000000E+01 0.  1.
</event>
<event>
 6    1  0.8353910E-003  0.1835102E+03  0.7546771E-02  0.1067653E+00
        -11   -1    0    0    0    0  0.00000000000E+00  0.00000000000E+00  0.18250000000E+03  0.18250000000E+03  0.00000000000E+00 0. -1.
         11   -1    0    0    0    0 -0.00000000000E+00 -0.00000000000E+00 -0.18250000000E+03  0.18250000000E+03  0.00000000000E+00 0.  1.
        -11    1    1    2    0    0 -0.73602740506E+01 -0.23752304733E+01  0.18132490558E+03  0.18148977034E+03  0.00000000000E+00 0. -1.
         11    1    1    2    0    0 -0.21777443424E+00 -0.23882718133E+01 -0.14568838465E+03  0.14570812157E+03  0.00000000000E+00 0.  1.
        -15    1    1    2    0    0  0.88378841489E+01  0.38803030748E+01 -0.23974824228E+02  0.25905884928E+02  0.17770000000E+01 0.  1.
         15    1    1    2    0    0 -0.12598356640E+01  0.88319921176E+00 -0.11661696697E+02  0.11896223165E+02  0.17770000000E+01 0.  1.
</event>
<event>
 6    1  0.8353910E-003  0.1835448E+03  0.7546771E-02  0.1067626E+00
        -11   -1    0    0    0    0  0.00000000000E+00  0.00000000000E+00  0.18250000000E+03  0.18250000000E+03  0.00000000000E+00 0. -1.
         11   -1    0    0    0    0 -0.00000000000E+00 -0.00000000000E+00 -0.18250000000E+03  0.18250000000E+03  0.00000000000E+00 0.  1.
        -11    1    1    2    0    0 -0.32748489949E+00 -0.96458772826E+00  0.57867886040E+02  0.57876851250E+02  0.00000000000E+00 0. -1.
         11    1    1    2    0    0 -0.38525387555E+00 -0.33709583634E+01 -0.18142352166E+03  0.18145524515E+03  0.00000000000E+00 0.  1.
        -15    1    1    2    0    0  0.83689205936E+00  0.66147445763E+00  0.27983954117E-01  0.20727877071E+01  0.17770000000E+01 0.  1.
         15    1    1    2    0    0 -0.12415328433E+00  0.36740716340E+01  0.12352765167E+03  0.12359511589E+03  0.17770000000E+01 0. -1.
</event>
<event>
 6    1  0.8353910E-003  0.1867558E+03  0.7546771E-02  0.1065117E+00
        -11   -1    0    0    0    0  0.00000000000E+00  0.00000000000E+00  0.18250000000E+03  0.18250000000E+03  0.00000000000E+00 0.  1.
         11   -1    0    0    0    0 -0.00000000000E+00 -0.00000000000E+00 -0.18250000000E+03  0.18250000000E+03  0.00000000000E+00 0.  1.
        -11    1    1    2    0    0 -0.39172655405E+01  0.19965204082E+01  0.17818998075E+03  0.17824421534E+03  0.00000000000E+00 0.  1.
         11    1    1    2    0    0 -0.25994622486E+01 -0.16858525723E+01 -0.15643107882E+03  0.15646175803E+03  0.00000000000E+00 0.  1.
        -15    1    1    2    0    0  0.95835734492E+01 -0.43801233747E+01 -0.22440160600E+02  0.24854554866E+02  0.17770000000E+01 0. -1.
         15    1    1    2    0    0 -0.30668456601E+01  0.40694555388E+01  0.68125867215E+00  0.54394717633E+01  0.17770000000E+01 0.  1.
</event>
<event>
 6    1  0.8353910E-003  0.1871020E+03  0.7546771E-02  0.1064850E+00
        -11   -1    0    0    0    0  0.00000000000E+00  0.00000000000E+00  0.18250000000E+03  0.18250000000E+03  0.00000000000E+00 0. -1.
         11   -1    0    0    0    0 -0.00000000000E+00 -0.00000000000E+00 -0.18250000000E+03  0.18250000000E+03  0.00000000000E+00 0. -1.
        -11    1    1    2    0    0  0.12299011610E+02  0.10906185262E+02  0.17713690377E+03  0.17789798549E+03  0.00000000000E+00 0. -1.
         11    1    1    2    0    0 -0.40805651464E-01 -0.28277855386E+01 -0.84488011411E+02  0.84535330533E+02  0.00000000000E+00 0. -1.
        -15    1    1    2    0    0 -0.11140574150E+02  0.88495774102E+01 -0.80143691147E+02  0.81416192324E+02  0.17770000000E+01 0.  1.
         15    1    1    2    0    0 -0.11176318082E+01 -0.16927977133E+02 -0.12505201215E+02  0.21150491652E+02  0.17770000000E+01 0. -1.
</event>
<event>
 6    1  0.8353910E-003  0.1828446E+03  0.7546771E-02  0.1068181E+00
        -11   -1    0    0    0    0  0.00000000000E+00  0.00000000000E+00  0.18250000000E+03  0.18250000000E+03  0.00000000000E+00 0.  1.
         11   -1    0    0    0    0 -0.00000000000E+00 -0.00000000000E+00 -0.18250000000E+03  0.18250000000E+03  0.00000000000E+00 0.  1.
        -11    1    1    2    0    0 -0.85421856792E+00  0.18569128425E+00  0.61149090537E+02  0.61155338640E+02  0.00000000000E+00 0.  1.
         11    1    1    2    0    0  0.27601593745E+01 -0.43456906811E+01 -0.18208268193E+03  0.18215544616E+03  0.00000000000E+00 0.  1.
        -15    1    1    2    0    0 -0.35481523639E+00  0.52605003825E+00  0.10860810662E+03  0.10862449620E+03  0.17770000000E+01 0.  1.
         15    1    1    2    0    0 -0.15511255702E+01  0.36339493586E+01  0.12325484779E+02  0.13064718998E+02  0.17770000000E+01 0. -1.
</event>
<event>
 6    1  0.8353910E-003  0.1829699E+03  0.7546771E-02  0.1068081E+00
        -11   -1    0    0    0    0  0.00000000000E+00  0.00000000000E+00  0.18250000000E+03  0.18250000000E+03  0.00000000000E+00 0. -1.
         11   -1    0    0    0    0 -0.00000000000E+00 -0.00000000000E+00 -0.18250000000E+03  0.18250000000E+03  0.00000000000E+00 0.  1.
        -11    1    1    2    0    0  0.18541222628E+01  0.22455695999E+01  0.18200683980E+03  0.18203013510E+03  0.00000000000E+00 0. -1.
         11    1    1    2    0    0 -0.67165085973E+00  0.17800650787E+01 -0.13455431708E+03  0.13456776728E+03  0.00000000000E+00 0.  1.
        -15    1    1    2    0    0 -0.20204722195E+01 -0.40190660159E+00 -0.45450466447E+01  0.52970760716E+01  0.17770000000E+01 0. -1.
         15    1    1    2    0    0  0.83800081644E+00 -0.36237280771E+01 -0.42907476076E+02  0.43105021549E+02  0.17770000000E+01 0.  1.
</event>
<event>
 6    1  0.8353910E-003  0.1847775E+03  0.7546771E-02  0.1066656E+00
        -11   -1    0    0    0    0  0.00000000000E+00  0.00000000000E+00  0.18250000000E+03  0.18250000000E+03  0.00000000000E+00 0. -1.
         11   -1    0    0    0    0 -0.00000000000E+00 -0.00000000000E+00 -0.18250000000E+03  0.18250000000E+03  0.00000000000E+00 0.  1.
        -11    1    1    2    0    0  0.25082916760E+01 -0.38535025965E+01  0.18016379455E+03  0.18022245664E+03  0.00000000000E+00 0. -1.
         11    1    1    2    0    0  0.14823129902E+01  0.31992840673E+01 -0.17669192387E+03  0.17672710214E+03  0.00000000000E+00 0.  1.
        -15    1    1    2    0    0 -0.35103937757E+01 -0.41796290884E+00  0.23900558747E-01  0.39567483734E+01  0.17770000000E+01 0.  1.
         15    1    1    2    0    0 -0.48021089041E+00  0.10721814381E+01 -0.34957712454E+01  0.40936928482E+01  0.17770000000E+01 0.  1.
</event>
<event>
 6    1  0.8353910E-003  0.1754634E+03  0.7546771E-02  0.1074198E+00
        -11   -1    0    0    0    0  0.00000000000E+00  0.00000000000E+00  0.18250000000E+03  0.18250000000E+03  0.00000000000E+00 0.  1.
         11   -1    0    0    0    0 -0.00000000000E+00 -0.00000000000E+00 -0.18250000000E+03  0.18250000000E+03  0.00000000000E+00 0.  1.
        -11    1    1    2    0    0  0.88189434162E+00 -0.34300883260E+01  0.17541292013E+03  0.17544866997E+03  0.00000000000E+00 0.  1.
         11    1    1    2    0    0 -0.50323624672E+01  0.80684418166E+01 -0.17527554760E+03  0.17553330741E+03  0.00000000000E+00 0.  1.
        -15    1    1    2    0    0  0.15767111346E+01  0.39778294331E+01 -0.12115560530E+01  0.47890230810E+01  0.17770000000E+01 0.  1.
         15    1    1    2    0    0  0.25737569911E+01 -0.86161829237E+01  0.10741835185E+01  0.92289995371E+01  0.17770000000E+01 0. -1.
</event>
<event>
 6    1  0.8353910E-003  0.1766308E+03  0.7546771E-02  0.1073225E+00
        -11   -1    0    0    0    0  0.00000000000E+00  0.00000000000E+00  0.18250000000E+03  0.18250000000E+03  0.00000000000E+00 0. -1.
         11   -1    0    0    0    0 -0.00000000000E+00 -0.00000000000E+00 -0.18250000000E+03  0.18250000000E+03  0.00000000000E+00 0.  1.
        -11    1    1    2    0    0  0.54565922311E+01  0.93771842023E+00  0.17761783547E+03  0.17770410572E+03  0.00000000000E+00 0. -1.
         11    1    1    2    0    0  0.16601228125E+01 -0.42280379250E+01 -0.17559151711E+03  0.17565025816E+03  0.00000000000E+00 0.  1.
        -15    1    1    2    0    0  0.11693101107E+01  0.17310237580E+01  0.18804002899E+00  0.27489666128E+01  0.17770000000E+01 0.  1.
         15    1    1    2    0    0 -0.82860251543E+01  0.15592957468E+01 -0.22143583881E+01  0.88966694979E+01  0.17770000000E+01 0. -1.
</event>
<event>
 6    1  0.8353910E-003  0.1861150E+03  0.7546771E-02  0.1065613E+00
        -11   -1    0    0    0    0  0.00000000000E+00  0.00000000000E+00  0.18250000000E+03  0.18250000000E+03  0.00000000000E+00 0.  1.
         11   -1    0    0    0    0 -0.00000000000E+00 -0.00000000000E+00 -0.18250000000E+03  0.18250000000E+03  0.00000000000E+00 0.  1.
        -11    1    1    2    0    0  0.54265670457E+01 -0.81865118475E+00  0.17419202707E+03  0.17427845569E+03  0.00000000000E+00 0.  1.
         11    1    1    2    0    0  0.23074489090E+00  0.54887138269E+01 -0.17880066247E+03  0.17888503605E+03  0.00000000000E+00 0.  1.
        -15    1    1    2    0    0 -0.25148562205E+01 -0.23056720154E+01 -0.16896839673E+01  0.42015932884E+01  0.17770000000E+01 0. -1.
         15    1    1    2    0    0 -0.31424557161E+01 -0.23643906267E+01  0.62983193606E+01  0.76349149787E+01  0.17770000000E+01 0.  1.
</event>
<event>
 6    1  0.8353910E-003  0.1897648E+03  0.7546771E-02  0.1062815E+00
        -11   -1    0    0    0    0  0.00000000000E+00  0.00000000000E+00  0.18250000000E+03  0.18250000000E+03  0.00000000000E+00 0. -1.
         11   -1    0    0    0    0 -0.00000000000E+00 -0.00000000000E+00 -0.18250000000E+03  0.18250000000E+03  0.00000000000E+00 0. -1.
        -11    1    1    2    0    0  0.53484677895E+01  0.28473089135E+01  0.17513045935E+03  0.17523524494E+03  0.00000000000E+00 0. -1.
         11    1    1    2    0    0 -0.29270831805E+01 -0.54469061954E+00 -0.18420182212E+02  0.18659250160E+02  0.00000000000E+00 0. -1.
        -15    1    1    2    0    0  0.17181240044E+01  0.16973982753E+01 -0.16263104117E+03  0.16265868066E+03  0.17770000000E+01 0. -1.
         15    1    1    2    0    0 -0.41395086134E+01 -0.40000165693E+01  0.59207640314E+01  0.84468242453E+01  0.17770000000E+01 0. -1.
</event>
<event>
 6    1  0.8353910E-003  0.1831028E+03  0.7546771E-02  0.1067976E+00
        -11   -1    0    0    0    0  0.00000000000E+00  0.00000000000E+00  0.18250000000E+03  0.18250000000E+03  0.00000000000E+00 0. -1.
         11   -1    0    0    0    0 -0.00000000000E+00 -0.00000000000E+00 -0.18250000000E+03  0.18250000000E+03  0.00000000000E+00 0. -1.
        -11    1    1    2    0    0 -0.29591983976E+01 -0.80054786074E-01  0.18187315597E+03  0.18189724606E+03  0.00000000000E+00 0. -1.
         11    1    1    2    0    0 -0.13250725014E+01 -0.19540627529E+01 -0.14162641469E+03  0.14164609249E+03  0.00000000000E+00 0. -1.
        -15    1    1    2    0    0 -0.62803862038E+00  0.17248190170E+01 -0.34677526002E+01  0.43072578569E+01  0.17770000000E+01 0. -1.
         15    1    1    2    0    0  0.49123095193E+01  0.30929852199E+00 -0.36778988674E+02  0.37149403592E+02  0.17770000000E+01 0. -1.
</event>
<event>
 6    1  0.8353910E-003  0.1860462E+03  0.7546771E-02  0.1065667E+00
        -11   -1    0    0    0    0  0.00000000000E+00  0.00000000000E+00  0.18250000000E+03  0.18250000000E+03  0.00000000000E+00 0. -1.
         11   -1    0    0    0    0 -0.00000000000E+00 -0.00000000000E+00 -0.18250000000E+03  0.18250000000E+03  0.00000000000E+00 0.  1.
        -11    1    1    2    0    0  0.59388633131E+01  0.17037037062E+01  0.17884715278E+03  0.17895383975E+03  0.00000000000E+00 0. -1.
         11    1    1    2    0    0 -0.10201558917E+01 -0.73752340236E+00 -0.40585137886E+02  0.40604655842E+02  0.00000000000E+00 0.  1.
        -15    1    1    2    0    0 -0.20471074854E+02 -0.23625433042E+01 -0.11800042747E+03  0.11979943710E+03  0.17770000000E+01 0.  1.
         15    1    1    2    0    0  0.15552367432E+02  0.13963630004E+01 -0.20261587420E+02  0.25642067315E+02  0.17770000000E+01 0. -1.
</event>
<event>
 6    1  0.8353910E-003  0.1585677E+03  0.7546771E-02  0.1089281E+00
        -11   -1    0    0    0    0  0.00000000000E+00  0.00000000000E+00  0.18250000000E+03  0.18250000000E+03  0.00000000000E+00 0. -1.
         11   -1    0    0    0    0 -0.00000000000E+00 -0.00000000000E+00 -0.18250000000E+03  0.18250000000E+03  0.00000000000E+00 0.  1.
        -11    1    1    2    0    0  0.44668939546E+01  0.34121563548E+01  0.15725049259E+03  0.15735092428E+03  0.00000000000E+00 0. -1.
         11    1    1    2    0    0  0.45323633150E+01  0.79994659682E+00 -0.15988475886E+03  0.15995098733E+03  0.00000000000E+00 0.  1.
        -15    1    1    2    0    0 -0.11418425420E+02 -0.36988642665E+01  0.23587207636E+02  0.26525009501E+02  0.17770000000E+01 0. -1.
         15    1    1    2    0    0  0.24191681507E+01 -0.51323868513E+00 -0.20952941371E+02  0.21173078888E+02  0.17770000000E+01 0.  1.
</event>
<event>
 6    1  0.8353910E-003  0.1870571E+03  0.7546771E-02  0.1064884E+00
        -11   -1    0    0    0    0  0.00000000000E+00  0.00000000000E+00  0.18250000000E+03  0.18250000000E+03  0.00000000000E+00 0.  1.
         11   -1    0    0    0    0 -0.00000000000E+00 -0.00000000000E+00 -0.18250000000E+03  0.18250000000E+03  0.00000000000E+00 0. -1.
        -11    1    1    2    0    0 -0.49443627010E+01  0.31027310377E+01  0.17784710995E+03  0.17794287898E+03  0.00000000000E+00 0.  1.
         11    1    1    2    0    0 -0.24022509777E+01 -0.28516347382E+01 -0.11333642088E+03  0.11339773776E+03  0.00000000000E+00 0. -1.
        -15    1    1    2    0    0  0.63530445266E+01 -0.62782994778E+00 -0.68682816827E+02  0.69001756510E+02  0.17770000000E+01 0. -1.
         15    1    1    2    0    0  0.99356915207E+00  0.37673364832E+00  0.41721277615E+01  0.46576267519E+01  0.17770000000E+01 0.  1.
</event>
<event>
 6    1  0.8353910E-003  0.1842811E+03  0.7546771E-02  0.1067046E+00
        -11   -1    0    0    0    0  0.00000000000E+00  0.00000000000E+00  0.18250000000E+03  0.18250000000E+03  0.00000000000E+00 0. -1.
         11   -1    0    0    0    0 -0.00000000000E+00 -0.00000000000E+00 -0.18250000000E+03  0.18250000000E+03  0.00000000000E+00 0. -1.
        -11    1    1    2    0    0 -0.18167435525E+01 -0.72105762210E+01  0.14815759135E+03  0.14834407585E+03  0.00000000000E+00 0. -1.
         11    1    1    2    0    0  0.11624282442E+01  0.21827628579E+01 -0.18070195751E+03  0.18071887876E+03  0.00000000000E+00 0. -1.
        -15    1    1    2    0    0 -0.56095612333E+00 -0.39154866389E+01  0.38310318882E+01  0.57862113442E+01  0.17770000000E+01 0.  1.
         15    1    1    2    0    0  0.12152714317E+01  0.89433000020E+01  0.28713334274E+02  0.30150834046E+02  0.17770000000E+01 0. -1.
</event>
<event>
 6    1  0.8353910E-003  0.1825507E+03  0.7546771E-02  0.1068414E+00
        -11   -1    0    0    0    0  0.00000000000E+00  0.00000000000E+00  0.18250000000E+03  0.18250000000E+03  0.00000000000E+00 0.  1.
         11   -1    0    0    0    0 -0.00000000000E+00 -0.00000000000E+00 -0.18250000000E+03  0.18250000000E+03  0.00000000000E+00 0. -1.
        -11    1    1    2    0    0  0.22870470106E+01  0.32031076063E+01  0.18240686085E+03  0.18244931726E+03  0.00000000000E+00 0.  1.
         11    1    1    2    0    0 -0.78686078330E+00  0.34476047003E+00 -0.26260130314E+02  0.26274178460E+02  0.00000000000E+00 0. -1.
        -15    1    1    2    0    0 -0.71440540252E+00 -0.15474998185E+01 -0.11891278593E+03  0.11893827608E+03  0.17770000000E+01 0. -1.
         15    1    1    2    0    0 -0.78578082478E+00 -0.20003682578E+01 -0.37233944615E+02  0.37338228202E+02  0.17770000000E+01 0. -1.
</event>
<event>
 6    1  0.8353910E-003  0.1836578E+03  0.7546771E-02  0.1067537E+00
        -11   -1    0    0    0    0  0.00000000000E+00  0.00000000000E+00  0.18250000000E+03  0.18250000000E+03  0.00000000000E+00 0. -1.
         11   -1    0    0    0    0 -0.00000000000E+00 -0.00000000000E+00 -0.18250000000E+03  0.18250000000E+03  0.00000000000E+00 0.  1.
        -11    1    1    2    0    0 -0.16529699761E+01  0.81784102022E+00  0.12181582114E+03  0.12182978065E+03  0.00000000000E+00 0. -1.
         11    1    1    2    0    0 -0.92891110661E+00 -0.23502431291E+01 -0.18132459708E+03  0.18134220696E+03  0.00000000000E+00 0.  1.
        -15    1    1    2    0    0  0.47969004256E+01  0.19690101926E+01  0.58539889439E+02  0.58795949175E+02  0.17770000000E+01 0.  1.
         15    1    1    2    0    0 -0.22150193430E+01 -0.43660808377E+00  0.96888649632E+00  0.30320632169E+01  0.17770000000E+01 0. -1.
</event>
<event>
 6    1  0.8353910E-003  0.1830722E+03  0.7546771E-02  0.1068000E+00
        -11   -1    0    0    0    0  0.00000000000E+00  0.00000000000E+00  0.18250000000E+03  0.18250000000E+03  0.00000000000E+00 0. -1.
         11   -1    0    0    0    0 -0.00000000000E+00 -0.00000000000E+00 -0.18250000000E+03  0.18250000000E+03  0.00000000000E+00 0. -1.
        -11    1    1    2    0    0 -0.12706252089E+01 -0.20494887447E+01  0.15989064130E+03  0.15990882423E+03  0.00000000000E+00 0. -1.
         11    1    1    2    0    0  0.24064336891E+01 -0.16287913778E+01 -0.18190456198E+03  0.18192777015E+03  0.00000000000E+00 0. -1.
        -15    1    1    2    0    0  0.15956897927E+01  0.29947580268E+01  0.13074057120E+02  0.13623637552E+02  0.17770000000E+01 0.  1.
         15    1    1    2    0    0 -0.27314982729E+01  0.68352209569E+00  0.89398635597E+01  0.95397680652E+01  0.17770000000E+01 0.  1.
</event>
<event>
 6    1  0.8353910E-003  0.1848333E+03  0.7546771E-02  0.1066613E+00
        -11   -1    0    0    0    0  0.00000000000E+00  0.00000000000E+00  0.18250000000E+03  0.18250000000E+03  0.00000000000E+00 0.  1.
         11   -1    0    0    0    0 -0.00000000000E+00 -0.00000000000E+00 -0.18250000000E+03  0.18250000000E+03  0.00000000000E+00 0.  1.
        -11    1    1    2    0    0 -0.41654041639E+01 -0.36117558013E+01  0.18008230401E+03  0.18016667725E+03  0.00000000000E+00 0.  1.
         11    1    1    2    0    0 -0.61394250638E+01  0.27261123400E+00 -0.90095044019E+02  0.90304395318E+02  0.00000000000E+00 0.  1.
        -15    1    1    2    0    0  0.59989257109E+01  0.36773140566E+01 -0.89543896841E+02  0.89837502964E+02  0.17770000000E+01 0. -1.
         15    1    1    2    0    0  0.43059035168E+01 -0.33816948937E+00 -0.44336315148E+00  0.46914244727E+01  0.17770000000E+01 0.  1.
</event>
<event>
 6    1  0.8353910E-003  0.1839023E+03  0.7546771E-02  0.1067344E+00
        -11   -1    0    0    0    0  0.00000000000E+00  0.00000000000E+00  0.18250000000E+03  0.18250000000E+03  0.00000000000E+00 0. -1.
         11   -1    0    0    0    0 -0.00000000000E+00 -0.00000000000E+00 -0.18250000000E+03  0.18250000000E+03  0.00000000000E+00 0.  1.
        -11    1    1    2    0    0 -0.13464072958E+01  0.20612343623E+01  0.18108092127E+03  0.18109765748E+03  0.00000000000E+00 0. -1.
         11    1    1    2    0    0  0.22636559222E+01  0.11516504750E+01 -0.17783226721E+03  0.17785040258E+03  0.00000000000E+00 0.  1.
        -15    1    1    2    0    0 -0.41240852451E+00 -0.80904928849E+00 -0.18184975885E+01  0.26998711121E+01  0.17770000000E+01 0. -1.
         15    1    1    2    0    0 -0.50484010182E+00 -0.24038355488E+01 -0.14301564657E+01  0.33520688225E+01  0.17770000000E+01 0. -1.
</event>
<event>
 6    1  0.8353910E-003  0.1840499E+03  0.7546771E-02  0.1067228E+00
        -11   -1    0    0    0    0  0.00000000000E+00  0.00000000000E+00  0.18250000000E+03  0.18250000000E+03  0.00000000000E+00 0. -1.
         11   -1    0    0    0    0 -0.00000000000E+00 -0.00000000000E+00 -0.18250000000E+03  0.18250000000E+03  0.00000000000E+00 0. -1.
        -11    1    1    2    0    0  0.76300527333E+00 -0.36394212057E+01  0.15981794142E+03  0.15986119593E+03  0.00000000000E+00 0. -1.
         11    1    1    2    0    0  0.21737486190E+01  0.42770840498E+01 -0.18088645800E+03  0.18095007411E+03  0.00000000000E+00 0. -1.
        -15    1    1    2    0    0 -0.15157956214E+01  0.44249229346E+01  0.15656300753E+02  0.16436394423E+02  0.17770000000E+01 0. -1.
         15    1    1    2    0    0 -0.14209582709E+01 -0.50625857786E+01  0.54122158269E+01  0.77523355404E+01  0.17770000000E+01 0. -1.
</event>
<event>
 6    1  0.8353910E-003  0.1880469E+03  0.7546771E-02  0.1064123E+00
        -11   -1    0    0    0    0  0.00000000000E+00  0.00000000000E+00  0.18250000000E+03  0.18250000000E+03  0.00000000000E+00 0.  1.
         11   -1    0    0    0    0 -0.00000000000E+00 -0.00000000000E+00 -0.18250000000E+03  0.18250000000E+03  0.00000000000E+00 0. -1.
        -11    1    1    2    0    0  0.49430189090E+01 -0.14610139604E+01  0.17687798866E+03  0.17695307533E+03  0.00000000000E+00 0.  1.
         11    1    1    2    0    0 -0.24469801897E+01 -0.69222387231E+01 -0.90933121081E+02  0.91229039294E+02  0.00000000000E+00 0. -1.
        -15    1    1    2    0    0  0.57304025766E+01 -0.13319995236E+01 -0.83509686615E+02  0.83735519488E+02  0.17770000000E+01 0. -1.
         15    1    1    2    0    0 -0.82264412960E+01  0.97152522071E+01 -0.24351809612E+01  0.13082365885E+02  0.17770000000E+01 0.  1.
</event>
<event>
 6    1  0.8353910E-003  0.1853535E+03  0.7546771E-02  0.1066206E+00
        -11   -1    0    0    0    0  0.00000000000E+00  0.00000000000E+00  0.18250000000E+03  0.18250000000E+03  0.00000000000E+00 0.  1.
         11   -1    0    0    0    0 -0.00000000000E+00 -0.00000000000E+00 -0.18250000000E+03  0.18250000000E+03  0.00000000000E+00 0. -1.
        -11    1    1    2    0    0 -0.71473046443E+00  0.28235658225E+01  0.15756562158E+03  0.15759253937E+03  0.00000000000E+00 0.  1.
         11    1    1    2    0    0  0.50375900129E+01 -0.24547839912E+01 -0.17955905540E+03  0.17964647966E+03  0.00000000000E+00 0. -1.
        -15    1    1    2    0    0  0.22123979118E+01  0.61617364459E+01  0.53385735790E+01  0.86324850076E+01  0.17770000000E+01 0. -1.
         15    1    1    2    0    0 -0.65352574602E+01 -0.65305182772E+01  0.16654860242E+02  0.19128495961E+02  0.17770000000E+01 0.  1.
</event>
<event>
 6    1  0.8353910E-003  0.1826930E+03  0.7546771E-02  0.1068301E+00
        -11   -1    0    0    0    0  0.00000000000E+00  0.00000000000E+00  0.18250000000E+03  0.18250000000E+03  0.00000000000E+00 0. -1.
         11   -1    0    0    0    0 -0.00000000000E+00 -0.00000000000E+00 -0.18250000000E+03  0.18250000000E+03  0.00000000000E+00 0. -1.
        -11    1    1    2    0    0 -0.22279606325E+01 -0.32810875150E+01  0.18226388735E+03  0.18230703216E+03  0.00000000000E+00 0. -1.
         11    1    1    2    0    0 -0.10362146555E+00  0.60925026343E+00 -0.41812446752E+02  0.41817013603E+02  0.00000000000E+00 0. -1.
        -15    1    1    2    0    0 -0.54397530601E+00  0.23440854089E+01 -0.11591502619E+02  0.11971270087E+02  0.17770000000E+01 0.  1.
         15    1    1    2    0    0  0.28755574041E+01  0.32775184271E+00 -0.12885993798E+03  0.12890468415E+03  0.17770000000E+01 0. -1.
</event>
<event>
 6    1  0.8353910E-003  0.1841330E+03  0.7546771E-02  0.1067162E+00
        -11   -1    0    0    0    0  0.00000000000E+00  0.00000000000E+00  0.18250000000E+03  0.18250000000E+03  0.00000000000E+00 0. -1.
         11   -1    0    0    0    0 -0.00000000000E+00 -0.00000000000E+00 -0.18250000000E+03  0.18250000000E+03  0.00000000000E+00 0.  1.
        -11    1    1    2    0    0 -0.48357002812E+00  0.56040975135E+01  0.18077955333E+03  0.18086704136E+03  0.00000000000E+00 0. -1.
         11    1    1    2    0    0 -0.16792983919E+01  0.44373697614E+00 -0.96642894247E+02  0.96658501716E+02  0.00000000000E+00 0.  1.
        -15    1    1    2    0    0  0.50255179193E+01 -0.10687329906E+02 -0.21652677093E+02  0.24727939768E+02  0.17770000000E+01 0.  1.
         15    1    1    2    0    0 -0.28626494994E+01  0.46394954164E+01 -0.62483981993E+02  0.62746517151E+02  0.17770000000E+01 0. -1.
</event>
<event>
 6    1  0.8353910E-003  0.1771445E+03  0.7546771E-02  0.1072800E+00
        -11   -1    0    0    0    0  0.00000000000E+00  0.00000000000E+00  0.18250000000E+03  0.18250000000E+03  0.00000000000E+00 0.  1.
         11   -1    0    0    0    0 -0.00000000000E+00 -0.00000000000E+00 -0.18250000000E+03  0.18250000000E+03  0.00000000000E+00 0. -1.
        -11    1    1    2    0    0  0.69357170898E+00  0.11945414289E-01 -0.12384683645E+00  0.70464348952E+00  0.00000000000E+00 0.  1.
         11    1    1    2    0    0  0.14595852847E+00  0.23800130895E+01 -0.17529862954E+03  0.17531484616E+03  0.00000000000E+00 0. -1.
        -15    1    1    2    0    0  0.60948652616E+01  0.34611714266E+01  0.17894093044E+03  0.17908696604E+03  0.17770000000E+01 0.  1.
         15    1    1    2    0    0 -0.69343954991E+01 -0.58531299304E+01 -0.35184540660E+01  0.98935443060E+01  0.17770000000E+01 0. -1.
</event>
<event>
 6    1  0.8353910E-003  0.1845399E+03  0.7546771E-02  0.1066843E+00
        -11   -1    0    0    0    0  0.00000000000E+00  0.00000000000E+00  0.18250000000E+03  0.18250000000E+03  0.00000000000E+00 0. -1.
         11   -1    0    0    0    0 -0.00000000000E+00 -0.00000000000E+00 -0.18250000000E+03  0.18250000000E+03  0.00000000000E+00 0. -1.
        -11    1    1    2    0    0  0.42891162049E+01  0.31968988586E+01  0.16419819642E+03  0.16428531398E+03  0.00000000000E+00 0. -1.
         11    1    1    2    0    0 -0.28592654462E+01  0.12703628667E+01 -0.18043301274E+03  0.18046013772E+03  0.00000000000E+00 0. -1.
        -15    1    1    2    0    0  0.44788243910E+00 -0.10514654663E+01 -0.11113356186E+01  0.23872524297E+01  0.17770000000E+01 0.  1.
         15    1    1    2    0    0 -0.18777331977E+01 -0.34157962591E+01  0.17346151930E+02  0.17867295874E+02  0.17770000000E+01 0. -1.
</event>
<event>
 6    1  0.1161004E-002  0.1933678E+03  0.7546771E-02  0.1060119E+00
        -11   -1    0    0    0    0  0.00000000000E+00  0.00000000000E+00  0.18250000000E+03  0.18250000000E+03  0.00000000000E+00 0.  1.
         11   -1    0    0    0    0 -0.00000000000E+00 -0.00000000000E+00 -0.18250000000E+03  0.18250000000E+03  0.00000000000E+00 0.  1.
        -11    1    1    2    0    0  0.14313933591E+01 -0.17367911496E+01  0.16613473527E+03  0.16614997922E+03  0.00000000000E+00 0.  1.
         11    1    1    2    0    0  0.29389390228E+01 -0.98028948564E+00 -0.17160426763E+03  0.17163223182E+03  0.00000000000E+00 0.  1.
        -15    1    1    2    0    0 -0.42405274389E+01  0.21891555709E+01  0.15862565871E+02  0.16659927974E+02  0.17770000000E+01 0.  1.
         15    1    1    2    0    0 -0.12980494287E+00  0.52792506435E+00 -0.10393033507E+02  0.10557860990E+02  0.17770000000E+01 0. -1.
</event>
<event>
 6    1  0.8353910E-003  0.1839020E+03  0.7546771E-02  0.1067344E+00
        -11   -1    0    0    0    0  0.00000000000E+00  0.00000000000E+00  0.18250000000E+03  0.18250000000E+03  0.00000000000E+00 0. -1.
         11   -1    0    0    0    0 -0.00000000000E+00 -0.00000000000E+00 -0.18250000000E+03  0.18250000000E+03  0.00000000000E+00 0.  1.
        -11    1    1    2    0    0  0.45266108199E+01 -0.98874871009E+00  0.16164339225E+03  0.16170978353E+03  0.00000000000E+00 0. -1.
         11    1    1    2    0    0  0.35015857354E+01  0.23746514179E+00 -0.18106403374E+03  0.18109804474E+03  0.00000000000E+00 0.  1.
        -15    1    1    2    0    0  0.98056122372E-01 -0.11363310960E+01  0.27612024766E+01  0.34760367489E+01  0.17770000000E+01 0. -1.
         15    1    1    2    0    0 -0.81262526778E+01  0.18876146643E+01  0.16659439012E+02  0.18716134988E+02  0.17770000000E+01 0.  1.
</event>
<event>
 6    1  0.8353910E-003  0.1867090E+03  0.7546771E-02  0.1065153E+00
        -11   -1    0    0    0    0  0.00000000000E+00  0.00000000000E+00  0.18250000000E+03  0.18250000000E+03  0.00000000000E+00 0. -1.
         11   -1    0    0    0    0 -0.00000000000E+00 -0.00000000000E+00 -0.18250000000E+03  0.18250000000E+03  0.00000000000E+00 0. -1.
        -11    1    1    2    0    0 -0.85337435088E+01 -0.18523615580E+01  0.17807706703E+03  0.17829104807E+03  0.00000000000E+00 0. -1.
         11    1    1    2    0    0  0.17140296422E+00  0.28930489251E+01 -0.17009894066E+03  0.17012362777E+03  0.00000000000E+00 0. -1.
        -15    1    1    2    0    0  0.72721772680E+01  0.13036887460E+01  0.43001348460E+00  0.76109662436E+01  0.17770000000E+01 0. -1.
         15    1    1    2    0    0  0.10901632766E+01 -0.23443761131E+01 -0.84081398476E+01  0.89743579172E+01  0.17770000000E+01 0. -1.
</event>
<event>
 6    1  0.8353910E-003  0.1900790E+03  0.7546771E-02  0.1062577E+00
        -11   -1    0    0    0    0  0.00000000000E+00  0.00000000000E+00  0.18250000000E+03  0.18250000000E+03  0.00000000000E+00 0. -1.
         11   -1    0    0    0    0 -0.00000000000E+00 -0.00000000000E+00 -0.18250000000E+03  0.18250000000E+03  0.00000000000E+00 0. -1.
        -11    1    1    2    0    0  0.21501556788E+01 -0.16125501377E+01  0.17490035244E+03  0.17492100152E+03  0.00000000000E+00 0. -1.
         11    1    1    2    0    0  0.38232395729E-01 -0.20340822807E+01 -0.11912254865E+03  0.11913992004E+03  0.00000000000E+00 0. -1.
        -15    1    1    2    0    0 -0.54456105635E+01 -0.65209910850E+01 -0.59008724545E+02  0.59643652642E+02  0.17770000000E+01 0.  1.
         15    1    1    2    0    0  0.32572224890E+01  0.10167623503E+02  0.32309207487E+01  0.11295425797E+02  0.17770000000E+01 0. -1.
</event>
<event>
 6    1  0.8353910E-003  0.1888110E+03  0.7546771E-02  0.1063539E+00
        -11   -1    0    0    0    0  0.00000000000E+00  0.00000000000E+00  0.18250000000E+03  0.18250000000E+03  0.00000000000E+00 0.  1.
         11   -1    0    0    0    0 -0.00000000000E+00 -0.00000000000E+00 -0.18250000000E+03  0.18250000000E+03  0.00000000000E+00 0.  1.
        -11    1    1    2    0    0  0.12133942134E+01  0.37036385041E+01  0.17614591284E+03  0.17618902314E+03  0.00000000000E+00 0.  1.
         11    1    1    2    0    0  0.49572345413E+01  0.12278631642E+01 -0.17058312627E+03  0.17065955816E+03  0.00000000000E+00 0.  1.
        -15    1    1    2    0    0 -0.30813609768E+01 -0.10262948415E+02 -0.36659133625E+01  0.11463836418E+02  0.17770000000E+01 0. -1.
         15    1    1    2    0    0 -0.30892677779E+01  0.53314467471E+01 -0.18968732131E+01  0.66875822842E+01  0.17770000000E+01 0.  1.
</event>
<event>
 6    1  0.8353910E-003  0.1826022E+03  0.7546771E-02  0.1068373E+00
        -11   -1    0    0    0    0  0.00000000000E+00  0.00000000000E+00  0.18250000000E+03  0.18250000000E+03  0.00000000000E+00 0.  1.
         11   -1    0    0    0    0 -0.00000000000E+00 -0.00000000000E+00 -0.18250000000E+03  0.18250000000E+03  0.00000000000E+00 0.  1.
        -11    1    1    2    0    0 -0.27631531646E+00 -0.10097847009E+01  0.48932532742E+02  0.48943730711E+02  0.00000000000E+00 0.  1.
         11    1    1    2    0    0 -0.38338022120E+01 -0.14164077284E+01 -0.18235198105E+03  0.18239777752E+03  0.00000000000E+00 0.  1.
        -15    1    1    2    0    0  0.81456650062E-01  0.25566927708E+01  0.34273935101E+02  0.34415166270E+02  0.17770000000E+01 0. -1.
         15    1    1    2    0    0  0.40286608783E+01 -0.13050034147E+00  0.99145513207E+02  0.99243325503E+02  0.17770000000E+01 0.  1.
</event>
<event>
 6    1  0.8353910E-003  0.1834954E+03  0.7546771E-02  0.1067665E+00
        -11   -1    0    0    0    0  0.00000000000E+00  0.00000000000E+00  0.18250000000E+03  0.18250000000E+03  0.00000000000E+00 0.  1.
         11   -1    0    0    0    0 -0.00000000000E+00 -0.00000000000E+00 -0.18250000000E+03  0.18250000000E+03  0.00000000000E+00 0. -1.
        -11    1    1    2    0    0 -0.70232114992E+01 -0.93303140235E+01  0.18112852818E+03  0.18150461146E+03  0.00000000000E+00 0.  1.
         11    1    1    2    0    0  0.34198382891E+01 -0.32137448306E+00 -0.10267820744E+03  0.10273564551E+03  0.00000000000E+00 0. -1.
        -15    1    1    2    0    0  0.69118672008E+00  0.81668688251E+01 -0.14879897975E+02  0.17080532141E+02  0.17770000000E+01 0.  1.
         15    1    1    2    0    0  0.29121864900E+01  0.14848196815E+01 -0.63570422763E+02  0.63679210885E+02  0.17770000000E+01 0. -1.
</event>
<event>
 6    1  0.8353910E-003  0.1586446E+03  0.7546771E-02  0.1089208E+00
        -11   -1    0    0    0    0  0.00000000000E+00  0.00000000000E+00  0.18250000000E+03  0.18250000000E+03  0.00000000000E+00 0. -1.
         11   -1    0    0    0    0 -0.00000000000E+00 -0.00000000000E+00 -0.18250000000E+03  0.18250000000E+03  0.00000000000E+00 0. -1.
        -11    1    1    2    0    0  0.91107207842E+00 -0.15534081734E+02  0.15596368862E+03  0.15673802958E+03  0.00000000000E+00 0. -1.
         11    1    1    2    0    0  0.39481360421E+01  0.46212543500E+01 -0.16069642031E+03  0.16081132817E+03  0.00000000000E+00 0. -1.
        -15    1    1    2    0    0  0.13753998448E+01  0.63678133396E+01  0.24892363179E+02  0.25792019019E+02  0.17770000000E+01 0.  1.
         15    1    1    2    0    0 -0.62346079654E+01  0.45450140446E+01 -0.20159631495E+02  0.21658623229E+02  0.17770000000E+01 0. -1.
</event>
<event>
 6    1  0.8353910E-003  0.1854626E+03  0.7546771E-02  0.1066121E+00
        -11   -1    0    0    0    0  0.00000000000E+00  0.00000000000E+00  0.18250000000E+03  0.18250000000E+03  0.00000000000E+00 0. -1.
         11   -1    0    0    0    0 -0.00000000000E+00 -0.00000000000E+00 -0.18250000000E+03  0.18250000000E+03  0.00000000000E+00 0. -1.
        -11    1    1    2    0    0 -0.16816834431E+01  0.23371753235E+01  0.17951429777E+03  0.17953738762E+03  0.00000000000E+00 0. -1.
         11    1    1    2    0    0  0.24132789195E+01  0.33353659742E+00 -0.16282855282E+03  0.16284677699E+03  0.00000000000E+00 0. -1.
        -15    1    1    2    0    0 -0.47257970962E+01 -0.68744338467E+01 -0.12905364467E+02  0.15469232688E+02  0.17770000000E+01 0. -1.
         15    1    1    2    0    0  0.39942016198E+01  0.42037219258E+01 -0.37803804837E+01  0.71466027041E+01  0.17770000000E+01 0. -1.
</event>
<event>
 6    1  0.8353910E-003  0.1832741E+03  0.7546771E-02  0.1067840E+00
        -11   -1    0    0    0    0  0.00000000000E+00  0.00000000000E+00  0.18250000000E+03  0.18250000000E+03  0.00000000000E+00 0. -1.
         11   -1    0    0    0    0 -0.00000000000E+00 -0.00000000000E+00 -0.18250000000E+03  0.18250000000E+03  0.00000000000E+00 0.  1.
        -11    1    1    2    0    0 -0.27667658032E+01  0.11028601166E+00  0.11732474398E+03  0.11735741436E+03  0.00000000000E+00 0. -1.
         11    1    1    2    0    0  0.92190583574E+00 -0.23954352223E+01 -0.18170780416E+03  0.18172593131E+03  0.00000000000E+00 0.  1.
        -15    1    1    2    0    0  0.52308276256E+00 -0.21651355888E+01  0.56663328082E+02  0.56734926685E+02  0.17770000000E+01 0. -1.
         15    1    1    2    0    0  0.13217772049E+01  0.44502847995E+01  0.77197320982E+01  0.91817276394E+01  0.17770000000E+01 0.  1.
</event>
<event>
 6    1  0.8353910E-003  0.1924165E+03  0.7546771E-02  0.1060824E+00
        -11   -1    0    0    0    0  0.00000000000E+00  0.00000000000E+00  0.18250000000E+03  0.18250000000E+03  0.00000000000E+00 0. -1.
         11   -1    0    0    0    0 -0.00000000000E+00 -0.00000000000E+00 -0.18250000000E+03  0.18250000000E+03  0.00000000000E+00 0. -1.
        -11    1    1    2    0    0 -0.22039639593E+02  0.14074858866E+01  0.17116466044E+03  0.17258350939E+03  0.00000000000E+00 0. -1.
         11    1    1    2    0    0  0.98261249098E+01 -0.40889379664E+01 -0.15787776503E+03  0.15823609208E+03  0.00000000000E+00 0. -1.
        -15    1    1    2    0    0 -0.92421676809E+01 -0.15853034341E+01 -0.40931974918E+01  0.10384740975E+02  0.17770000000E+01 0.  1.
         15    1    1    2    0    0  0.21455682364E+02  0.42667555140E+01 -0.91936979106E+01  0.23795657557E+02  0.17770000000E+01 0. -1.
</event>
<event>
 6    1  0.8353910E-003  0.1796925E+03  0.7546771E-02  0.1070712E+00
        -11   -1    0    0    0    0  0.00000000000E+00  0.00000000000E+00  0.18250000000E+03  0.18250000000E+03  0.00000000000E+00 0.  1.
         11   -1    0    0    0    0 -0.00000000000E+00 -0.00000000000E+00 -0.18250000000E+03  0.18250000000E+03  0.00000000000E+00 0. -1.
        -11    1    1    2    0    0  0.25328602174E+01  0.35986148634E+00  0.17948293448E+03  0.17950116616E+03  0.00000000000E+00 0.  1.
         11    1    1    2    0    0 -0.27260159193E+01  0.22411522014E+01 -0.17985889575E+03  0.17989351380E+03  0.00000000000E+00 0. -1.
        -15    1    1    2    0    0  0.10765444440E+01 -0.25831196399E+01  0.11001320504E+01  0.34927746195E+01  0.17770000000E+01 0.  1.
         15    1    1    2    0    0 -0.88338874216E+00 -0.17894047759E-01 -0.72417078424E+00  0.21125454294E+01  0.17770000000E+01 0.  1.
</event>
<event>
 6    1  0.8353910E-003  0.1872436E+03  0.7546771E-02  0.1064740E+00
        -11   -1    0    0    0    0  0.00000000000E+00  0.00000000000E+00  0.18250000000E+03  0.18250000000E+03  0.00000000000E+00 0. -1.
         11   -1    0    0    0    0 -0.00000000000E+00 -0.00000000000E+00 -0.18250000000E+03  0.18250000000E+03  0.00000000000E+00 0. -1.
        -11    1    1    2    0    0 -0.23029165421E+01  0.10291950631E+01  0.16250205906E+03  0.16252163507E+03  0.00000000000E+00 0. -1.
         11    1    1    2    0    0 -0.10901147986E+01  0.23417533021E+01 -0.17773765441E+03  0.17775642310E+03  0.00000000000E+00 0. -1.
        -15    1    1    2    0    0  0.27413029160E+01 -0.16008532554E+01 -0.39453909870E+01  0.53666853703E+01  0.17770000000E+01 0. -1.
         15    1    1    2    0    0  0.65172842465E+00 -0.17700951098E+01  0.19180986336E+02  0.19355256455E+02  0.17770000000E+01 0.  1.
</event>
<event>
 6    1  0.8353910E-003  0.1859784E+03  0.7546771E-02  0.1065719E+00
        -11   -1    0    0    0    0  0.00000000000E+00  0.00000000000E+00  0.18250000000E+03  0.18250000000E+03  0.00000000000E+00 0. -1.
         11   -1    0    0    0    0 -0.00000000000E+00 -0.00000000000E+00 -0.18250000000E+03  0.18250000000E+03  0.00000000000E+00 0.  1.
        -11    1    1    2    0    0  0.39255634117E+01  0.12798642795E+01  0.17897398780E+03  0.17902160878E+03  0.00000000000E+00 0. -1.
         11    1    1    2    0    0  0.50812011944E+01  0.55125797950E+01 -0.17100370552E+03  0.17116797143E+03  0.00000000000E+00 0.  1.
        -15    1    1    2    0    0 -0.79406682379E+01 -0.42100329195E+01 -0.55873585768E+01  0.10731024840E+02  0.17770000000E+01 0.  1.
         15    1    1    2    0    0 -0.10660963682E+01 -0.25824111551E+01 -0.23829237018E+01  0.40793949562E+01  0.17770000000E+01 0. -1.
</event>
<event>
 6    1  0.8353910E-003  0.1859389E+03  0.7546771E-02  0.1065750E+00
        -11   -1    0    0    0    0  0.00000000000E+00  0.00000000000E+00  0.18250000000E+03  0.18250000000E+03  0.00000000000E+00 0. -1.
         11   -1    0    0    0    0 -0.00000000000E+00 -0.00000000000E+00 -0.18250000000E+03  0.18250000000E+03  0.00000000000E+00 0.  1.
        -11    1    1    2    0    0 -0.59508259825E+01 -0.75311973571E+01  0.15993911570E+03  0.16022687663E+03  0.00000000000E+00 0. -1.
         11    1    1    2    0    0 -0.28412491660E+01  0.43853480594E+01 -0.17898487891E+03  0.17906113719E+03  0.00000000000E+00 0.  1.
        -15    1    1    2    0    0  0.90283502773E+01 -0.25012744111E+01  0.56976737425E+01  0.11108046520E+02  0.17770000000E+01 0.  1.
         15    1    1    2    0    0 -0.23627512881E+00  0.56471237087E+01  0.13348089466E+02  0.14603939658E+02  0.17770000000E+01 0. -1.
</event>
<event>
 6    1  0.1096473E-002  0.1847660E+03  0.7546771E-02  0.1066665E+00
        -11   -1    0    0    0    0  0.00000000000E+00  0.00000000000E+00  0.18250000000E+03  0.18250000000E+03  0.00000000000E+00 0. -1.
         11   -1    0    0    0    0 -0.00000000000E+00 -0.00000000000E+00 -0.18250000000E+03  0.18250000000E+03  0.00000000000E+00 0. -1.
        -11    1    1    2    0    0  0.14778483525E+01 -0.25699773176E+01  0.18020963164E+03  0.18023401497E+03  0.00000000000E+00 0. -1.
         11    1    1    2    0    0 -0.54262567541E+01 -0.45280141742E+01 -0.15644717762E+03  0.15660672578E+03  0.00000000000E+00 0. -1.
        -15    1    1    2    0    0  0.32997867582E+01  0.57410909345E+01 -0.24711696495E+02  0.25645163100E+02  0.17770000000E+01 0.  1.
         15    1    1    2    0    0  0.64862164327E+00  0.13569005573E+01  0.94924247775E+00  0.25140961477E+01  0.17770000000E+01 0. -1.
</event>
<event>
 6    1  0.8353910E-003  0.1945159E+03  0.7546771E-02  0.1059273E+00
        -11   -1    0    0    0    0  0.00000000000E+00  0.00000000000E+00  0.18250000000E+03  0.18250000000E+03  0.00000000000E+00 0.  1.
         11   -1    0    0    0    0 -0.00000000000E+00 -0.00000000000E+00 -0.18250000000E+03  0.18250000000E+03  0.00000000000E+00 0. -1.
        -11    1    1    2    0    0  0.50109222543E+01  0.55478065786E+01  0.17032011689E+03  0.17048410400E+03  0.00000000000E+00 0.  1.
         11    1    1    2    0    0  0.64566857967E+01 -0.23588933312E+01 -0.15754991613E+03  0.15769980736E+03  0.00000000000E+00 0. -1.
        -15    1    1    2    0    0 -0.11965461401E+02 -0.39468450054E+01 -0.23058404997E+02  0.26336241608E+02  0.17770000000E+01 0.  1.
         15    1    1    2    0    0  0.49785334947E+00  0.75793175804E+00  0.10288204235E+02  0.10479847035E+02  0.17770000000E+01 0. -1.
</event>
<event>
 6    1  0.8353910E-003  0.1829353E+03  0.7546771E-02  0.1068109E+00
        -11   -1    0    0    0    0  0.00000000000E+00  0.00000000000E+00  0.18250000000E+03  0.18250000000E+03  0.00000000000E+00 0.  1.
         11   -1    0    0    0    0 -0.00000000000E+00 -0.00000000000E+00 -0.18250000000E+03  0.18250000000E+03  0.00000000000E+00 0.  1.
        -11    1    1    2    0    0  0.44318912306E+01  0.16915176220E+01  0.18200287379E+03  0.18206468345E+03  0.00000000000E+00 0.  1.
         11    1    1    2    0    0  0.67731029509E+00  0.32514269571E+01 -0.10400912474E+03  0.10406213796E+03  0.00000000000E+00 0.  1.
        -15    1    1    2    0    0 -0.65622507750E+01 -0.16612709077E+01 -0.34970536487E+02  0.35663974925E+02  0.17770000000E+01 0.  1.
         15    1    1    2    0    0  0.14530492494E+01 -0.32816736715E+01 -0.43023212558E+02  0.43209203673E+02  0.17770000000E+01 0.  1.
</event>
<event>
 6    1  0.8353910E-003  0.1846963E+03  0.7546771E-02  0.1066720E+00
        -11   -1    0    0    0    0  0.00000000000E+00  0.00000000000E+00  0.18250000000E+03  0.18250000000E+03  0.00000000000E+00 0. -1.
         11   -1    0    0    0    0 -0.00000000000E+00 -0.00000000000E+00 -0.18250000000E+03  0.18250000000E+03  0.00000000000E+00 0. -1.
        -11    1    1    2    0    0 -0.38470927986E+00  0.54290850674E+01  0.18022156902E+03  0.18030373514E+03  0.00000000000E+00 0. -1.
         11    1    1    2    0    0  0.46836246575E+01 -0.17314547382E+01 -0.81955102201E+02  0.82107082838E+02  0.00000000000E+00 0. -1.
        -15    1    1    2    0    0 -0.75126189119E+01 -0.10633628750E+02 -0.20002122025E+02  0.23932323703E+02  0.17770000000E+01 0.  1.
         15    1    1    2    0    0  0.32137035342E+01  0.69359984207E+01 -0.78264344797E+02  0.78656858315E+02  0.17770000000E+01 0. -1.
</event>
<event>
 6    1  0.8353910E-003  0.1887862E+03  0.7546771E-02  0.1063558E+00
        -11   -1    0    0    0    0  0.00000000000E+00  0.00000000000E+00  0.18250000000E+03  0.18250000000E+03  0.00000000000E+00 0. -1.
         11   -1    0    0    0    0 -0.00000000000E+00 -0.00000000000E+00 -0.18250000000E+03  0.18250000000E+03  0.00000000000E+00 0.  1.
        -11    1    1    2    0    0 -0.13618982046E+01  0.72889356330E+01  0.16919169868E+03  0.16935410905E+03  0.00000000000E+00 0. -1.
         11    1    1    2    0    0  0.93858894561E+00 -0.75229352410E+01 -0.17605066149E+03  0.17621382157E+03  0.00000000000E+00 0.  1.
        -15    1    1    2    0    0  0.43503431625E+01  0.65039825484E+01  0.84564816061E+01  0.11657490501E+02  0.17770000000E+01 0.  1.
         15    1    1    2    0    0 -0.39270339035E+01 -0.62699829404E+01 -0.15975188039E+01  0.77745788748E+01  0.17770000000E+01 0. -1.
</event>
<event>
 6    1  0.8353910E-003  0.1825900E+03  0.7546771E-02  0.1068383E+00
        -11   -1    0    0    0    0  0.00000000000E+00  0.00000000000E+00  0.18250000000E+03  0.18250000000E+03  0.00000000000E+00 0.  1.
         11   -1    0    0    0    0 -0.00000000000E+00 -0.00000000000E+00 -0.18250000000E+03  0.18250000000E+03  0.00000000000E+00 0. -1.
        -11    1    1    2    0    0  0.25803033979E+01  0.20230614843E+01  0.18238052104E+03  0.18240999205E+03  0.00000000000E+00 0.  1.
         11    1    1    2    0    0 -0.10515638873E+01  0.18397994272E+01 -0.75145726390E+02  0.75175600052E+02  0.00000000000E+00 0. -1.
        -15    1    1    2    0    0  0.79795988238E-01 -0.12469154887E+01 -0.22303915832E+02  0.22409452382E+02  0.17770000000E+01 0.  1.
         15    1    1    2    0    0 -0.16085354989E+01 -0.26159454229E+01 -0.84930878819E+02  0.85004955520E+02  0.17770000000E+01 0. -1.
</event>
<event>
 6    1  0.8353910E-003  0.2013612E+03  0.7546771E-02  0.1054360E+00
        -11   -1    0    0    0    0  0.00000000000E+00  0.00000000000E+00  0.18250000000E+03  0.18250000000E+03  0.00000000000E+00 0. -1.
         11   -1    0    0    0    0 -0.00000000000E+00 -0.00000000000E+00 -0.18250000000E+03  0.18250000000E+03  0.00000000000E+00 0.  1.
        -11    1    1    2    0    0 -0.31940200604E+01  0.15264031099E+00  0.16360753290E+03  0.16363877867E+03  0.00000000000E+00 0. -1.
         11    1    1    2    0    0 -0.24374208839E+01  0.95223354048E+00 -0.14436998363E+03  0.14439369772E+03  0.00000000000E+00 0.  1.
        -15    1    1    2    0    0  0.23618624907E+01  0.33466657754E+01  0.18375198831E+02  0.18909897602E+02  0.17770000000E+01 0. -1.
         15    1    1    2    0    0  0.32695784536E+01 -0.44515396269E+01 -0.37612748105E+02  0.38057626007E+02  0.17770000000E+01 0.  1.
</event>
<event>
 6    1  0.8353910E-003  0.1933036E+03  0.7546771E-02  0.1060166E+00
        -11   -1    0    0    0    0  0.00000000000E+00  0.00000000000E+00  0.18250000000E+03  0.18250000000E+03  0.00000000000E+00 0. -1.
         11   -1    0    0    0    0 -0.00000000000E+00 -0.00000000000E+00 -0.18250000000E+03  0.18250000000E+03  0.00000000000E+00 0.  1.
        -11    1    1    2    0    0  0.42965409816E+01 -0.46166863046E+01  0.17158057471E+03  0.17169644049E+03  0.00000000000E+00 0. -1.
         11    1    1    2    0    0 -0.77196581998E+00 -0.34955623682E+01 -0.16556364099E+03  0.16560233726E+03  0.00000000000E+00 0.  1.
        -15    1    1    2    0    0 -0.67418839496E+01  0.13249311118E+02 -0.11857287118E+02  0.19098435305E+02  0.17770000000E+01 0.  1.
         15    1    1    2    0    0  0.32173087880E+01 -0.51370624455E+01  0.58403533993E+01  0.86027869458E+01  0.17770000000E+01 0. -1.
</event>
<event>
 6    1  0.8353910E-003  0.1840420E+03  0.7546771E-02  0.1067234E+00
        -11   -1    0    0    0    0  0.00000000000E+00  0.00000000000E+00  0.18250000000E+03  0.18250000000E+03  0.00000000000E+00 0. -1.
         11   -1    0    0    0    0 -0.00000000000E+00 -0.00000000000E+00 -0.18250000000E+03  0.18250000000E+03  0.00000000000E+00 0. -1.
        -11    1    1    2    0    0 -0.13868806020E+01 -0.60941269455E+01  0.18085003866E+03  0.18095800149E+03  0.00000000000E+00 0. -1.
         11    1    1    2    0    0  0.21535660809E+01 -0.20870897934E+01 -0.14467071384E+03  0.14470179417E+03  0.00000000000E+00 0. -1.
        -15    1    1    2    0    0  0.19667655268E+01 -0.25058852014E+01 -0.47846237692E+01  0.60164757868E+01  0.17770000000E+01 0. -1.
         15    1    1    2    0    0 -0.27334510057E+01  0.10687101940E+02 -0.31394701044E+02  0.33323728557E+02  0.17770000000E+01 0. -1.
</event>
<event>
 6    1  0.8353910E-003  0.1831687E+03  0.7546771E-02  0.1067924E+00
        -11   -1    0    0    0    0  0.00000000000E+00  0.00000000000E+00  0.18250000000E+03  0.18250000000E+03  0.00000000000E+00 0. -1.
         11   -1    0    0    0    0 -0.00000000000E+00 -0.00000000000E+00 -0.18250000000E+03  0.18250000000E+03  0.00000000000E+00 0.  1.
        -11    1    1    2    0    0  0.76406244263E+01  0.74901921473E+01  0.18151624792E+03  0.18183132397E+03  0.00000000000E+00 0. -1.
         11    1    1    2    0    0  0.25882517269E+01 -0.26833155225E+00 -0.85980228086E+02  0.86019594689E+02  0.00000000000E+00 0.  1.
        -15    1    1    2    0    0 -0.48101029226E+01 -0.62327236806E+01 -0.22860129458E+02  0.24243085250E+02  0.17770000000E+01 0.  1.
         15    1    1    2    0    0 -0.54187732306E+01 -0.98913691447E+00 -0.72675890372E+02  0.72905996088E+02  0.17770000000E+01 0. -1.
</event>
<event>
 6    1  0.9961849E-003  0.1862452E+03  0.7546771E-02  0.1065512E+00
        -11   -1    0    0    0    0  0.00000000000E+00  0.00000000000E+00  0.18250000000E+03  0.18250000000E+03  0.00000000000E+00 0.  1.
         11   -1    0    0    0    0 -0.00000000000E+00 -0.00000000000E+00 -0.18250000000E+03  0.18250000000E+03  0.00000000000E+00 0. -1.
        -11    1    1    2    0    0 -0.23959465740E+01  0.10550703560E+01  0.17873567065E+03  0.17875484244E+03  0.00000000000E+00 0.  1.
         11    1    1    2    0    0  0.29201457508E+01 -0.32664171142E+01 -0.15798094451E+03  0.15804168932E+03  0.00000000000E+00 0. -1.
        -15    1    1    2    0    0 -0.32845453400E+01  0.40222825560E+01 -0.23125267675E+02  0.23767682451E+02  0.17770000000E+01 0.  1.
         15    1    1    2    0    0  0.27603461633E+01 -0.18109357978E+01  0.23705415386E+01  0.44357857919E+01  0.17770000000E+01 0.  1.
</event>
<event>
 6    1  0.8353910E-003  0.1825917E+03  0.7546771E-02  0.1068382E+00
        -11   -1    0    0    0    0  0.00000000000E+00  0.00000000000E+00  0.18250000000E+03  0.18250000000E+03  0.00000000000E+00 0.  1.
         11   -1    0    0    0    0 -0.00000000000E+00 -0.00000000000E+00 -0.18250000000E+03  0.18250000000E+03  0.00000000000E+00 0.  1.
        -11    1    1    2    0    0 -0.18790923930E+01  0.38811848890E+01  0.18235732685E+03  0.18240830365E+03  0.00000000000E+00 0.  1.
         11    1    1    2    0    0 -0.62965430853E+00 -0.34979977618E+01 -0.10494530092E+03  0.10500546956E+03  0.00000000000E+00 0.  1.
        -15    1    1    2    0    0  0.19312009255E+01  0.90027089036E+00 -0.51731389462E+02  0.51805737224E+02  0.17770000000E+01 0. -1.
         15    1    1    2    0    0  0.57754577593E+00 -0.12834580176E+01 -0.25680636471E+02  0.25780489564E+02  0.17770000000E+01 0.  1.
</event>
<event>
 6    1  0.8353910E-003  0.1826387E+03  0.7546771E-02  0.1068344E+00
        -11   -1    0    0    0    0  0.00000000000E+00  0.00000000000E+00  0.18250000000E+03  0.18250000000E+03  0.00000000000E+00 0.  1.
         11   -1    0    0    0    0 -0.00000000000E+00 -0.00000000000E+00 -0.18250000000E+03  0.18250000000E+03  0.00000000000E+00 0. -1.
        -11    1    1    2    0    0 -0.55519582148E+01 -0.33047966743E+01  0.18224676684E+03  0.18236126218E+03  0.00000000000E+00 0.  1.
         11    1    1    2    0    0 -0.46056516094E+00  0.15319063928E+01 -0.10328442610E+03  0.10329681279E+03  0.00000000000E+00 0. -1.
        -15    1    1    2    0    0  0.22509103833E+01  0.19738663165E+01 -0.29557233534E+02  0.29761561266E+02  0.17770000000E+01 0.  1.
         15    1    1    2    0    0  0.37616129924E+01 -0.20097603494E+00 -0.49405107210E+02  0.49580363766E+02  0.17770000000E+01 0. -1.
</event>
<event>
 6    1  0.8353910E-003  0.1829871E+03  0.7546771E-02  0.1068068E+00
        -11   -1    0    0    0    0  0.00000000000E+00  0.00000000000E+00  0.18250000000E+03  0.18250000000E+03  0.00000000000E+00 0. -1.
         11   -1    0    0    0    0 -0.00000000000E+00 -0.00000000000E+00 -0.18250000000E+03  0.18250000000E+03  0.00000000000E+00 0.  1.
        -11    1    1    2    0    0 -0.14650529555E+01 -0.17227021121E+01  0.15227996328E+03  0.15229675407E+03  0.00000000000E+00 0. -1.
         11    1    1    2    0    0  0.47721490896E+01 -0.76922227718E+00 -0.18194867480E+03  0.18201287144E+03  0.00000000000E+00 0.  1.
        -15    1    1    2    0    0 -0.44040913769E+01  0.65821901765E+00  0.14586484687E+02  0.15354235170E+02  0.17770000000E+01 0. -1.
         15    1    1    2    0    0  0.10969952428E+01  0.18337053716E+01  0.15082226832E+02  0.15336139318E+02  0.17770000000E+01 0.  1.
</event>
<event>
 6    1  0.8353910E-003  0.1845133E+03  0.7546771E-02  0.1066863E+00
        -11   -1    0    0    0    0  0.00000000000E+00  0.00000000000E+00  0.18250000000E+03  0.18250000000E+03  0.00000000000E+00 0.  1.
         11   -1    0    0    0    0 -0.00000000000E+00 -0.00000000000E+00 -0.18250000000E+03  0.18250000000E+03  0.00000000000E+00 0. -1.
        -11    1    1    2    0    0  0.41378539473E+01  0.30608416900E+00  0.18043897092E+03  0.18048666917E+03  0.00000000000E+00 0.  1.
         11    1    1    2    0    0 -0.25796777917E+01 -0.99379194343E+00 -0.51709010277E+02  0.51782855307E+02  0.00000000000E+00 0. -1.
        -15    1    1    2    0    0 -0.53117715933E+01  0.46859191747E+01 -0.49636166068E+01  0.88299476098E+01  0.17770000000E+01 0.  1.
         15    1    1    2    0    0  0.37535954378E+01 -0.39982114003E+01 -0.12376634403E+03  0.12390052791E+03  0.17770000000E+01 0. -1.
</event>
<event>
 6    1  0.8353910E-003  0.1834975E+03  0.7546771E-02  0.1067664E+00
        -11   -1    0    0    0    0  0.00000000000E+00  0.00000000000E+00  0.18250000000E+03  0.18250000000E+03  0.00000000000E+00 0.  1.
         11   -1    0    0    0    0 -0.00000000000E+00 -0.00000000000E+00 -0.18250000000E+03  0.18250000000E+03  0.00000000000E+00 0. -1.
        -11    1    1    2    0    0  0.19123511101E+01 -0.21804712752E+01  0.12892944327E+03  0.12896205986E+03  0.00000000000E+00 0.  1.
         11    1    1    2    0    0 -0.74821892501E+01 -0.46666356351E+01 -0.18128811973E+03  0.18150246004E+03  0.00000000000E+00 0. -1.
        -15    1    1    2    0    0  0.20384899462E+01  0.19447193506E-01  0.38449875586E+02  0.38544863225E+02  0.17770000000E+01 0.  1.
         15    1    1    2    0    0  0.35313481938E+01  0.68276597168E+01  0.13908800873E+02  0.15990616874E+02  0.17770000000E+01 0. -1.
</event>
<event>
 6    1  0.8353910E-003  0.1893673E+03  0.7546771E-02  0.1063116E+00
        -11   -1    0    0    0    0  0.00000000000E+00  0.00000000000E+00  0.18250000000E+03  0.18250000000E+03  0.00000000000E+00 0.  1.
         11   -1    0    0    0    0 -0.00000000000E+00 -0.00000000000E+00 -0.18250000000E+03  0.18250000000E+03  0.00000000000E+00 0.  1.
        -11    1    1    2    0    0 -0.32819767887E+01 -0.50418530272E+00  0.15850435296E+03  0.15853912919E+03  0.00000000000E+00 0.  1.
         11    1    1    2    0    0 -0.49479371897E+01 -0.13178612707E+02 -0.17506765379E+03  0.17563268864E+03  0.00000000000E+00 0.  1.
        -15    1    1    2    0    0 -0.16385907996E+01  0.10221070273E+02  0.17252283347E+02  0.20197877785E+02  0.17770000000E+01 0. -1.
         15    1    1    2    0    0  0.98685047780E+01  0.34617277369E+01 -0.68898252042E+00  0.10630304388E+02  0.17770000000E+01 0.  1.
</event>
<event>
 6    1  0.8353910E-003  0.1695380E+03  0.7546771E-02  0.1079268E+00
        -11   -1    0    0    0    0  0.00000000000E+00  0.00000000000E+00  0.18250000000E+03  0.18250000000E+03  0.00000000000E+00 0. -1.
         11   -1    0    0    0    0 -0.00000000000E+00 -0.00000000000E+00 -0.18250000000E+03  0.18250000000E+03  0.00000000000E+00 0. -1.
        -11    1    1    2    0    0  0.32692633300E+01 -0.77731964937E+01  0.17006513971E+03  0.17027408027E+03  0.00000000000E+00 0. -1.
         11    1    1    2    0    0  0.13923029132E+02 -0.32334797473E+01 -0.16881421725E+03  0.16941825781E+03  0.00000000000E+00 0. -1.
        -15    1    1    2    0    0  0.18935698216E+01  0.16788817618E+01 -0.24666243757E+01  0.39555297307E+01  0.17770000000E+01 0.  1.
         15    1    1    2    0    0 -0.19085862284E+02  0.93277944792E+01  0.12157019133E+01  0.21352132191E+02  0.17770000000E+01 0. -1.
</event>
<event>
 6    1  0.8353910E-003  0.1856462E+03  0.7546771E-02  0.1065978E+00
        -11   -1    0    0    0    0  0.00000000000E+00  0.00000000000E+00  0.18250000000E+03  0.18250000000E+03  0.00000000000E+00 0.  1.
         11   -1    0    0    0    0 -0.00000000000E+00 -0.00000000000E+00 -0.18250000000E+03  0.18250000000E+03  0.00000000000E+00 0.  1.
        -11    1    1    2    0    0 -0.55670484668E+00  0.29774259389E+01  0.16932928222E+03  0.16935637219E+03  0.00000000000E+00 0.  1.
         11    1    1    2    0    0  0.80453606909E+01  0.28728532330E+01 -0.17915018203E+03  0.17935375334E+03  0.00000000000E+00 0.  1.
        -15    1    1    2    0    0 -0.66277576224E+01 -0.66988503168E+01  0.45834495651E+01  0.10628617294E+02  0.17770000000E+01 0.  1.
         15    1    1    2    0    0 -0.86089822178E+00  0.84857114488E+00  0.52374502441E+01  0.56612571744E+01  0.17770000000E+01 0. -1.
</event>
<event>
 6    1  0.8353910E-003  0.1838609E+03  0.7546771E-02  0.1067377E+00
        -11   -1    0    0    0    0  0.00000000000E+00  0.00000000000E+00  0.18250000000E+03  0.18250000000E+03  0.00000000000E+00 0.  1.
         11   -1    0    0    0    0 -0.00000000000E+00 -0.00000000000E+00 -0.18250000000E+03  0.18250000000E+03  0.00000000000E+00 0. -1.
        -11    1    1    2    0    0 -0.45768640141E+01  0.19827428594E+01  0.15410814088E+03  0.15418883890E+03  0.00000000000E+00 0.  1.
         11    1    1    2    0    0 -0.33700971356E+01 -0.19365045277E+01 -0.18109739235E+03  0.18113909882E+03  0.00000000000E+00 0. -1.
        -15    1    1    2    0    0  0.19026118356E+01  0.33794928514E+01  0.15929248078E+02  0.16490590561E+02  0.17770000000E+01 0. -1.
         15    1    1    2    0    0  0.60443493141E+01 -0.34257311830E+01  0.11060003391E+02  0.13181471723E+02  0.17770000000E+01 0.  1.
</event>
<event>
 6    1  0.8353910E-003  0.1884152E+03  0.7546771E-02  0.1063841E+00
        -11   -1    0    0    0    0  0.00000000000E+00  0.00000000000E+00  0.18250000000E+03  0.18250000000E+03  0.00000000000E+00 0. -1.
         11   -1    0    0    0    0 -0.00000000000E+00 -0.00000000000E+00 -0.18250000000E+03  0.18250000000E+03  0.00000000000E+00 0.  1.
        -11    1    1    2    0    0  0.22198606626E+01 -0.12070179512E+01  0.17290276192E+03  0.17292122412E+03  0.00000000000E+00 0. -1.
         11    1    1    2    0    0  0.59220216551E-01 -0.30444909900E+01 -0.17655858648E+03  0.17658484332E+03  0.00000000000E+00 0.  1.
        -15    1    1    2    0    0 -0.62872271157E+01  0.31464522258E+00 -0.24720117241E+01  0.69926244990E+01  0.17770000000E+01 0. -1.
         15    1    1    2    0    0  0.40081462365E+01  0.39368637186E+01  0.61278362839E+01  0.85013080591E+01  0.17770000000E+01 0.  1.
</event>
<event>
 6    1  0.8353910E-003  0.1866255E+03  0.7546771E-02  0.1065218E+00
        -11   -1    0    0    0    0  0.00000000000E+00  0.00000000000E+00  0.18250000000E+03  0.18250000000E+03  0.00000000000E+00 0. -1.
         11   -1    0    0    0    0 -0.00000000000E+00 -0.00000000000E+00 -0.18250000000E+03  0.18250000000E+03  0.00000000000E+00 0. -1.
        -11    1    1    2    0    0 -0.53542704211E+00  0.14350605129E+01  0.10300150984E+03  0.10301289778E+03  0.00000000000E+00 0. -1.
         11    1    1    2    0    0  0.66344172392E+01  0.21047105212E+01 -0.17823867271E+03  0.17837452102E+03  0.00000000000E+00 0. -1.
        -15    1    1    2    0    0 -0.85041441922E+00  0.26166713956E+01  0.75258376050E+02  0.75329616145E+02  0.17770000000E+01 0. -1.
         15    1    1    2    0    0 -0.52485757778E+01 -0.61564424298E+01 -0.21213179172E-01  0.82829650540E+01  0.17770000000E+01 0.  1.
</event>
<event>
 6    1  0.8353910E-003  0.1855342E+03  0.7546771E-02  0.1066065E+00
        -11   -1    0    0    0    0  0.00000000000E+00  0.00000000000E+00  0.18250000000E+03  0.18250000000E+03  0.00000000000E+00 0.  1.
         11   -1    0    0    0    0 -0.00000000000E+00 -0.00000000000E+00 -0.18250000000E+03  0.18250000000E+03  0.00000000000E+00 0.  1.
        -11    1    1    2    0    0 -0.21074123682E+01  0.14934789212E+01  0.17499525055E+03  0.17501431193E+03  0.00000000000E+00 0.  1.
         11    1    1    2    0    0 -0.38929072028E+00  0.33330989636E+01 -0.17943446012E+03  0.17946583679E+03  0.00000000000E+00 0.  1.
        -15    1    1    2    0    0 -0.11453653852E+00 -0.38058513555E+01  0.56020142300E+01  0.70027077329E+01  0.17770000000E+01 0.  1.
         15    1    1    2    0    0  0.26112396270E+01 -0.10207265293E+01 -0.11628046630E+01  0.35171435458E+01  0.17770000000E+01 0. -1.
</event>
<event>
 6    1  0.8353910E-003  0.1251460E+03  0.7546771E-02  0.1126290E+00
        -11   -1    0    0    0    0  0.00000000000E+00  0.00000000000E+00  0.18250000000E+03  0.18250000000E+03  0.00000000000E+00 0. -1.
         11   -1    0    0    0    0 -0.00000000000E+00 -0.00000000000E+00 -0.18250000000E+03  0.18250000000E+03  0.00000000000E+00 0.  1.
        -11    1    1    2    0    0  0.10345711389E+02  0.68895769136E+01  0.36385696467E+02  0.38450213544E+02  0.00000000000E+00 0. -1.
         11    1    1    2    0    0 -0.13633686199E+00  0.24759043411E+01 -0.10963249026E+03  0.10966052895E+03  0.00000000000E+00 0.  1.
        -15    1    1    2    0    0 -0.23054828079E+02 -0.10429579105E+02 -0.69275811456E+02  0.73773958820E+02  0.17770000000E+01 0.  1.
         15    1    1    2    0    0  0.12845453552E+02  0.10640978501E+01  0.14252260525E+03  0.14311529868E+03  0.17770000000E+01 0. -1.
</event>
<event>
 6    1  0.8353910E-003  0.1875937E+03  0.7546771E-02  0.1064471E+00
        -11   -1    0    0    0    0  0.00000000000E+00  0.00000000000E+00  0.18250000000E+03  0.18250000000E+03  0.00000000000E+00 0.  1.
         11   -1    0    0    0    0 -0.00000000000E+00 -0.00000000000E+00 -0.18250000000E+03  0.18250000000E+03  0.00000000000E+00 0. -1.
        -11    1    1    2    0    0  0.30859980834E+01  0.27733493995E+01  0.17735780001E+03  0.17740632479E+03  0.00000000000E+00 0.  1.
         11    1    1    2    0    0  0.38827259904E+01  0.39624088700E+01 -0.12831992221E+03  0.12843978621E+03  0.00000000000E+00 0. -1.
        -15    1    1    2    0    0 -0.23406371167E+01  0.24486847433E+01 -0.48555296752E+02  0.48705741045E+02  0.17770000000E+01 0.  1.
         15    1    1    2    0    0 -0.46280869571E+01 -0.91844430127E+01 -0.48258104777E+00  0.10448147960E+02  0.17770000000E+01 0. -1.
</event>
<event>
 6    1  0.1207452E-002  0.1828963E+03  0.7546771E-02  0.1068140E+00
        -11   -1    0    0    0    0  0.00000000000E+00  0.00000000000E+00  0.18250000000E+03  0.18250000000E+03  0.00000000000E+00 0. -1.
         11   -1    0    0    0    0 -0.00000000000E+00 -0.00000000000E+00 -0.18250000000E+03  0.18250000000E+03  0.00000000000E+00 0.  1.
        -11    1    1    2    0    0 -0.11857675262E+01 -0.29986209846E-01  0.86787744458E+02  0.86795849739E+02  0.00000000000E+00 0. -1.
         11    1    1    2    0    0  0.54395556808E+01 -0.15970202660E+01 -0.18201547258E+03  0.18210373829E+03  0.00000000000E+00 0.  1.
        -15    1    1    2    0    0  0.14501319617E+00 -0.11231093220E+01  0.77839184641E+02  0.77867700607E+02  0.17770000000E+01 0. -1.
         15    1    1    2    0    0 -0.43988013507E+01  0.27501157979E+01  0.17388543484E+02  0.18232711365E+02  0.17770000000E+01 0.  1.
</event>
<event>
 6    1  0.8353910E-003  0.1831834E+03  0.7546771E-02  0.1067912E+00
        -11   -1    0    0    0    0  0.00000000000E+00  0.00000000000E+00  0.18250000000E+03  0.18250000000E+03  0.00000000000E+00 0.  1.
         11   -1    0    0    0    0 -0.00000000000E+00 -0.00000000000E+00 -0.18250000000E+03  0.18250000000E+03  0.00000000000E+00 0.  1.
        -11    1    1    2    0    0  0.31214802270E+01  0.26003871570E+01  0.39782705429E+02  0.39989614945E+02  0.00000000000E+00 0.  1.
         11    1    1    2    0    0  0.21469930740E+01  0.60999724167E+01 -0.18170156788E+03  0.18181660819E+03  0.00000000000E+00 0.  1.
        -15    1    1    2    0    0 -0.81020135115E+01 -0.76482703617E+01  0.13466664669E+03  0.13513845538E+03  0.17770000000E+01 0.  1.
         15    1    1    2    0    0  0.28335402105E+01 -0.10520892121E+01  0.72522157614E+01  0.80553214886E+01  0.17770000000E+01 0. -1.
</event>
<event>
 6    1  0.8353910E-003  0.1828385E+03  0.7546771E-02  0.1068186E+00
        -11   -1    0    0    0    0  0.00000000000E+00  0.00000000000E+00  0.18250000000E+03  0.18250000000E+03  0.00000000000E+00 0. -1.
         11   -1    0    0    0    0 -0.00000000000E+00 -0.00000000000E+00 -0.18250000000E+03  0.18250000000E+03  0.00000000000E+00 0.  1.
        -11    1    1    2    0    0  0.13096084998E+01  0.27754247727E+01  0.18213564917E+03  0.18216150185E+03  0.00000000000E+00 0. -1.
         11    1    1    2    0    0 -0.43163700634E+01 -0.17852506120E+01 -0.12863750652E+03  0.12872228344E+03  0.00000000000E+00 0.  1.
        -15    1    1    2    0    0  0.46697834273E+01 -0.28790565264E+00 -0.24397442136E+02  0.24905474875E+02  0.17770000000E+01 0.  1.
         15    1    1    2    0    0 -0.16630218637E+01 -0.70226850801E+00 -0.29100700506E+02  0.29210739835E+02  0.17770000000E+01 0. -1.
</event>
<event>
 6    1  0.8353910E-003  0.1854378E+03  0.7546771E-02  0.1066140E+00
        -11   -1    0    0    0    0  0.00000000000E+00  0.00000000000E+00  0.18250000000E+03  0.18250000000E+03  0.00000000000E+00 0. -1.
         11   -1    0    0    0    0 -0.00000000000E+00 -0.00000000000E+00 -0.18250000000E+03  0.18250000000E+03  0.00000000000E+00 0. -1.
        -11    1    1    2    0    0  0.26720586457E+01  0.51134097732E+00  0.17954157870E+03  0.17956218936E+03  0.00000000000E+00 0. -1.
         11    1    1    2    0    0 -0.25041314828E+01  0.24061175769E+01 -0.15653976300E+03  0.15657827907E+03  0.00000000000E+00 0. -1.
        -15    1    1    2    0    0 -0.11132304943E+00 -0.56100445257E+00 -0.25143390207E+02  0.25212594451E+02  0.17770000000E+01 0. -1.
         15    1    1    2    0    0 -0.56604113464E-01 -0.23564541016E+01  0.21415745134E+01  0.36469371197E+01  0.17770000000E+01 0.  1.
</event>
<event>
 6    1  0.8353910E-003  0.1833773E+03  0.7546771E-02  0.1067759E+00
        -11   -1    0    0    0    0  0.00000000000E+00  0.00000000000E+00  0.18250000000E+03  0.18250000000E+03  0.00000000000E+00 0. -1.
         11   -1    0    0    0    0 -0.00000000000E+00 -0.00000000000E+00 -0.18250000000E+03  0.18250000000E+03  0.00000000000E+00 0.  1.
        -11    1    1    2    0    0  0.19493925364E+01 -0.17558564780E+01  0.16569867478E+03  0.16571944360E+03  0.00000000000E+00 0. -1.
         11    1    1    2    0    0 -0.81751672599E+00 -0.33803444800E+01 -0.18158936354E+03  0.18162266382E+03  0.00000000000E+00 0.  1.
        -15    1    1    2    0    0 -0.25991230484E+01  0.34705384050E+01  0.80105398038E+01  0.92804393424E+01  0.17770000000E+01 0.  1.
         15    1    1    2    0    0  0.14672472379E+01  0.16656625530E+01  0.78801489529E+01  0.83774532358E+01  0.17770000000E+01 0. -1.
</event>
<event>
 6    1  0.8353910E-003  0.1842214E+03  0.7546771E-02  0.1067093E+00
        -11   -1    0    0    0    0  0.00000000000E+00  0.00000000000E+00  0.18250000000E+03  0.18250000000E+03  0.00000000000E+00 0.  1.
         11   -1    0    0    0    0 -0.00000000000E+00 -0.00000000000E+00 -0.18250000000E+03  0.18250000000E+03  0.00000000000E+00 0. -1.
        -11    1    1    2    0    0  0.14642541146E+01 -0.22695297876E+01  0.15621571397E+03  0.15623906073E+03  0.00000000000E+00 0.  1.
         11    1    1    2    0    0 -0.30180515554E+01 -0.25946735451E+01 -0.18073475764E+03  0.18077857612E+03  0.00000000000E+00 0. -1.
        -15    1    1    2    0    0  0.46787093097E+01 -0.17799375570E+00  0.36043165137E+01  0.61701563280E+01  0.17770000000E+01 0. -1.
         15    1    1    2    0    0 -0.31249118689E+01  0.50421970884E+01  0.20914727153E+02  0.21812206824E+02  0.17770000000E+01 0.  1.
</event>
<event>
 6    1  0.8353910E-003  0.1843281E+03  0.7546771E-02  0.1067009E+00
        -11   -1    0    0    0    0  0.00000000000E+00  0.00000000000E+00  0.18250000000E+03  0.18250000000E+03  0.00000000000E+00 0. -1.
         11   -1    0    0    0    0 -0.00000000000E+00 -0.00000000000E+00 -0.18250000000E+03  0.18250000000E+03  0.00000000000E+00 0.  1.
        -11    1    1    2    0    0 -0.25888560875E+01  0.24528730003E+01  0.18063672272E+03  0.18067192465E+03  0.00000000000E+00 0. -1.
         11    1    1    2    0    0  0.33659390515E+01 -0.81849535438E+00 -0.16147776171E+03  0.16151491265E+03  0.00000000000E+00 0.  1.
        -15    1    1    2    0    0  0.35027054703E+01 -0.29755513703E+01 -0.26114267601E+01  0.55767490792E+01  0.17770000000E+01 0. -1.
         15    1    1    2    0    0 -0.42797884343E+01  0.13411737244E+01 -0.16547534249E+02  0.17236413627E+02  0.17770000000E+01 0. -1.
</event>
<event>
 6    1  0.8353910E-003  0.1999003E+03  0.7546771E-02  0.1055390E+00
        -11   -1    0    0    0    0  0.00000000000E+00  0.00000000000E+00  0.18250000000E+03  0.18250000000E+03  0.00000000000E+00 0.  1.
         11   -1    0    0    0    0 -0.00000000000E+00 -0.00000000000E+00 -0.18250000000E+03  0.18250000000E+03  0.00000000000E+00 0. -1.
        -11    1    1    2    0    0  0.10078683593E+02  0.14590929134E+02  0.93415905906E+02  0.95084207691E+02  0.00000000000E+00 0.  1.
         11    1    1    2    0    0 -0.32666135368E+01 -0.24231841960E+01 -0.16504963432E+03  0.16509974069E+03  0.00000000000E+00 0. -1.
        -15    1    1    2    0    0  0.22246451423E+02 -0.97355915314E+01 -0.31285549578E+01  0.24548562657E+02  0.17770000000E+01 0.  1.
         15    1    1    2    0    0 -0.29058521480E+02 -0.24321534070E+01  0.74762283372E+02  0.80267488965E+02  0.17770000000E+01 0. -1.
</event>
<event>
 6    1  0.8353910E-003  0.1830908E+03  0.7546771E-02  0.1067985E+00
        -11   -1    0    0    0    0  0.00000000000E+00  0.00000000000E+00  0.18250000000E+03  0.18250000000E+03  0.00000000000E+00 0. -1.
         11   -1    0    0    0    0 -0.00000000000E+00 -0.00000000000E+00 -0.18250000000E+03  0.18250000000E+03  0.00000000000E+00 0.  1.
        -11    1    1    2    0    0  0.44244486138E+01 -0.28171136193E+01  0.18183354182E+03  0.18190917736E+03  0.00000000000E+00 0. -1.
         11    1    1    2    0    0 -0.67214436918E+01 -0.47337955406E+00 -0.14130428603E+03  0.14146484773E+03  0.00000000000E+00 0.  1.
        -15    1    1    2    0    0  0.12330180934E+01  0.99628719041E+00 -0.36350232205E+02  0.36428148898E+02  0.17770000000E+01 0. -1.
         15    1    1    2    0    0  0.10639769845E+01  0.22942059829E+01 -0.41790235877E+01  0.51978260131E+01  0.17770000000E+01 0.  1.
</event>
<event>
 6    1  0.8353910E-003  0.1841864E+03  0.7546771E-02  0.1067120E+00
        -11   -1    0    0    0    0  0.00000000000E+00  0.00000000000E+00  0.18250000000E+03  0.18250000000E+03  0.00000000000E+00 0.  1.
         11   -1    0    0    0    0 -0.00000000000E+00 -0.00000000000E+00 -0.18250000000E+03  0.18250000000E+03  0.00000000000E+00 0.  1.
        -11    1    1    2    0    0 -0.28286237257E+01 -0.24345662534E+01  0.18077510892E+03  0.18081362844E+03  0.00000000000E+00 0.  1.
         11    1    1    2    0    0  0.24520300034E+01 -0.47458610197E+01 -0.16612523876E+03  0.16621110252E+03  0.00000000000E+00 0.  1.
        -15    1    1    2    0    0 -0.29653272953E+01  0.27609418042E+01 -0.79768517536E+01  0.91216149071E+01  0.17770000000E+01 0.  1.
         15    1    1    2    0    0  0.33419210176E+01  0.44194854689E+01 -0.66730184069E+01  0.88536541359E+01  0.17770000000E+01 0. -1.
</event>
<event>
 6    1  0.8353910E-003  0.1832043E+03  0.7546771E-02  0.1067896E+00
        -11   -1    0    0    0    0  0.00000000000E+00  0.00000000000E+00  0.18250000000E+03  0.18250000000E+03  0.00000000000E+00 0.  1.
         11   -1    0    0    0    0 -0.00000000000E+00 -0.00000000000E+00 -0.18250000000E+03  0.18250000000E+03  0.00000000000E+00 0.  1.
        -11    1    1    2    0    0 -0.50101674021E+00 -0.92265367638E+00  0.23000736590E+02  0.23024686561E+02  0.00000000000E+00 0.  1.
         11    1    1    2    0    0 -0.94864831110E+01 -0.31224096484E+01 -0.18152115219E+03  0.18179568613E+03  0.00000000000E+00 0.  1.
        -15    1    1    2    0    0  0.74780455353E+01  0.44790073173E+01  0.23561808691E+02  0.25185297881E+02  0.17770000000E+01 0. -1.
         15    1    1    2    0    0  0.25094543159E+01 -0.43394399252E+00  0.13495860691E+03  0.13499432942E+03  0.17770000000E+01 0.  1.
</event>
<event>
 6    1  0.8353910E-003  0.1850210E+03  0.7546771E-02  0.1066466E+00
        -11   -1    0    0    0    0  0.00000000000E+00  0.00000000000E+00  0.18250000000E+03  0.18250000000E+03  0.00000000000E+00 0. -1.
         11   -1    0    0    0    0 -0.00000000000E+00 -0.00000000000E+00 -0.18250000000E+03  0.18250000000E+03  0.00000000000E+00 0.  1.
        -11    1    1    2    0    0 -0.37704925496E+01 -0.52954437461E+01  0.13492313269E+03  0.13507964345E+03  0.00000000000E+00 0. -1.
         11    1    1    2    0    0 -0.52259733113E+01 -0.54796341801E+01 -0.17981964971E+03  0.17997900880E+03  0.00000000000E+00 0.  1.
        -15    1    1    2    0    0  0.65426118721E+01  0.10645480706E+02  0.13814556048E+02  0.18711806898E+02  0.17770000000E+01 0. -1.
         15    1    1    2    0    0  0.24538539888E+01  0.12959722072E+00  0.31081960973E+02  0.31229540851E+02  0.17770000000E+01 0.  1.
</event>
<event>
 6    1  0.8353910E-003  0.1801481E+03  0.7546771E-02  0.1070342E+00
        -11   -1    0    0    0    0  0.00000000000E+00  0.00000000000E+00  0.18250000000E+03  0.18250000000E+03  0.00000000000E+00 0.  1.
         11   -1    0    0    0    0 -0.00000000000E+00 -0.00000000000E+00 -0.18250000000E+03  0.18250000000E+03  0.00000000000E+00 0. -1.
        -11    1    1    2    0    0  0.21356246680E+01 -0.11908809679E+01  0.18002731666E+03  0.18004392195E+03  0.00000000000E+00 0.  1.
         11    1    1    2    0    0 -0.33987057465E+01  0.79318105918E+00 -0.18022099676E+03  0.18025478637E+03  0.00000000000E+00 0. -1.
        -15    1    1    2    0    0  0.62908067914E+00  0.14575873907E+01 -0.48822052780E+00  0.24323634158E+01  0.17770000000E+01 0. -1.
         15    1    1    2    0    0  0.63400039933E+00 -0.10598874821E+01  0.68190062895E+00  0.22689282599E+01  0.17770000000E+01 0.  1.
</event>
<event>
 6    1  0.8353910E-003  0.1833130E+03  0.7546771E-02  0.1067810E+00
        -11   -1    0    0    0    0  0.00000000000E+00  0.00000000000E+00  0.18250000000E+03  0.18250000000E+03  0.00000000000E+00 0.  1.
         11   -1    0    0    0    0 -0.00000000000E+00 -0.00000000000E+00 -0.18250000000E+03  0.18250000000E+03  0.00000000000E+00 0.  1.
        -11    1    1    2    0    0 -0.78728514140E+00 -0.17924200386E+00  0.58184811789E+02  0.58190413888E+02  0.00000000000E+00 0.  1.
         11    1    1    2    0    0 -0.10526213879E+01  0.24310218539E+01 -0.18166773479E+03  0.18168704892E+03  0.00000000000E+00 0.  1.
        -15    1    1    2    0    0 -0.61849266904E+01  0.57756434110E+01  0.57587904645E+02  0.58233460015E+02  0.17770000000E+01 0.  1.
         15    1    1    2    0    0  0.80248332197E+01 -0.80274232611E+01  0.65895018360E+02  0.66889077180E+02  0.17770000000E+01 0.  1.
</event>
<event>
 6    1  0.8353910E-003  0.1852976E+03  0.7546771E-02  0.1066249E+00
        -11   -1    0    0    0    0  0.00000000000E+00  0.00000000000E+00  0.18250000000E+03  0.18250000000E+03  0.00000000000E+00 0.  1.
         11   -1    0    0    0    0 -0.00000000000E+00 -0.00000000000E+00 -0.18250000000E+03  0.18250000000E+03  0.00000000000E+00 0. -1.
        -11    1    1    2    0    0  0.86491466304E+01 -0.88087633666E+01  0.14123848471E+03  0.14177697843E+03  0.00000000000E+00 0.  1.
         11    1    1    2    0    0  0.52808184862E+00 -0.28619097160E+01 -0.17967880002E+03  0.17970236663E+03  0.00000000000E+00 0. -1.
        -15    1    1    2    0    0 -0.69113243123E+01  0.17144212743E+00  0.22827194757E+02  0.23917239507E+02  0.17770000000E+01 0.  1.
         15    1    1    2    0    0 -0.22659041668E+01  0.11499230955E+02  0.15613120549E+02  0.19603415430E+02  0.17770000000E+01 0. -1.
</event>
<event>
 6    1  0.9784143E-003  0.1875154E+03  0.7546771E-02  0.1064531E+00
        -11   -1    0    0    0    0  0.00000000000E+00  0.00000000000E+00  0.18250000000E+03  0.18250000000E+03  0.00000000000E+00 0.  1.
         11   -1    0    0    0    0 -0.00000000000E+00 -0.00000000000E+00 -0.18250000000E+03  0.18250000000E+03  0.00000000000E+00 0.  1.
        -11    1    1    2    0    0 -0.29117579100E+01 -0.46384707419E+01  0.17740005405E+03  0.17748457094E+03  0.00000000000E+00 0.  1.
         11    1    1    2    0    0  0.69869435722E+01 -0.96110911038E+01 -0.16075280733E+03  0.16119136304E+03  0.00000000000E+00 0.  1.
        -15    1    1    2    0    0 -0.54438154736E+01  0.11423479040E+02 -0.18328736370E+02  0.22343484648E+02  0.17770000000E+01 0. -1.
         15    1    1    2    0    0  0.13686298114E+01  0.28260828054E+01  0.16814896527E+01  0.39805813691E+01  0.17770000000E+01 0. -1.
</event>
<event>
 6    1  0.8353910E-003  0.1325680E+03  0.7546771E-02  0.1117047E+00
        -11   -1    0    0    0    0  0.00000000000E+00  0.00000000000E+00  0.18250000000E+03  0.18250000000E+03  0.00000000000E+00 0. -1.
         11   -1    0    0    0    0 -0.00000000000E+00 -0.00000000000E+00 -0.18250000000E+03  0.18250000000E+03  0.00000000000E+00 0.  1.
        -11    1    1    2    0    0 -0.53364976499E+01 -0.14935292838E+01  0.16074743173E+03  0.16084292227E+03  0.00000000000E+00 0. -1.
         11    1    1    2    0    0 -0.11043896666E+02  0.28480880913E+01 -0.38087878817E+02  0.39758845206E+02  0.00000000000E+00 0.  1.
        -15    1    1    2    0    0 -0.38560203198E+02 -0.19125409165E+02 -0.22079905159E+02  0.48408165501E+02  0.17770000000E+01 0. -1.
         15    1    1    2    0    0  0.54940597513E+02  0.17770850358E+02 -0.10057964775E+03  0.11599006702E+03  0.17770000000E+01 0.  1.
</event>
<event>
 6    1  0.8353910E-003  0.1831429E+03  0.7546771E-02  0.1067944E+00
        -11   -1    0    0    0    0  0.00000000000E+00  0.00000000000E+00  0.18250000000E+03  0.18250000000E+03  0.00000000000E+00 0.  1.
         11   -1    0    0    0    0 -0.00000000000E+00 -0.00000000000E+00 -0.18250000000E+03  0.18250000000E+03  0.00000000000E+00 0. -1.
        -11    1    1    2    0    0 -0.12930791161E+01  0.24033805017E+01  0.15107529830E+03  0.15109994722E+03  0.00000000000E+00 0.  1.
         11    1    1    2    0    0 -0.12226962205E+00 -0.33938792035E+01 -0.18182543589E+03  0.18185714861E+03  0.00000000000E+00 0. -1.
        -15    1    1    2    0    0  0.10565453163E+01  0.36106040806E+01  0.75109139482E+01  0.85862859939E+01  0.17770000000E+01 0.  1.
         15    1    1    2    0    0  0.35880342188E+00 -0.26201053788E+01  0.23239223635E+02  0.23456618176E+02  0.17770000000E+01 0.  1.
</event>
<event>
 6    1  0.8353910E-003  0.1826004E+03  0.7546771E-02  0.1068375E+00
        -11   -1    0    0    0    0  0.00000000000E+00  0.00000000000E+00  0.18250000000E+03  0.18250000000E+03  0.00000000000E+00 0. -1.
         11   -1    0    0    0    0 -0.00000000000E+00 -0.00000000000E+00 -0.18250000000E+03  0.18250000000E+03  0.00000000000E+00 0. -1.
        -11    1    1    2    0    0  0.30351126517E+01  0.11944290857E+01  0.18237039452E+03  0.18239955967E+03  0.00000000000E+00 0. -1.
         11    1    1    2    0    0 -0.44031026740E+00 -0.74618348414E+00 -0.63897210545E+02  0.63903084264E+02  0.00000000000E+00 0. -1.
        -15    1    1    2    0    0 -0.20175236942E+00 -0.12591539570E+01 -0.13286561304E+02  0.13465385735E+02  0.17770000000E+01 0. -1.
         15    1    1    2    0    0 -0.23930500149E+01  0.81090835541E+00 -0.10518662267E+03  0.10523197033E+03  0.17770000000E+01 0. -1.
</event>
<event>
 6    1  0.8353910E-003  0.1849423E+03  0.7546771E-02  0.1066527E+00
        -11   -1    0    0    0    0  0.00000000000E+00  0.00000000000E+00  0.18250000000E+03  0.18250000000E+03  0.00000000000E+00 0.  1.
         11   -1    0    0    0    0 -0.00000000000E+00 -0.00000000000E+00 -0.18250000000E+03  0.18250000000E+03  0.00000000000E+00 0.  1.
        -11    1    1    2    0    0  0.26995263013E+01 -0.63473825030E+00  0.18003631001E+03  0.18005766647E+03  0.00000000000E+00 0.  1.
         11    1    1    2    0    0  0.17210418285E+01  0.15437801474E+01 -0.17136503095E+03  0.17138062631E+03  0.00000000000E+00 0.  1.
        -15    1    1    2    0    0  0.83809813422E+00  0.13085028552E+01 -0.69522418888E+01  0.73420694960E+01  0.17770000000E+01 0.  1.
         15    1    1    2    0    0 -0.52586662640E+01 -0.22175447523E+01 -0.17190371694E+01  0.62196377222E+01  0.17770000000E+01 0. -1.
</event>
<event>
 6    1  0.8353910E-003  0.1837552E+03  0.7546771E-02  0.1067460E+00
        -11   -1    0    0    0    0  0.00000000000E+00  0.00000000000E+00  0.18250000000E+03  0.18250000000E+03  0.00000000000E+00 0.  1.
         11   -1    0    0    0    0 -0.00000000000E+00 -0.00000000000E+00 -0.18250000000E+03  0.18250000000E+03  0.00000000000E+00 0. -1.
        -11    1    1    2    0    0 -0.17444258389E+01 -0.40440772390E+01  0.18119132340E+03  0.18124484340E+03  0.00000000000E+00 0.  1.
         11    1    1    2    0    0  0.21958681532E+01 -0.15150609664E+01 -0.16576028279E+03  0.16578174989E+03  0.00000000000E+00 0. -1.
        -15    1    1    2    0    0 -0.99456798977E+00  0.53671650206E+01 -0.14993436247E+02  0.16054796334E+02  0.17770000000E+01 0. -1.
         15    1    1    2    0    0  0.54312567547E+00  0.19197318474E+00 -0.43760437059E+00  0.19186103795E+01  0.17770000000E+01 0.  1.
</event>
<event>
 6    1  0.8353910E-003  0.1828439E+03  0.7546771E-02  0.1068181E+00
        -11   -1    0    0    0    0  0.00000000000E+00  0.00000000000E+00  0.18250000000E+03  0.18250000000E+03  0.00000000000E+00 0. -1.
         11   -1    0    0    0    0 -0.00000000000E+00 -0.00000000000E+00 -0.18250000000E+03  0.18250000000E+03  0.00000000000E+00 0. -1.
        -11    1    1    2    0    0 -0.24226666716E+01 -0.14013087778E+01  0.18213460475E+03  0.18215610675E+03  0.00000000000E+00 0. -1.
         11    1    1    2    0    0 -0.20675185721E+01  0.27643621236E+01 -0.13196936996E+03  0.13201451033E+03  0.00000000000E+00 0. -1.
        -15    1    1    2    0    0  0.47013778582E+01  0.10934701547E+01 -0.32548963721E+02  0.32952866326E+02  0.17770000000E+01 0.  1.
         15    1    1    2    0    0 -0.21119261456E+00 -0.24565235005E+01 -0.17616271068E+02  0.17876516589E+02  0.17770000000E+01 0. -1.
</event>
<event>
 6    1  0.8353910E-003  0.1827243E+03  0.7546771E-02  0.1068276E+00
        -11   -1    0    0    0    0  0.00000000000E+00  0.00000000000E+00  0.18250000000E+03  0.18250000000E+03  0.00000000000E+00 0.  1.
         11   -1    0    0    0    0 -0.00000000000E+00 -0.00000000000E+00 -0.18250000000E+03  0.18250000000E+03  0.00000000000E+00 0. -1.
        -11    1    1    2    0    0  0.11324609487E+01  0.11376109178E+01  0.23558154032E+02  0.23612777214E+02  0.00000000000E+00 0.  1.
         11    1    1    2    0    0 -0.87536809864E+01 -0.33510155653E+01 -0.18203452010E+03  0.18227567787E+03  0.00000000000E+00 0. -1.
        -15    1    1    2    0    0  0.12485583823E+01  0.46948486708E+01  0.11014608505E+03  0.11026748516E+03  0.17770000000E+01 0.  1.
         15    1    1    2    0    0  0.63726616554E+01 -0.24814440233E+01  0.48330281016E+02  0.48844059752E+02  0.17770000000E+01 0. -1.
</event>
<event>
 6    1  0.8353910E-003  0.1843027E+03  0.7546771E-02  0.1067029E+00
        -11   -1    0    0    0    0  0.00000000000E+00  0.00000000000E+00  0.18250000000E+03  0.18250000000E+03  0.00000000000E+00 0. -1.
         11   -1    0    0    0    0 -0.00000000000E+00 -0.00000000000E+00 -0.18250000000E+03  0.18250000000E+03  0.00000000000E+00 0.  1.
        -11    1    1    2    0    0 -0.18306989483E+01  0.17242862224E+01  0.17072051505E+03  0.17073903737E+03  0.00000000000E+00 0. -1.
         11    1    1    2    0    0  0.14176676928E+01  0.30082240423E+01 -0.18066674036E+03  0.18069734438E+03  0.00000000000E+00 0.  1.
        -15    1    1    2    0    0  0.19691296633E+01 -0.43128260606E+01  0.23208011026E+01  0.55697205512E+01  0.17770000000E+01 0. -1.
         15    1    1    2    0    0 -0.15560984077E+01 -0.41968420404E+00  0.76254242071E+01  0.79938976991E+01  0.17770000000E+01 0.  1.
</event>
<event>
 6    1  0.8353910E-003  0.1831399E+03  0.7546771E-02  0.1067947E+00
        -11   -1    0    0    0    0  0.00000000000E+00  0.00000000000E+00  0.18250000000E+03  0.18250000000E+03  0.00000000000E+00 0.  1.
         11   -1    0    0    0    0 -0.00000000000E+00 -0.00000000000E+00 -0.18250000000E+03  0.18250000000E+03  0.00000000000E+00 0.  1.
        -11    1    1    2    0    0  0.27469682488E+00 -0.27549307917E+01  0.18183901860E+03  0.18186009400E+03  0.00000000000E+00 0.  1.
         11    1    1    2    0    0  0.97209742695E+00  0.44495020401E+00 -0.41310498464E+02  0.41324329849E+02  0.00000000000E+00 0.  1.
        -15    1    1    2    0    0  0.58952814503E+01  0.67143234331E+01 -0.98525562654E+02  0.98945847350E+02  0.17770000000E+01 0.  1.
         15    1    1    2    0    0 -0.71420757021E+01 -0.44043428454E+01 -0.42002957485E+02  0.42869728804E+02  0.17770000000E+01 0. -1.
</event>
<event>
 6    1  0.8353910E-003  0.1854873E+03  0.7546771E-02  0.1066101E+00
        -11   -1    0    0    0    0  0.00000000000E+00  0.00000000000E+00  0.18250000000E+03  0.18250000000E+03  0.00000000000E+00 0.  1.
         11   -1    0    0    0    0 -0.00000000000E+00 -0.00000000000E+00 -0.18250000000E+03  0.18250000000E+03  0.00000000000E+00 0.  1.
        -11    1    1    2    0    0 -0.60378812195E+01  0.51260614725E+01  0.14161889801E+03  0.14184020865E+03  0.00000000000E+00 0.  1.
         11    1    1    2    0    0  0.33458911019E+00  0.30855542531E+01 -0.17948582805E+03  0.17951265990E+03  0.00000000000E+00 0.  1.
        -15    1    1    2    0    0  0.13123015067E+01 -0.64791773412E+01  0.15983716296E+01  0.70295373339E+01  0.17770000000E+01 0. -1.
         15    1    1    2    0    0  0.43909906025E+01 -0.17324383843E+01  0.36268558401E+02  0.36617594114E+02  0.17770000000E+01 0.  1.
</event>
<event>
 6    1  0.8353910E-003  0.1676062E+03  0.7546771E-02  0.1080970E+00
        -11   -1    0    0    0    0  0.00000000000E+00  0.00000000000E+00  0.18250000000E+03  0.18250000000E+03  0.00000000000E+00 0. -1.
         11   -1    0    0    0    0 -0.00000000000E+00 -0.00000000000E+00 -0.18250000000E+03  0.18250000000E+03  0.00000000000E+00 0.  1.
        -11    1    1    2    0    0 -0.30091447319E+01 -0.39224685099E+02  0.17521089184E+03  0.17957307007E+03  0.00000000000E+00 0. -1.
         11    1    1    2    0    0  0.67105914248E+00 -0.16232647410E+01 -0.32210897007E+02  0.32258753770E+02  0.00000000000E+00 0.  1.
        -15    1    1    2    0    0  0.19823086790E+01  0.42506671575E+01 -0.80961204346E+02  0.81116410529E+02  0.17770000000E+01 0.  1.
         15    1    1    2    0    0  0.35577691037E+00  0.36597282683E+02 -0.62038790488E+02  0.72051765635E+02  0.17770000000E+01 0. -1.
</event>
<event>
 6    1  0.8353910E-003  0.1831786E+03  0.7546771E-02  0.1067916E+00
        -11   -1    0    0    0    0  0.00000000000E+00  0.00000000000E+00  0.18250000000E+03  0.18250000000E+03  0.00000000000E+00 0.  1.
         11   -1    0    0    0    0 -0.00000000000E+00 -0.00000000000E+00 -0.18250000000E+03  0.18250000000E+03  0.00000000000E+00 0.  1.
        -11    1    1    2    0    0 -0.13804489724E+01  0.28971716064E+01  0.18179312228E+03  0.18182144689E+03  0.00000000000E+00 0.  1.
         11    1    1    2    0    0  0.47983378310E+01  0.80056995241E+00 -0.16512593779E+03  0.16519757955E+03  0.00000000000E+00 0.  1.
        -15    1    1    2    0    0 -0.25365463616E+01 -0.26406463230E+01 -0.74030295243E+01  0.84480563200E+01  0.17770000000E+01 0.  1.
         15    1    1    2    0    0 -0.88134249706E+00 -0.10570952358E+01 -0.92641549619E+01  0.95329172394E+01  0.17770000000E+01 0. -1.
</event>
<event>
 6    1  0.8353910E-003  0.1855372E+03  0.7546771E-02  0.1066063E+00
        -11   -1    0    0    0    0  0.00000000000E+00  0.00000000000E+00  0.18250000000E+03  0.18250000000E+03  0.00000000000E+00 0.  1.
         11   -1    0    0    0    0 -0.00000000000E+00 -0.00000000000E+00 -0.18250000000E+03  0.18250000000E+03  0.00000000000E+00 0.  1.
        -11    1    1    2    0    0  0.53713372008E+01 -0.11245503170E+01  0.17937888805E+03  0.17946281329E+03  0.00000000000E+00 0.  1.
         11    1    1    2    0    0 -0.95081688650E+01 -0.21845468153E+01 -0.12329287863E+03  0.12367825775E+03  0.00000000000E+00 0.  1.
        -15    1    1    2    0    0 -0.44220614056E+00  0.99655501703E+01 -0.75835322073E+01  0.12656043071E+02  0.17770000000E+01 0. -1.
         15    1    1    2    0    0  0.45790378048E+01 -0.66564530379E+01 -0.48502477218E+02  0.49202885886E+02  0.17770000000E+01 0.  1.
</event>
<event>
 6    1  0.8353910E-003  0.2192988E+03  0.7546771E-02  0.1042434E+00
        -11   -1    0    0    0    0  0.00000000000E+00  0.00000000000E+00  0.18250000000E+03  0.18250000000E+03  0.00000000000E+00 0.  1.
         11   -1    0    0    0    0 -0.00000000000E+00 -0.00000000000E+00 -0.18250000000E+03  0.18250000000E+03  0.00000000000E+00 0. -1.
        -11    1    1    2    0    0 -0.31792668256E+01 -0.19556866930E+01  0.12083357958E+03  0.12089121722E+03  0.00000000000E+00 0.  1.
         11    1    1    2    0    0  0.19717943428E+01  0.13213022950E+01 -0.14568185404E+03  0.14570118877E+03  0.00000000000E+00 0. -1.
        -15    1    1    2    0    0 -0.43752944108E+02  0.16881506782E+02  0.17080872889E+02  0.49942159915E+02  0.17770000000E+01 0.  1.
         15    1    1    2    0    0  0.44960416591E+02 -0.16247122384E+02  0.77674015719E+01  0.48465434094E+02  0.17770000000E+01 0. -1.
</event>
<event>
 6    1  0.8353910E-003  0.1826995E+03  0.7546771E-02  0.1068296E+00
        -11   -1    0    0    0    0  0.00000000000E+00  0.00000000000E+00  0.18250000000E+03  0.18250000000E+03  0.00000000000E+00 0. -1.
         11   -1    0    0    0    0 -0.00000000000E+00 -0.00000000000E+00 -0.18250000000E+03  0.18250000000E+03  0.00000000000E+00 0.  1.
        -11    1    1    2    0    0 -0.17920947319E+01 -0.14475828704E+01  0.11210564577E+03  0.11212931335E+03  0.00000000000E+00 0. -1.
         11    1    1    2    0    0  0.90816203983E+00  0.31758422870E+01 -0.18227053807E+03  0.18230046566E+03  0.00000000000E+00 0.  1.
        -15    1    1    2    0    0  0.10841804601E+01  0.64289203577E+00  0.58251543228E+02  0.58292270284E+02  0.17770000000E+01 0. -1.
         15    1    1    2    0    0 -0.20024776794E+00 -0.23711514524E+01  0.11913349073E+02  0.12277950705E+02  0.17770000000E+01 0.  1.
</event>
<event>
 6    1  0.8353910E-003  0.1525091E+03  0.7546771E-02  0.1095201E+00
        -11   -1    0    0    0    0  0.00000000000E+00  0.00000000000E+00  0.18250000000E+03  0.18250000000E+03  0.00000000000E+00 0. -1.
         11   -1    0    0    0    0 -0.00000000000E+00 -0.00000000000E+00 -0.18250000000E+03  0.18250000000E+03  0.00000000000E+00 0. -1.
        -11    1    1    2    0    0  0.23406187175E+01  0.10493029789E+01  0.16265778388E+03  0.16267800770E+03  0.00000000000E+00 0. -1.
         11    1    1    2    0    0  0.23309867191E+02 -0.13848552284E+02 -0.14182336845E+03  0.14439182853E+03  0.00000000000E+00 0. -1.
        -15    1    1    2    0    0  0.16281104227E+01  0.38082627319E+01  0.12855714968E+02  0.13622802389E+02  0.17770000000E+01 0. -1.
         15    1    1    2    0    0 -0.27278596331E+02  0.89909865732E+01 -0.33690130400E+02  0.44307361383E+02  0.17770000000E+01 0.  1.
</event>
<event>
 6    1  0.8353910E-003  0.1874101E+03  0.7546771E-02  0.1064612E+00
        -11   -1    0    0    0    0  0.00000000000E+00  0.00000000000E+00  0.18250000000E+03  0.18250000000E+03  0.00000000000E+00 0. -1.
         11   -1    0    0    0    0 -0.00000000000E+00 -0.00000000000E+00 -0.18250000000E+03  0.18250000000E+03  0.00000000000E+00 0.  1.
        -11    1    1    2    0    0  0.10996628039E+01 -0.27229208874E+01  0.17042754669E+03  0.17045284458E+03  0.00000000000E+00 0. -1.
         11    1    1    2    0    0  0.24443568262E+01 -0.21098757143E+01 -0.17756052646E+03  0.17758988432E+03  0.00000000000E+00 0.  1.
        -15    1    1    2    0    0  0.19273986538E+01  0.20333441027E+01 -0.33252999149E+01  0.46973079881E+01  0.17770000000E+01 0. -1.
         15    1    1    2    0    0 -0.54714182840E+01  0.27994524991E+01  0.10458279687E+02  0.12259963106E+02  0.17770000000E+01 0.  1.
</event>
<event>
 6    1  0.8353910E-003  0.1828011E+03  0.7546771E-02  0.1068215E+00
        -11   -1    0    0    0    0  0.00000000000E+00  0.00000000000E+00  0.18250000000E+03  0.18250000000E+03  0.00000000000E+00 0. -1.
         11   -1    0    0    0    0 -0.00000000000E+00 -0.00000000000E+00 -0.18250000000E+03  0.18250000000E+03  0.00000000000E+00 0.  1.
        -11    1    1    2    0    0  0.26435709114E+01  0.24744611068E+01  0.18216289562E+03  0.18219888025E+03  0.00000000000E+00 0. -1.
         11    1    1    2    0    0  0.99657636879E+00 -0.92662663384E+00 -0.61486302224E+02  0.61501359030E+02  0.00000000000E+00 0.  1.
        -15    1    1    2    0    0 -0.20869493072E+01  0.32885497013E+01 -0.18806249198E+02  0.19287370335E+02  0.17770000000E+01 0. -1.
         15    1    1    2    0    0 -0.15531979730E+01 -0.48363841743E+01 -0.10187034420E+03  0.10201239038E+03  0.17770000000E+01 0.  1.
</event>
<event>
 6    1  0.8353910E-003  0.1834593E+03  0.7546771E-02  0.1067694E+00
        -11   -1    0    0    0    0  0.00000000000E+00  0.00000000000E+00  0.18250000000E+03  0.18250000000E+03  0.00000000000E+00 0. -1.
         11   -1    0    0    0    0 -0.00000000000E+00 -0.00000000000E+00 -0.18250000000E+03  0.18250000000E+03  0.00000000000E+00 0. -1.
        -11    1    1    2    0    0  0.41603931326E+01 -0.16278944435E+01  0.18148571336E+03  0.18154069259E+03  0.00000000000E+00 0. -1.
         11    1    1    2    0    0 -0.33126541494E+00  0.45605625607E+01 -0.10218308773E+03  0.10228534541E+03  0.00000000000E+00 0. -1.
        -15    1    1    2    0    0 -0.15245617801E+01  0.55822591667E+00 -0.79498576720E+00  0.25348838564E+01  0.17770000000E+01 0.  1.
         15    1    1    2    0    0 -0.23045659375E+01 -0.34908940339E+01 -0.78507639862E+02  0.78639078142E+02  0.17770000000E+01 0. -1.
</event>
<event>
 6    1  0.8353910E-003  0.1860877E+03  0.7546771E-02  0.1065634E+00
        -11   -1    0    0    0    0  0.00000000000E+00  0.00000000000E+00  0.18250000000E+03  0.18250000000E+03  0.00000000000E+00 0. -1.
         11   -1    0    0    0    0 -0.00000000000E+00 -0.00000000000E+00 -0.18250000000E+03  0.18250000000E+03  0.00000000000E+00 0. -1.
        -11    1    1    2    0    0  0.68625477408E+01 -0.74991771691E+00  0.17877905870E+03  0.17891229350E+03  0.00000000000E+00 0. -1.
         11    1    1    2    0    0 -0.23606717293E+01 -0.26127921712E+00 -0.17500644031E+03  0.17502255623E+03  0.00000000000E+00 0. -1.
        -15    1    1    2    0    0  0.13189397650E+01 -0.15364557343E+01 -0.35593480347E+01  0.44639652507E+01  0.17770000000E+01 0.  1.
         15    1    1    2    0    0 -0.58208157765E+01  0.25476526683E+01 -0.21327035061E+00  0.66011850197E+01  0.17770000000E+01 0. -1.
</event>
<event>
 6    1  0.8353910E-003  0.1841722E+03  0.7546771E-02  0.1067131E+00
        -11   -1    0    0    0    0  0.00000000000E+00  0.00000000000E+00  0.18250000000E+03  0.18250000000E+03  0.00000000000E+00 0.  1.
         11   -1    0    0    0    0 -0.00000000000E+00 -0.00000000000E+00 -0.18250000000E+03  0.18250000000E+03  0.00000000000E+00 0.  1.
        -11    1    1    2    0    0  0.13110661157E-01  0.38258103392E+01  0.18078733227E+03  0.18082780900E+03  0.00000000000E+00 0.  1.
         11    1    1    2    0    0  0.27477080807E+01 -0.23857186195E+01 -0.17685890941E+03  0.17689634081E+03  0.00000000000E+00 0.  1.
        -15    1    1    2    0    0  0.58436676719E+00 -0.46770830002E+00 -0.31968470929E+00  0.19545236980E+01  0.17770000000E+01 0.  1.
         15    1    1    2    0    0 -0.33451855090E+01 -0.97238341972E+00 -0.36087381508E+01  0.53213264931E+01  0.17770000000E+01 0. -1.
</event>
<event>
 6    1  0.8353910E-003  0.1832056E+03  0.7546771E-02  0.1067895E+00
        -11   -1    0    0    0    0  0.00000000000E+00  0.00000000000E+00  0.18250000000E+03  0.18250000000E+03  0.00000000000E+00 0. -1.
         11   -1    0    0    0    0 -0.00000000000E+00 -0.00000000000E+00 -0.18250000000E+03  0.18250000000E+03  0.00000000000E+00 0. -1.
        -11    1    1    2    0    0  0.41962909256E+01 -0.10726934806E+02  0.18142916389E+03  0.18179443748E+03  0.00000000000E+00 0. -1.
         11    1    1    2    0    0  0.33244548146E+01  0.90228183391E+00 -0.84289651738E+02  0.84360011276E+02  0.00000000000E+00 0. -1.
        -15    1    1    2    0    0  0.44165309072E+00  0.99387630681E+01 -0.56053747368E+02  0.56957478804E+02  0.17770000000E+01 0. -1.
         15    1    1    2    0    0 -0.79623988309E+01 -0.11411009630E+00 -0.41085764783E+02  0.41888072444E+02  0.17770000000E+01 0.  1.
</event>
<event>
 6    1  0.8353910E-003  0.1853770E+03  0.7546771E-02  0.1066187E+00
        -11   -1    0    0    0    0  0.00000000000E+00  0.00000000000E+00  0.18250000000E+03  0.18250000000E+03  0.00000000000E+00 0. -1.
         11   -1    0    0    0    0 -0.00000000000E+00 -0.00000000000E+00 -0.18250000000E+03  0.18250000000E+03  0.00000000000E+00 0. -1.
        -11    1    1    2    0    0 -0.21299521888E+01  0.18895074011E+01  0.16860458616E+03  0.16862862571E+03  0.00000000000E+00 0. -1.
         11    1    1    2    0    0  0.21640333755E+01 -0.17496041221E+01 -0.17960140478E+03  0.17962296277E+03  0.00000000000E+00 0. -1.
        -15    1    1    2    0    0  0.11714659938E+00  0.26755189348E+01 -0.16899318903E+01  0.36312151809E+01  0.17770000000E+01 0. -1.
         15    1    1    2    0    0 -0.15122778611E+00 -0.28154222138E+01  0.12686750511E+02  0.13117196332E+02  0.17770000000E+01 0.  1.
</event>
<event>
 6    1  0.8353910E-003  0.1845725E+03  0.7546771E-02  0.1066817E+00
        -11   -1    0    0    0    0  0.00000000000E+00  0.00000000000E+00  0.18250000000E+03  0.18250000000E+03  0.00000000000E+00 0.  1.
         11   -1    0    0    0    0 -0.00000000000E+00 -0.00000000000E+00 -0.18250000000E+03  0.18250000000E+03  0.00000000000E+00 0. -1.
        -11    1    1    2    0    0 -0.24462246079E+01  0.38618233256E+00  0.17286902842E+03  0.17288676681E+03  0.00000000000E+00 0.  1.
         11    1    1    2    0    0  0.48486188997E-01  0.34597021590E+01 -0.18039430713E+03  0.18042748664E+03  0.00000000000E+00 0. -1.
        -15    1    1    2    0    0  0.12139568229E+01 -0.34663651175E+01  0.24289364518E+00  0.40873101936E+01  0.17770000000E+01 0.  1.
         15    1    1    2    0    0  0.11837815960E+01 -0.37951937405E+00  0.72823850616E+01  0.75984363528E+01  0.17770000000E+01 0.  1.
</event>
<event>
 6    1  0.8353910E-003  0.1834756E+03  0.7546771E-02  0.1067681E+00
        -11   -1    0    0    0    0  0.00000000000E+00  0.00000000000E+00  0.18250000000E+03  0.18250000000E+03  0.00000000000E+00 0.  1.
         11   -1    0    0    0    0 -0.00000000000E+00 -0.00000000000E+00 -0.18250000000E+03  0.18250000000E+03  0.00000000000E+00 0. -1.
        -11    1    1    2    0    0  0.34319947573E+01  0.15352102816E+01  0.18148549446E+03  0.18152443405E+03  0.00000000000E+00 0.  1.
         11    1    1    2    0    0  0.11571862742E+01  0.13010709997E+01 -0.11926903174E+03  0.11928174126E+03  0.00000000000E+00 0. -1.
        -15    1    1    2    0    0 -0.16421685644E+01 -0.13330861383E+01 -0.59487687355E+02  0.59551796884E+02  0.17770000000E+01 0. -1.
         15    1    1    2    0    0 -0.29470124672E+01 -0.15031951430E+01 -0.27287753637E+01  0.46420278010E+01  0.17770000000E+01 0. -1.
</event>
<event>
 6    1  0.8353910E-003  0.1783601E+03  0.7546771E-02  0.1071799E+00
        -11   -1    0    0    0    0  0.00000000000E+00  0.00000000000E+00  0.18250000000E+03  0.18250000000E+03  0.00000000000E+00 0.  1.
         11   -1    0    0    0    0 -0.00000000000E+00 -0.00000000000E+00 -0.18250000000E+03  0.18250000000E+03  0.00000000000E+00 0.  1.
        -11    1    1    2    0    0 -0.27813480471E+01 -0.80413914824E+00  0.17749979841E+03  0.17752340965E+03  0.00000000000E+00 0.  1.
         11    1    1    2    0    0 -0.17066936365E+01  0.18992045578E+01 -0.17921255047E+03  0.17923073962E+03  0.00000000000E+00 0.  1.
        -15    1    1    2    0    0  0.34480298993E+01 -0.17838645855E+00 -0.16324106058E+01  0.42122708010E+01  0.17770000000E+01 0. -1.
         15    1    1    2    0    0  0.10400117844E+01 -0.91667895104E+00  0.33451626592E+01  0.40335799270E+01  0.17770000000E+01 0.  1.
</event>
<event>
 6    1  0.8353910E-003  0.2054437E+03  0.7546771E-02  0.1051530E+00
        -11   -1    0    0    0    0  0.00000000000E+00  0.00000000000E+00  0.18250000000E+03  0.18250000000E+03  0.00000000000E+00 0.  1.
         11   -1    0    0    0    0 -0.00000000000E+00 -0.00000000000E+00 -0.18250000000E+03  0.18250000000E+03  0.00000000000E+00 0.  1.
        -11    1    1    2    0    0 -0.68113571295E+01  0.14511574780E+02  0.15874893802E+03  0.15955627757E+03  0.00000000000E+00 0.  1.
         11    1    1    2    0    0  0.24766357367E+01  0.11013908031E+01 -0.14417658366E+03  0.14420205984E+03  0.00000000000E+00 0.  1.
        -15    1    1    2    0    0  0.10704512323E+01 -0.15047497213E+02  0.20752327163E+02  0.25717500848E+02  0.17770000000E+01 0.  1.
         15    1    1    2    0    0  0.32642701605E+01 -0.56546836988E+00 -0.35324681520E+02  0.35524161745E+02  0.17770000000E+01 0. -1.
</event>
<event>
 6    1  0.8353910E-003  0.1872864E+03  0.7546771E-02  0.1064707E+00
        -11   -1    0    0    0    0  0.00000000000E+00  0.00000000000E+00  0.18250000000E+03  0.18250000000E+03  0.00000000000E+00 0. -1.
         11   -1    0    0    0    0 -0.00000000000E+00 -0.00000000000E+00 -0.18250000000E+03  0.18250000000E+03  0.00000000000E+00 0. -1.
        -11    1    1    2    0    0  0.44807954169E+01 -0.13429202009E+01  0.17765199824E+03  0.17771357135E+03  0.00000000000E+00 0. -1.
         11    1    1    2    0    0  0.14292044146E+01  0.26469624681E+01 -0.17100665312E+03  0.17103310921E+03  0.00000000000E+00 0. -1.
        -15    1    1    2    0    0 -0.58935202903E+01 -0.20137181983E+01  0.24757477205E+01  0.69336641229E+01  0.17770000000E+01 0.  1.
         15    1    1    2    0    0 -0.16479541278E-01  0.70967593104E+00 -0.91210928481E+01  0.93196553180E+01  0.17770000000E+01 0. -1.
</event>
<event>
 6    1  0.8353910E-003  0.1947837E+03  0.7546771E-02  0.1059077E+00
        -11   -1    0    0    0    0  0.00000000000E+00  0.00000000000E+00  0.18250000000E+03  0.18250000000E+03  0.00000000000E+00 0.  1.
         11   -1    0    0    0    0 -0.00000000000E+00 -0.00000000000E+00 -0.18250000000E+03  0.18250000000E+03  0.00000000000E+00 0. -1.
        -11    1    1    2    0    0  0.23472946528E+01  0.15364091076E+01  0.12436723169E+03  0.12439886922E+03  0.00000000000E+00 0.  1.
         11    1    1    2    0    0  0.19173863855E+01 -0.46487525246E+01 -0.17014204240E+03  0.17021633841E+03  0.00000000000E+00 0. -1.
        -15    1    1    2    0    0  0.18734138892E+02  0.68503622328E+01  0.42245043569E+02  0.46751436961E+02  0.17770000000E+01 0.  1.
         15    1    1    2    0    0 -0.22998819930E+02 -0.37380188158E+01  0.35297671365E+01  0.23633355409E+02  0.17770000000E+01 0. -1.
</event>
<event>
 6    1  0.8353910E-003  0.1832673E+03  0.7546771E-02  0.1067846E+00
        -11   -1    0    0    0    0  0.00000000000E+00  0.00000000000E+00  0.18250000000E+03  0.18250000000E+03  0.00000000000E+00 0.  1.
         11   -1    0    0    0    0 -0.00000000000E+00 -0.00000000000E+00 -0.18250000000E+03  0.18250000000E+03  0.00000000000E+00 0.  1.
        -11    1    1    2    0    0 -0.13895265806E+01 -0.26582674096E+01  0.18170793015E+03  0.18173268569E+03  0.00000000000E+00 0.  1.
         11    1    1    2    0    0 -0.35003401284E+01 -0.15981686845E+01 -0.15804056753E+03  0.15808740465E+03  0.00000000000E+00 0.  1.
        -15    1    1    2    0    0  0.67534537003E+00 -0.42941216855E+00 -0.39681174361E+01  0.44208790038E+01  0.17770000000E+01 0. -1.
         15    1    1    2    0    0  0.42145213389E+01  0.46858482626E+01 -0.19699245179E+02  0.20759030654E+02  0.17770000000E+01 0. -1.
</event>
<event>
 6    1  0.8353910E-003  0.1836395E+03  0.7546771E-02  0.1067551E+00
        -11   -1    0    0    0    0  0.00000000000E+00  0.00000000000E+00  0.18250000000E+03  0.18250000000E+03  0.00000000000E+00 0.  1.
         11   -1    0    0    0    0 -0.00000000000E+00 -0.00000000000E+00 -0.18250000000E+03  0.18250000000E+03  0.00000000000E+00 0. -1.
        -11    1    1    2    0    0 -0.16710382586E+01 -0.54984431154E+01  0.15814257058E+03  0.15824695219E+03  0.00000000000E+00 0.  1.
         11    1    1    2    0    0  0.88486146667E+00 -0.30637940921E+01 -0.18133246577E+03  0.18136050551E+03  0.00000000000E+00 0. -1.
        -15    1    1    2    0    0  0.20358239575E+01  0.31254419200E+01  0.12996048268E+02  0.13637007222E+02  0.17770000000E+01 0.  1.
         15    1    1    2    0    0 -0.12496471656E+01  0.54367952875E+01  0.10193846924E+02  0.11755535085E+02  0.17770000000E+01 0. -1.
</event>
<event>
 6    1  0.8353910E-003  0.1840970E+03  0.7546771E-02  0.1067191E+00
        -11   -1    0    0    0    0  0.00000000000E+00  0.00000000000E+00  0.18250000000E+03  0.18250000000E+03  0.00000000000E+00 0.  1.
         11   -1    0    0    0    0 -0.00000000000E+00 -0.00000000000E+00 -0.18250000000E+03  0.18250000000E+03  0.00000000000E+00 0. -1.
        -11    1    1    2    0    0 -0.44857378819E+01  0.67063821971E+00  0.15069914705E+03  0.15076738547E+03  0.00000000000E+00 0.  1.
         11    1    1    2    0    0  0.43695759217E+01 -0.94532858428E+01 -0.18060296009E+03  0.18090297676E+03  0.00000000000E+00 0. -1.
        -15    1    1    2    0    0  0.99212017825E+00  0.11311650863E+02  0.23921263409E+02  0.26539071570E+02  0.17770000000E+01 0. -1.
         15    1    1    2    0    0 -0.87595821799E+00 -0.25290032403E+01  0.59825496295E+01  0.67905661957E+01  0.17770000000E+01 0.  1.
</event>
<event>
 6    1  0.8353910E-003  0.1839995E+03  0.7546771E-02  0.1067267E+00
        -11   -1    0    0    0    0  0.00000000000E+00  0.00000000000E+00  0.18250000000E+03  0.18250000000E+03  0.00000000000E+00 0. -1.
         11   -1    0    0    0    0 -0.00000000000E+00 -0.00000000000E+00 -0.18250000000E+03  0.18250000000E+03  0.00000000000E+00 0. -1.
        -11    1    1    2    0    0  0.13976646795E+01  0.86504918547E+00  0.36808305740E+02  0.36844988100E+02  0.00000000000E+00 0. -1.
         11    1    1    2    0    0 -0.10330115616E+02  0.38905852191E+00 -0.18070509715E+03  0.18100053809E+03  0.00000000000E+00 0. -1.
        -15    1    1    2    0    0 -0.15026190106E+01  0.13443873777E+01  0.12711711515E+03  0.12714552266E+03  0.17770000000E+01 0. -1.
         15    1    1    2    0    0  0.10435069947E+02 -0.25984950850E+01  0.16779676258E+02  0.20008951143E+02  0.17770000000E+01 0.  1.
</event>
<event>
 6    1  0.8353910E-003  0.1895420E+03  0.7546771E-02  0.1062984E+00
        -11   -1    0    0    0    0  0.00000000000E+00  0.00000000000E+00  0.18250000000E+03  0.18250000000E+03  0.00000000000E+00 0.  1.
         11   -1    0    0    0    0 -0.00000000000E+00 -0.00000000000E+00 -0.18250000000E+03  0.18250000000E+03  0.00000000000E+00 0. -1.
        -11    1    1    2    0    0  0.13965607330E+01  0.15025011946E+01  0.14101126585E+03  0.14102618547E+03  0.00000000000E+00 0.  1.
         11    1    1    2    0    0 -0.50198641607E+00 -0.16838233747E+02 -0.17464743600E+03  0.17545798644E+03  0.00000000000E+00 0. -1.
        -15    1    1    2    0    0  0.12783038990E+02  0.16691011215E+02  0.20705043889E+02  0.29560996476E+02  0.17770000000E+01 0.  1.
         15    1    1    2    0    0 -0.13677613307E+02 -0.13552786627E+01  0.12931126261E+02  0.18954831611E+02  0.17770000000E+01 0. -1.
</event>
<event>
 6    1  0.8353910E-003  0.1797443E+03  0.7546771E-02  0.1070670E+00
        -11   -1    0    0    0    0  0.00000000000E+00  0.00000000000E+00  0.18250000000E+03  0.18250000000E+03  0.00000000000E+00 0.  1.
         11   -1    0    0    0    0 -0.00000000000E+00 -0.00000000000E+00 -0.18250000000E+03  0.18250000000E+03  0.00000000000E+00 0. -1.
        -11    1    1    2    0    0 -0.36360671206E+00  0.68480017168E+00  0.56222379669E+01  0.56754489579E+01  0.00000000000E+00 0.  1.
         11    1    1    2    0    0 -0.50851107760E+01  0.12660826492E+01 -0.18228231182E+03  0.18235762260E+03  0.00000000000E+00 0. -1.
        -15    1    1    2    0    0  0.81873177982E+00 -0.40370732540E+01  0.10942897875E+03  0.10952089938E+03  0.17770000000E+01 0. -1.
         15    1    1    2    0    0  0.46299857083E+01  0.20861904331E+01  0.67231095102E+02  0.67446029059E+02  0.17770000000E+01 0.  1.
</event>
<event>
 6    1  0.8353910E-003  0.1783950E+03  0.7546771E-02  0.1071770E+00
        -11   -1    0    0    0    0  0.00000000000E+00  0.00000000000E+00  0.18250000000E+03  0.18250000000E+03  0.00000000000E+00 0. -1.
         11   -1    0    0    0    0 -0.00000000000E+00 -0.00000000000E+00 -0.18250000000E+03  0.18250000000E+03  0.00000000000E+00 0. -1.
        -11    1    1    2    0    0  0.78832686254E+00  0.37560866338E+01  0.17715070617E+03  0.17719227507E+03  0.00000000000E+00 0. -1.
         11    1    1    2    0    0  0.43030973964E+01 -0.31055869203E+01 -0.17956436244E+03  0.17964276099E+03  0.00000000000E+00 0. -1.
        -15    1    1    2    0    0 -0.31697673163E+01 -0.24694327922E+01  0.43876062901E+00  0.44154006664E+01  0.17770000000E+01 0. -1.
         15    1    1    2    0    0 -0.19216569426E+01  0.18189330787E+01  0.19748956399E+01  0.37495632730E+01  0.17770000000E+01 0.  1.
</event>
<event>
 6    1  0.8353910E-003  0.1847085E+03  0.7546771E-02  0.1066710E+00
        -11   -1    0    0    0    0  0.00000000000E+00  0.00000000000E+00  0.18250000000E+03  0.18250000000E+03  0.00000000000E+00 0.  1.
         11   -1    0    0    0    0 -0.00000000000E+00 -0.00000000000E+00 -0.18250000000E+03  0.18250000000E+03  0.00000000000E+00 0. -1.
        -11    1    1    2    0    0 -0.24092940622E+01 -0.13710108930E+01  0.18027014645E+03  0.18029145867E+03  0.00000000000E+00 0.  1.
         11    1    1    2    0    0 -0.29841453216E+01 -0.17007592608E+01 -0.15417401423E+03  0.15421227048E+03  0.00000000000E+00 0. -1.
        -15    1    1    2    0    0  0.37686842078E+01 -0.13161371780E+01 -0.48009968516E+00  0.43958414936E+01  0.17770000000E+01 0. -1.
         15    1    1    2    0    0  0.16247551760E+01  0.43879073318E+01 -0.25616032541E+02  0.26100429350E+02  0.17770000000E+01 0.  1.
</event>
<event>
 6    1  0.8685189E-003  0.1835707E+03  0.7546771E-02  0.1067606E+00
        -11   -1    0    0    0    0  0.00000000000E+00  0.00000000000E+00  0.18250000000E+03  0.18250000000E+03  0.00000000000E+00 0.  1.
         11   -1    0    0    0    0 -0.00000000000E+00 -0.00000000000E+00 -0.18250000000E+03  0.18250000000E+03  0.00000000000E+00 0. -1.
        -11    1    1    2    0    0  0.14650680396E+01  0.35435225394E+01  0.18138876533E+03  0.18142928971E+03  0.00000000000E+00 0.  1.
         11    1    1    2    0    0  0.10861629745E+01 -0.11157125966E+01 -0.86935035014E+02  0.86948978588E+02  0.00000000000E+00 0. -1.
        -15    1    1    2    0    0 -0.37156964242E+01  0.12194897341E+01 -0.91177154689E+02  0.91278282310E+02  0.17770000000E+01 0. -1.
         15    1    1    2    0    0  0.11644654101E+01 -0.36472996770E+01 -0.32765756239E+01  0.53434493956E+01  0.17770000000E+01 0.  1.
</event>
<event>
 6    1  0.8353910E-003  0.1853572E+03  0.7546771E-02  0.1066203E+00
        -11   -1    0    0    0    0  0.00000000000E+00  0.00000000000E+00  0.18250000000E+03  0.18250000000E+03  0.00000000000E+00 0. -1.
         11   -1    0    0    0    0 -0.00000000000E+00 -0.00000000000E+00 -0.18250000000E+03  0.18250000000E+03  0.00000000000E+00 0. -1.
        -11    1    1    2    0    0 -0.21632391460E+01  0.26043859428E+01  0.84532622294E+02  0.84600393980E+02  0.00000000000E+00 0. -1.
         11    1    1    2    0    0  0.66809852141E+01 -0.59272986674E+00 -0.17951757672E+03  0.17964283243E+03  0.00000000000E+00 0. -1.
        -15    1    1    2    0    0 -0.67113603718E+01 -0.12133337129E+02  0.85391540384E+02  0.86528221558E+02  0.17770000000E+01 0. -1.
         15    1    1    2    0    0  0.21936143038E+01  0.10121681053E+02  0.95934140395E+01  0.14228552034E+02  0.17770000000E+01 0.  1.
</event>
<event>
 6    1  0.8353910E-003  0.1920008E+03  0.7546771E-02  0.1061134E+00
        -11   -1    0    0    0    0  0.00000000000E+00  0.00000000000E+00  0.18250000000E+03  0.18250000000E+03  0.00000000000E+00 0.  1.
         11   -1    0    0    0    0 -0.00000000000E+00 -0.00000000000E+00 -0.18250000000E+03  0.18250000000E+03  0.00000000000E+00 0.  1.
        -11    1    1    2    0    0  0.12621826902E+02 -0.64868466896E+01  0.17241618913E+03  0.17299922534E+03  0.00000000000E+00 0.  1.
         11    1    1    2    0    0 -0.13466087368E+02 -0.12028849584E+02 -0.10890425035E+03  0.11039096192E+03  0.00000000000E+00 0.  1.
        -15    1    1    2    0    0  0.74817531030E+01  0.28665873853E+02 -0.62647330021E+02  0.69322107880E+02  0.17770000000E+01 0.  1.
         15    1    1    2    0    0 -0.66374926370E+01 -0.10150177580E+02 -0.86460875980E+00  0.12287704859E+02  0.17770000000E+01 0. -1.
</event>
<event>
 6    1  0.8353910E-003  0.1900353E+03  0.7546771E-02  0.1062610E+00
        -11   -1    0    0    0    0  0.00000000000E+00  0.00000000000E+00  0.18250000000E+03  0.18250000000E+03  0.00000000000E+00 0.  1.
         11   -1    0    0    0    0 -0.00000000000E+00 -0.00000000000E+00 -0.18250000000E+03  0.18250000000E+03  0.00000000000E+00 0.  1.
        -11    1    1    2    0    0 -0.76901685625E+01  0.67092602413E-01  0.15526850785E+03  0.15545884575E+03  0.00000000000E+00 0.  1.
         11    1    1    2    0    0  0.57272623650E+01  0.70349514051E+00 -0.17486947434E+03  0.17496465213E+03  0.00000000000E+00 0.  1.
        -15    1    1    2    0    0  0.11737920047E+02 -0.70974883050E+01  0.17983294098E+02  0.22687214524E+02  0.17770000000E+01 0.  1.
         15    1    1    2    0    0 -0.97750138492E+01  0.63269005621E+01  0.16176723956E+01  0.11889287592E+02  0.17770000000E+01 0. -1.
</event>
<event>
 6    1  0.8353910E-003  0.1855540E+03  0.7546771E-02  0.1066049E+00
        -11   -1    0    0    0    0  0.00000000000E+00  0.00000000000E+00  0.18250000000E+03  0.18250000000E+03  0.00000000000E+00 0.  1.
         11   -1    0    0    0    0 -0.00000000000E+00 -0.00000000000E+00 -0.18250000000E+03  0.18250000000E+03  0.00000000000E+00 0. -1.
        -11    1    1    2    0    0  0.15164101559E+01 -0.26984824193E+01  0.17941925167E+03  0.17944595058E+03  0.00000000000E+00 0.  1.
         11    1    1    2    0    0  0.13767338693E+01 -0.29488711623E+01 -0.11830676890E+03  0.11835152219E+03  0.00000000000E+00 0. -1.
        -15    1    1    2    0    0 -0.97652320050E+01  0.19213551055E+01 -0.57547788007E+02  0.58429076624E+02  0.17770000000E+01 0.  1.
         15    1    1    2    0    0  0.68720879798E+01  0.37259984762E+01 -0.35646947687E+01  0.87734506120E+01  0.17770000000E+01 0. -1.
</event>
<event>
 6    1  0.8353910E-003  0.1840911E+03  0.7546771E-02  0.1067195E+00
        -11   -1    0    0    0    0  0.00000000000E+00  0.00000000000E+00  0.18250000000E+03  0.18250000000E+03  0.00000000000E+00 0.  1.
         11   -1    0    0    0    0 -0.00000000000E+00 -0.00000000000E+00 -0.18250000000E+03  0.18250000000E+03  0.00000000000E+00 0.  1.
        -11    1    1    2    0    0 -0.10641699343E+01  0.16808173406E+01  0.11105688746E+03  0.11107470394E+03  0.00000000000E+00 0.  1.
         11    1    1    2    0    0 -0.75972213431E+01  0.49785384630E+01 -0.18068075376E+03  0.18090892293E+03  0.00000000000E+00 0.  1.
        -15    1    1    2    0    0  0.12999995998E+02 -0.82268820618E+01  0.38428498464E+02  0.41431735513E+02  0.17770000000E+01 0. -1.
         15    1    1    2    0    0 -0.43386047203E+01  0.15675262582E+01  0.31195367839E+02  0.31584637613E+02  0.17770000000E+01 0.  1.
</event>
<event>
 6    1  0.8353910E-003  0.1831825E+03  0.7546771E-02  0.1067913E+00
        -11   -1    0    0    0    0  0.00000000000E+00  0.00000000000E+00  0.18250000000E+03  0.18250000000E+03  0.00000000000E+00 0.  1.
         11   -1    0    0    0    0 -0.00000000000E+00 -0.00000000000E+00 -0.18250000000E+03  0.18250000000E+03  0.00000000000E+00 0. -1.
        -11    1    1    2    0    0 -0.45895302878E+01 -0.30771310539E+00  0.18175928965E+03  0.18181748500E+03  0.00000000000E+00 0.  1.
         11    1    1    2    0    0 -0.10640262575E+01  0.20821579542E+01 -0.13321977596E+03  0.13324029511E+03  0.00000000000E+00 0. -1.
        -15    1    1    2    0    0  0.80059195994E+00 -0.78892102783E+00 -0.38929816961E+02  0.38986558216E+02  0.17770000000E+01 0.  1.
         15    1    1    2    0    0  0.48529645853E+01 -0.98552382099E+00 -0.96096967315E+01  0.10955661675E+02  0.17770000000E+01 0. -1.
</event>
<event>
 6    1  0.8353910E-003  0.1594006E+03  0.7546771E-02  0.1088490E+00
        -11   -1    0    0    0    0  0.00000000000E+00  0.00000000000E+00  0.18250000000E+03  0.18250000000E+03  0.00000000000E+00 0. -1.
         11   -1    0    0    0    0 -0.00000000000E+00 -0.00000000000E+00 -0.18250000000E+03  0.18250000000E+03  0.00000000000E+00 0.  1.
        -11    1    1    2    0    0 -0.11596146670E+01  0.21219623507E+02  0.15379606662E+03  0.15525735807E+03  0.00000000000E+00 0. -1.
         11    1    1    2    0    0  0.55049443146E+00 -0.31502294374E+01 -0.16419419139E+03  0.16422533140E+03  0.00000000000E+00 0.  1.
        -15    1    1    2    0    0 -0.66742191344E+01  0.46621092636E+01 -0.10733284217E+02  0.13588288447E+02  0.17770000000E+01 0.  1.
         15    1    1    2    0    0  0.72833393700E+01 -0.22731503333E+02  0.21131408982E+02  0.31929022076E+02  0.17770000000E+01 0. -1.
</event>
<event>
 6    1  0.8353910E-003  0.1911158E+03  0.7546771E-02  0.1061796E+00
        -11   -1    0    0    0    0  0.00000000000E+00  0.00000000000E+00  0.18250000000E+03  0.18250000000E+03  0.00000000000E+00 0. -1.
         11   -1    0    0    0    0 -0.00000000000E+00 -0.00000000000E+00 -0.18250000000E+03  0.18250000000E+03  0.00000000000E+00 0. -1.
        -11    1    1    2    0    0  0.70547212047E+01 -0.15913607479E+02  0.15384181277E+03  0.15482349741E+03  0.00000000000E+00 0. -1.
         11    1    1    2    0    0 -0.83395171804E+01 -0.50886323579E+01 -0.17360951970E+03  0.17388417713E+03  0.00000000000E+00 0. -1.
        -15    1    1    2    0    0  0.53914974919E+01  0.18780882573E+02  0.23084425572E+02  0.30295845068E+02  0.17770000000E+01 0. -1.
         15    1    1    2    0    0 -0.41067015162E+01  0.22213572640E+01 -0.33167186412E+01  0.59964803829E+01  0.17770000000E+01 0.  1.
</event>
<event>
 6    1  0.8353910E-003  0.1897111E+03  0.7546771E-02  0.1062855E+00
        -11   -1    0    0    0    0  0.00000000000E+00  0.00000000000E+00  0.18250000000E+03  0.18250000000E+03  0.00000000000E+00 0.  1.
         11   -1    0    0    0    0 -0.00000000000E+00 -0.00000000000E+00 -0.18250000000E+03  0.18250000000E+03  0.00000000000E+00 0. -1.
        -11    1    1    2    0    0 -0.27434300327E+00 -0.40743556302E+01  0.17524130161E+03  0.17528887423E+03  0.00000000000E+00 0.  1.
         11    1    1    2    0    0 -0.28137476733E+01  0.72816706448E+01 -0.16558639279E+03  0.16577030307E+03  0.00000000000E+00 0. -1.
        -15    1    1    2    0    0  0.11887866074E+02 -0.36772149458E+01 -0.77007511340E+01  0.14741186064E+02  0.17770000000E+01 0.  1.
         15    1    1    2    0    0 -0.87997753970E+01  0.46989993124E+00 -0.19541576863E+01  0.91996366366E+01  0.17770000000E+01 0. -1.
</event>
<event>
 6    1  0.8353910E-003  0.1872236E+03  0.7546771E-02  0.1064756E+00
        -11   -1    0    0    0    0  0.00000000000E+00  0.00000000000E+00  0.18250000000E+03  0.18250000000E+03  0.00000000000E+00 0. -1.
         11   -1    0    0    0    0 -0.00000000000E+00 -0.00000000000E+00 -0.18250000000E+03  0.18250000000E+03  0.00000000000E+00 0.  1.
        -11    1    1    2    0    0  0.55320160335E+01  0.39583033724E+01  0.14941658002E+03  0.14957134001E+03  0.00000000000E+00 0. -1.
         11    1    1    2    0    0  0.50548423327E+01 -0.40748455885E+01 -0.17765781023E+03  0.17777641388E+03  0.00000000000E+00 0.  1.
        -15    1    1    2    0    0 -0.41826320333E+01  0.36112949885E+01 -0.22684250563E+01  0.62321219064E+01  0.17770000000E+01 0.  1.
         15    1    1    2    0    0 -0.64042263328E+01 -0.34947527724E+01  0.30509655258E+02  0.31420124201E+02  0.17770000000E+01 0. -1.
</event>
<event>
 6    1  0.8353910E-003  0.1841434E+03  0.7546771E-02  0.1067154E+00
        -11   -1    0    0    0    0  0.00000000000E+00  0.00000000000E+00  0.18250000000E+03  0.18250000000E+03  0.00000000000E+00 0.  1.
         11   -1    0    0    0    0 -0.00000000000E+00 -0.00000000000E+00 -0.18250000000E+03  0.18250000000E+03  0.00000000000E+00 0.  1.
        -11    1    1    2    0    0 -0.26136488896E+01 -0.30435350151E+00  0.18083742049E+03  0.18085656316E+03  0.00000000000E+00 0.  1.
         11    1    1    2    0    0  0.26481856966E+01  0.21796186967E+01 -0.15384967394E+03  0.15388790010E+03  0.00000000000E+00 0.  1.
        -15    1    1    2    0    0  0.34149261389E+01 -0.38621054679E+01 -0.24772580927E+02  0.25365647517E+02  0.17770000000E+01 0.  1.
         15    1    1    2    0    0 -0.34494629459E+01  0.19868402727E+01 -0.22151656185E+01  0.48898892218E+01  0.17770000000E+01 0. -1.
</event>
<event>
 6    1  0.8353910E-003  0.1908118E+03  0.7546771E-02  0.1062025E+00
        -11   -1    0    0    0    0  0.00000000000E+00  0.00000000000E+00  0.18250000000E+03  0.18250000000E+03  0.00000000000E+00 0. -1.
         11   -1    0    0    0    0 -0.00000000000E+00 -0.00000000000E+00 -0.18250000000E+03  0.18250000000E+03  0.00000000000E+00 0. -1.
        -11    1    1    2    0    0 -0.74766682770E+01  0.11877087424E+02  0.17362184927E+03  0.17418815206E+03  0.00000000000E+00 0. -1.
         11    1    1    2    0    0  0.10191278573E+02 -0.48122934738E+01 -0.16718477228E+03  0.16756422175E+03  0.00000000000E+00 0. -1.
        -15    1    1    2    0    0  0.25821606805E+01 -0.10993846489E+02  0.27901420337E+01  0.11767533130E+02  0.17770000000E+01 0. -1.
         15    1    1    2    0    0 -0.52967709766E+01  0.39290525384E+01 -0.92272190246E+01  0.11480093055E+02  0.17770000000E+01 0.  1.
</event>
<event>
 6    1  0.8353910E-003  0.1863888E+03  0.7546771E-02  0.1065401E+00
        -11   -1    0    0    0    0  0.00000000000E+00  0.00000000000E+00  0.18250000000E+03  0.18250000000E+03  0.00000000000E+00 0.  1.
         11   -1    0    0    0    0 -0.00000000000E+00 -0.00000000000E+00 -0.18250000000E+03  0.18250000000E+03  0.00000000000E+00 0.  1.
        -11    1    1    2    0    0  0.21845339167E+01  0.63122086736E+00  0.94443854950E+02  0.94471225069E+02  0.00000000000E+00 0.  1.
         11    1    1    2    0    0 -0.73297356888E+01  0.71612780622E+01 -0.17831702868E+03  0.17861123046E+03  0.00000000000E+00 0.  1.
        -15    1    1    2    0    0  0.19307771876E+01 -0.64994274436E+01 -0.88959975142E+00  0.70653785717E+01  0.17770000000E+01 0. -1.
         15    1    1    2    0    0  0.32144245844E+01 -0.12930714859E+01  0.84762773486E+02  0.84852165896E+02  0.17770000000E+01 0.  1.
</event>
<event>
 6    1  0.1148662E-002  0.1876109E+03  0.7546771E-02  0.1064458E+00
        -11   -1    0    0    0    0  0.00000000000E+00  0.00000000000E+00  0.18250000000E+03  0.18250000000E+03  0.00000000000E+00 0. -1.
         11   -1    0    0    0    0 -0.00000000000E+00 -0.00000000000E+00 -0.18250000000E+03  0.18250000000E+03  0.00000000000E+00 0. -1.
        -11    1    1    2    0    0  0.38111573794E+00  0.23070686066E+01  0.17064361418E+03  0.17065963458E+03  0.00000000000E+00 0. -1.
         11    1    1    2    0    0  0.55118699871E+01 -0.31491418081E+01 -0.17727548005E+03  0.17738910235E+03  0.00000000000E+00 0. -1.
        -15    1    1    2    0    0 -0.77398134638E+01  0.14013219634E+01 -0.16784936300E+01  0.82367157026E+01  0.17770000000E+01 0.  1.
         15    1    1    2    0    0  0.18468277387E+01 -0.55924876191E+00  0.83103594993E+01  0.87145473710E+01  0.17770000000E+01 0. -1.
</event>
<event>
 6    1  0.8353910E-003  0.1840218E+03  0.7546771E-02  0.1067250E+00
        -11   -1    0    0    0    0  0.00000000000E+00  0.00000000000E+00  0.18250000000E+03  0.18250000000E+03  0.00000000000E+00 0.  1.
         11   -1    0    0    0    0 -0.00000000000E+00 -0.00000000000E+00 -0.18250000000E+03  0.18250000000E+03  0.00000000000E+00 0. -1.
        -11    1    1    2    0    0  0.10661809600E+01  0.25159169444E+01  0.18095756567E+03  0.18097819524E+03  0.00000000000E+00 0.  1.
         11    1    1    2    0    0  0.17586298224E+01  0.20041920630E+01 -0.15973437352E+03  0.15975662630E+03  0.00000000000E+00 0. -1.
        -15    1    1    2    0    0 -0.55691341260E+00 -0.12069273571E+01 -0.19374467276E+02  0.19501141951E+02  0.17770000000E+01 0. -1.
         15    1    1    2    0    0 -0.22678973698E+01 -0.33131816503E+01 -0.18487248800E+01  0.47640365038E+01  0.17770000000E+01 0.  1.
</event>
<event>
 6    1  0.8353910E-003  0.1793995E+03  0.7546771E-02  0.1070950E+00
        -11   -1    0    0    0    0  0.00000000000E+00  0.00000000000E+00  0.18250000000E+03  0.18250000000E+03  0.00000000000E+00 0.  1.
         11   -1    0    0    0    0 -0.00000000000E+00 -0.00000000000E+00 -0.18250000000E+03  0.18250000000E+03  0.00000000000E+00 0.  1.
        -11    1    1    2    0    0 -0.17410594179E+01  0.17500433850E+01  0.18020161307E+03  0.18021852094E+03  0.00000000000E+00 0.  1.
         11    1    1    2    0    0  0.38224833221E+00 -0.45116068766E+01 -0.17854016506E+03  0.17859756787E+03  0.00000000000E+00 0.  1.
        -15    1    1    2    0    0  0.41916379089E+00  0.32198407936E+01 -0.30076304939E+00  0.37136586316E+01  0.17770000000E+01 0. -1.
         15    1    1    2    0    0  0.93964729476E+00 -0.45827730203E+00 -0.13606849560E+01  0.24702525526E+01  0.17770000000E+01 0.  1.
</event>
<event>
 6    1  0.8353910E-003  0.1826511E+03  0.7546771E-02  0.1068335E+00
        -11   -1    0    0    0    0  0.00000000000E+00  0.00000000000E+00  0.18250000000E+03  0.18250000000E+03  0.00000000000E+00 0.  1.
         11   -1    0    0    0    0 -0.00000000000E+00 -0.00000000000E+00 -0.18250000000E+03  0.18250000000E+03  0.00000000000E+00 0. -1.
        -11    1    1    2    0    0 -0.29789664438E+01 -0.23423271081E+01  0.18230956012E+03  0.18234894145E+03  0.00000000000E+00 0.  1.
         11    1    1    2    0    0  0.97337849780E+00 -0.17561882650E+01 -0.58725220800E+02  0.58759537277E+02  0.00000000000E+00 0. -1.
        -15    1    1    2    0    0 -0.64536369032E-01  0.52855121336E+01 -0.91394707464E+02  0.91564682520E+02  0.17770000000E+01 0. -1.
         15    1    1    2    0    0  0.20701243150E+01 -0.11869967605E+01 -0.32189631853E+02  0.32326838754E+02  0.17770000000E+01 0.  1.
</event>
<event>
 6    1  0.8353910E-003  0.1855188E+03  0.7546771E-02  0.1066077E+00
        -11   -1    0    0    0    0  0.00000000000E+00  0.00000000000E+00  0.18250000000E+03  0.18250000000E+03  0.00000000000E+00 0.  1.
         11   -1    0    0    0    0 -0.00000000000E+00 -0.00000000000E+00 -0.18250000000E+03  0.18250000000E+03  0.00000000000E+00 0.  1.
        -11    1    1    2    0    0  0.15590984271E+01  0.18553422013E+01  0.15417038521E+03  0.15418943141E+03  0.00000000000E+00 0.  1.
         11    1    1    2    0    0 -0.38781618549E+01  0.18500704191E+01 -0.17942980125E+03  0.17948124269E+03  0.00000000000E+00 0.  1.
        -15    1    1    2    0    0  0.30010975167E-01 -0.41478636902E+01 -0.12307882373E+01  0.46774183623E+01  0.17770000000E+01 0.  1.
         15    1    1    2    0    0  0.22890524526E+01  0.44245106978E+00  0.26490204275E+02  0.26651907542E+02  0.17770000000E+01 0. -1.
</event>
<event>
 6    1  0.8353910E-003  0.1830521E+03  0.7546771E-02  0.1068016E+00
        -11   -1    0    0    0    0  0.00000000000E+00  0.00000000000E+00  0.18250000000E+03  0.18250000000E+03  0.00000000000E+00 0.  1.
         11   -1    0    0    0    0 -0.00000000000E+00 -0.00000000000E+00 -0.18250000000E+03  0.18250000000E+03  0.00000000000E+00 0.  1.
        -11    1    1    2    0    0 -0.31050651351E+01  0.11281065710E+01  0.18191790431E+03  0.18194789903E+03  0.00000000000E+00 0.  1.
         11    1    1    2    0    0 -0.41310602881E+01 -0.14489179213E+01 -0.13256388154E+03  0.13263614783E+03  0.00000000000E+00 0.  1.
        -15    1    1    2    0    0  0.65679628031E+01 -0.21851636880E+01 -0.33722386614E+02  0.34471294778E+02  0.17770000000E+01 0.  1.
         15    1    1    2    0    0  0.66816262015E+00  0.25059750384E+01 -0.15631636161E+02  0.15944658361E+02  0.17770000000E+01 0.  1.
</event>
<event>
 6    1  0.8353910E-003  0.1884918E+03  0.7546771E-02  0.1063783E+00
        -11   -1    0    0    0    0  0.00000000000E+00  0.00000000000E+00  0.18250000000E+03  0.18250000000E+03  0.00000000000E+00 0.  1.
         11   -1    0    0    0    0 -0.00000000000E+00 -0.00000000000E+00 -0.18250000000E+03  0.18250000000E+03  0.00000000000E+00 0.  1.
        -11    1    1    2    0    0  0.75829308126E+01  0.33311159407E+01  0.16074829348E+03  0.16096152034E+03  0.00000000000E+00 0.  1.
         11    1    1    2    0    0  0.28096904828E+01  0.25460273180E+01 -0.17646743814E+03  0.17650816791E+03  0.00000000000E+00 0.  1.
        -15    1    1    2    0    0 -0.15541575112E+01 -0.28591993787E+01  0.17473648869E+02  0.17862714253E+02  0.17770000000E+01 0. -1.
         15    1    1    2    0    0 -0.88384637842E+01 -0.30179438800E+01 -0.17545042156E+01  0.96675974973E+01  0.17770000000E+01 0.  1.
</event>
<event>
 6    1  0.8353910E-003  0.1836687E+03  0.7546771E-02  0.1067528E+00
        -11   -1    0    0    0    0  0.00000000000E+00  0.00000000000E+00  0.18250000000E+03  0.18250000000E+03  0.00000000000E+00 0.  1.
         11   -1    0    0    0    0 -0.00000000000E+00 -0.00000000000E+00 -0.18250000000E+03  0.18250000000E+03  0.00000000000E+00 0.  1.
        -11    1    1    2    0    0 -0.39420732654E+01  0.35081745816E+01  0.55384377669E+02  0.55635209358E+02  0.00000000000E+00 0.  1.
         11    1    1    2    0    0  0.74512357186E+01  0.45330626216E+01 -0.18112146774E+03  0.18133134215E+03  0.00000000000E+00 0.  1.
        -15    1    1    2    0    0 -0.21911511567E+01 -0.59118064778E+01  0.83809230873E+01  0.10637114271E+02  0.17770000000E+01 0. -1.
         15    1    1    2    0    0 -0.13180112965E+01 -0.21294307254E+01  0.11735616699E+03  0.11739633422E+03  0.17770000000E+01 0.  1.
</event>
<event>
 6    1  0.8353910E-003  0.1832408E+03  0.7546771E-02  0.1067867E+00
        -11   -1    0    0    0    0  0.00000000000E+00  0.00000000000E+00  0.18250000000E+03  0.18250000000E+03  0.00000000000E+00 0.  1.
         11   -1    0    0    0    0 -0.00000000000E+00 -0.00000000000E+00 -0.18250000000E+03  0.18250000000E+03  0.00000000000E+00 0. -1.
        -11    1    1    2    0    0 -0.35836345741E+00 -0.27780663456E+01  0.18173765364E+03  0.18175923863E+03  0.00000000000E+00 0.  1.
         11    1    1    2    0    0  0.30504427785E+01  0.21875955846E+01 -0.15000838681E+03  0.15005534608E+03  0.00000000000E+00 0. -1.
        -15    1    1    2    0    0 -0.25579125060E+01  0.13401529092E+01 -0.30893768196E+02  0.31079278765E+02  0.17770000000E+01 0.  1.
         15    1    1    2    0    0 -0.13416681512E+00 -0.74968214818E+00 -0.83549863799E+00  0.21061365178E+01  0.17770000000E+01 0.  1.
</event>
<event>
 6    1  0.8353910E-003  0.1838498E+03  0.7546771E-02  0.1067385E+00
        -11   -1    0    0    0    0  0.00000000000E+00  0.00000000000E+00  0.18250000000E+03  0.18250000000E+03  0.00000000000E+00 0.  1.
         11   -1    0    0    0    0 -0.00000000000E+00 -0.00000000000E+00 -0.18250000000E+03  0.18250000000E+03  0.00000000000E+00 0. -1.
        -11    1    1    2    0    0 -0.18339967898E+01  0.17476985786E+01  0.18113253416E+03  0.18115024959E+03  0.00000000000E+00 0.  1.
         11    1    1    2    0    0 -0.24994336089E+01 -0.67348258914E-01 -0.15859632306E+03  0.15861603132E+03  0.00000000000E+00 0. -1.
        -15    1    1    2    0    0  0.41720253296E+01 -0.32894770589E+01 -0.49245439125E+01  0.74589085272E+01  0.17770000000E+01 0.  1.
         15    1    1    2    0    0  0.16140506908E+00  0.16091267392E+01 -0.17611667188E+02  0.17774810564E+02  0.17770000000E+01 0. -1.
</event>
<event>
 6    1  0.8353910E-003  0.1831222E+03  0.7546771E-02  0.1067961E+00
        -11   -1    0    0    0    0  0.00000000000E+00  0.00000000000E+00  0.18250000000E+03  0.18250000000E+03  0.00000000000E+00 0.  1.
         11   -1    0    0    0    0 -0.00000000000E+00 -0.00000000000E+00 -0.18250000000E+03  0.18250000000E+03  0.00000000000E+00 0.  1.
        -11    1    1    2    0    0 -0.20803884012E+01  0.32202674343E+01  0.18183740080E+03  0.18187781192E+03  0.00000000000E+00 0.  1.
         11    1    1    2    0    0 -0.52585243874E+01 -0.13333697031E+01 -0.14728755302E+03  0.14738742561E+03  0.00000000000E+00 0.  1.
        -15    1    1    2    0    0  0.63887150998E+01 -0.90546504682E+00 -0.28704396344E+02  0.29474321808E+02  0.17770000000E+01 0. -1.
         15    1    1    2    0    0  0.95019768872E+00 -0.98143268444E+00 -0.58454514350E+01  0.62604406587E+01  0.17770000000E+01 0.  1.
</event>
<event>
 6    1  0.8353910E-003  0.1786678E+03  0.7546771E-02  0.1071547E+00
        -11   -1    0    0    0    0  0.00000000000E+00  0.00000000000E+00  0.18250000000E+03  0.18250000000E+03  0.00000000000E+00 0. -1.
         11   -1    0    0    0    0 -0.00000000000E+00 -0.00000000000E+00 -0.18250000000E+03  0.18250000000E+03  0.00000000000E+00 0.  1.
        -11    1    1    2    0    0  0.18127328085E+01 -0.27613642094E+01  0.17995266653E+03  0.17998298065E+03  0.00000000000E+00 0. -1.
         11    1    1    2    0    0 -0.17930933428E+01 -0.31775526242E+01 -0.17737371250E+03  0.17741123389E+03  0.00000000000E+00 0.  1.
        -15    1    1    2    0    0 -0.84166089816E+00  0.33408314751E+01 -0.10820075142E+01  0.40246760457E+01  0.17770000000E+01 0. -1.
         15    1    1    2    0    0  0.82202143241E+00  0.25980853585E+01 -0.14969465167E+01  0.35811094146E+01  0.17770000000E+01 0.  1.
</event>
<event>
 6    1  0.8353910E-003  0.1839989E+03  0.7546771E-02  0.1067268E+00
        -11   -1    0    0    0    0  0.00000000000E+00  0.00000000000E+00  0.18250000000E+03  0.18250000000E+03  0.00000000000E+00 0.  1.
         11   -1    0    0    0    0 -0.00000000000E+00 -0.00000000000E+00 -0.18250000000E+03  0.18250000000E+03  0.00000000000E+00 0. -1.
        -11    1    1    2    0    0 -0.21878934059E+01  0.13937180607E+01  0.18098246770E+03  0.18100105785E+03  0.00000000000E+00 0.  1.
         11    1    1    2    0    0 -0.28777845667E+01 -0.41453254353E+00 -0.17063962239E+03  0.17066439057E+03  0.00000000000E+00 0. -1.
        -15    1    1    2    0    0  0.45286732455E+01 -0.15821662314E+01 -0.34489999422E+01  0.61697213024E+01  0.17770000000E+01 0.  1.
         15    1    1    2    0    0  0.53700472715E+00  0.60298071421E+00 -0.68938453713E+01  0.71648302717E+01  0.17770000000E+01 0.  1.
</event>
<event>
 6    1  0.8353910E-003  0.1902617E+03  0.7546771E-02  0.1062439E+00
        -11   -1    0    0    0    0  0.00000000000E+00  0.00000000000E+00  0.18250000000E+03  0.18250000000E+03  0.00000000000E+00 0.  1.
         11   -1    0    0    0    0 -0.00000000000E+00 -0.00000000000E+00 -0.18250000000E+03  0.18250000000E+03  0.00000000000E+00 0. -1.
        -11    1    1    2    0    0 -0.70744937413E+01 -0.49425752950E+01  0.17452505057E+03  0.17473829228E+03  0.00000000000E+00 0.  1.
         11    1    1    2    0    0  0.20828048857E+01 -0.32438121851E+01 -0.13483592525E+03  0.13489101946E+03  0.00000000000E+00 0. -1.
        -15    1    1    2    0    0 -0.78365913725E+01 -0.31452818995E+01 -0.36951726197E+02  0.37945918891E+02  0.17770000000E+01 0. -1.
         15    1    1    2    0    0  0.12828280228E+02  0.11331669380E+02 -0.27373991306E+01  0.17424769368E+02  0.17770000000E+01 0.  1.
</event>
<event>
 6    1  0.8353910E-003  0.1840449E+03  0.7546771E-02  0.1067232E+00
        -11   -1    0    0    0    0  0.00000000000E+00  0.00000000000E+00  0.18250000000E+03  0.18250000000E+03  0.00000000000E+00 0.  1.
         11   -1    0    0    0    0 -0.00000000000E+00 -0.00000000000E+00 -0.18250000000E+03  0.18250000000E+03  0.00000000000E+00 0. -1.
        -11    1    1    2    0    0  0.11660386533E+01 -0.26116801001E+01  0.18093249186E+03  0.18095509700E+03  0.00000000000E+00 0.  1.
         11    1    1    2    0    0 -0.12619481704E+01  0.24647543636E+01 -0.82907167272E+02  0.82953396026E+02  0.00000000000E+00 0. -1.
        -15    1    1    2    0    0 -0.46190325240E+01  0.86244313232E+00 -0.28412110692E+01  0.57714364723E+01  0.17770000000E+01 0.  1.
         15    1    1    2    0    0  0.47149420411E+01 -0.71551739582E+00 -0.95184113523E+02  0.95320070498E+02  0.17770000000E+01 0. -1.
</event>
<event>
 6    1  0.8353910E-003  0.1849151E+03  0.7546771E-02  0.1066548E+00
        -11   -1    0    0    0    0  0.00000000000E+00  0.00000000000E+00  0.18250000000E+03  0.18250000000E+03  0.00000000000E+00 0. -1.
         11   -1    0    0    0    0 -0.00000000000E+00 -0.00000000000E+00 -0.18250000000E+03  0.18250000000E+03  0.00000000000E+00 0.  1.
        -11    1    1    2    0    0  0.27394499622E+01  0.99613901550E+00  0.18006128599E+03  0.18008487885E+03  0.00000000000E+00 0. -1.
         11    1    1    2    0    0 -0.25141468429E+01 -0.14803908075E+01 -0.92154940848E+02  0.92201115037E+02  0.00000000000E+00 0.  1.
        -15    1    1    2    0    0 -0.13222338126E+01  0.30230919135E+01  0.89399729105E+00  0.38528362448E+01  0.17770000000E+01 0. -1.
         15    1    1    2    0    0  0.10969306933E+01 -0.25388401215E+01 -0.88800342429E+02  0.88861169870E+02  0.17770000000E+01 0.  1.
</event>
<event>
 6    1  0.8353910E-003  0.1852437E+03  0.7546771E-02  0.1066292E+00
        -11   -1    0    0    0    0  0.00000000000E+00  0.00000000000E+00  0.18250000000E+03  0.18250000000E+03  0.00000000000E+00 0.  1.
         11   -1    0    0    0    0 -0.00000000000E+00 -0.00000000000E+00 -0.18250000000E+03  0.18250000000E+03  0.00000000000E+00 0.  1.
        -11    1    1    2    0    0  0.33863680696E+01 -0.16020254069E+01  0.15252344543E+03  0.15256944445E+03  0.00000000000E+00 0.  1.
         11    1    1    2    0    0  0.15215878742E+01  0.46718671901E+01 -0.17968909003E+03  0.17975625343E+03  0.00000000000E+00 0.  1.
        -15    1    1    2    0    0 -0.84058385621E+01  0.34770578528E+01  0.20666212209E+02  0.22649461568E+02  0.17770000000E+01 0.  1.
         15    1    1    2    0    0  0.34978826183E+01 -0.65468996361E+01  0.64994323890E+01  0.10024840549E+02  0.17770000000E+01 0. -1.
</event>
<event>
 6    1  0.8353910E-003  0.1841888E+03  0.7546771E-02  0.1067118E+00
        -11   -1    0    0    0    0  0.00000000000E+00  0.00000000000E+00  0.18250000000E+03  0.18250000000E+03  0.00000000000E+00 0. -1.
         11   -1    0    0    0    0 -0.00000000000E+00 -0.00000000000E+00 -0.18250000000E+03  0.18250000000E+03  0.00000000000E+00 0. -1.
        -11    1    1    2    0    0 -0.92049967894E+00  0.55297089872E+01  0.13804205375E+03  0.13815583087E+03  0.00000000000E+00 0. -1.
         11    1    1    2    0    0  0.18884430909E+01 -0.25951269369E+01 -0.18078266841E+03  0.18081115591E+03  0.00000000000E+00 0. -1.
        -15    1    1    2    0    0 -0.42547490928E-01  0.32169433881E+01  0.10207042142E+01  0.38144594826E+01  0.17770000000E+01 0. -1.
         15    1    1    2    0    0 -0.92539592108E+00 -0.61515254385E+01  0.41719910450E+02  0.42218553739E+02  0.17770000000E+01 0.  1.
</event>
<event>
 6    1  0.8353910E-003  0.1868920E+03  0.7546771E-02  0.1065012E+00
        -11   -1    0    0    0    0  0.00000000000E+00  0.00000000000E+00  0.18250000000E+03  0.18250000000E+03  0.00000000000E+00 0. -1.
         11   -1    0    0    0    0 -0.00000000000E+00 -0.00000000000E+00 -0.18250000000E+03  0.18250000000E+03  0.00000000000E+00 0.  1.
        -11    1    1    2    0    0 -0.19658693996E+00 -0.28173537088E+01  0.17808561524E+03  0.17810800792E+03  0.00000000000E+00 0. -1.
         11    1    1    2    0    0 -0.10606506672E+02 -0.39739722389E-01 -0.16733519779E+03  0.16767101116E+03  0.00000000000E+00 0.  1.
        -15    1    1    2    0    0  0.69059395794E+01  0.44111329514E+01 -0.11866383099E+02  0.14529930222E+02  0.17770000000E+01 0.  1.
         15    1    1    2    0    0  0.38971540326E+01 -0.15540395202E+01  0.11159656472E+01  0.46910507043E+01  0.17770000000E+01 0. -1.
</event>
<event>
 6    1  0.8353910E-003  0.1831810E+03  0.7546771E-02  0.1067914E+00
        -11   -1    0    0    0    0  0.00000000000E+00  0.00000000000E+00  0.18250000000E+03  0.18250000000E+03  0.00000000000E+00 0.  1.
         11   -1    0    0    0    0 -0.00000000000E+00 -0.00000000000E+00 -0.18250000000E+03  0.18250000000E+03  0.00000000000E+00 0. -1.
        -11    1    1    2    0    0 -0.90993190907E+00  0.31893253508E+01  0.18178878635E+03  0.18181903810E+03  0.00000000000E+00 0.  1.
         11    1    1    2    0    0 -0.57993953930E+01 -0.25783423261E+01 -0.13709823867E+03  0.13724506506E+03  0.00000000000E+00 0. -1.
        -15    1    1    2    0    0  0.68574732810E+01  0.16644986450E+01 -0.37236526050E+02  0.37940902688E+02  0.17770000000E+01 0. -1.
         15    1    1    2    0    0 -0.14814597893E+00 -0.22754816697E+01 -0.74540216318E+01  0.79949941556E+01  0.17770000000E+01 0.  1.
</event>
<event>
 6    1  0.8353910E-003  0.1844517E+03  0.7546771E-02  0.1066912E+00
        -11   -1    0    0    0    0  0.00000000000E+00  0.00000000000E+00  0.18250000000E+03  0.18250000000E+03  0.00000000000E+00 0.  1.
         11   -1    0    0    0    0 -0.00000000000E+00 -0.00000000000E+00 -0.18250000000E+03  0.18250000000E+03  0.00000000000E+00 0. -1.
        -11    1    1    2    0    0 -0.62315433539E+00  0.38248137339E+01  0.83075644043E+02  0.83165979551E+02  0.00000000000E+00 0.  1.
         11    1    1    2    0    0  0.26910116951E+01 -0.12558877643E+01 -0.18052391689E+03  0.18054834080E+03  0.00000000000E+00 0. -1.
        -15    1    1    2    0    0  0.46154165250E+01 -0.78077861243E+01  0.87899956023E+02  0.88384521223E+02  0.17770000000E+01 0.  1.
         15    1    1    2    0    0 -0.66832738847E+01  0.52388601546E+01  0.95483168220E+01  0.12901158424E+02  0.17770000000E+01 0. -1.
</event>
<event>
 6    1  0.8353910E-003  0.1838400E+03  0.7546771E-02  0.1067393E+00
        -11   -1    0    0    0    0  0.00000000000E+00  0.00000000000E+00  0.18250000000E+03  0.18250000000E+03  0.00000000000E+00 0.  1.
         11   -1    0    0    0    0 -0.00000000000E+00 -0.00000000000E+00 -0.18250000000E+03  0.18250000000E+03  0.00000000000E+00 0. -1.
        -11    1    1    2    0    0 -0.20245765671E+01  0.55911131479E+01  0.13436165750E+03  0.13449317626E+03  0.00000000000E+00 0.  1.
         11    1    1    2    0    0 -0.39014720374E+01 -0.21438556319E+01 -0.18110532890E+03  0.18116003355E+03  0.00000000000E+00 0. -1.
        -15    1    1    2    0    0  0.75639138111E+01  0.24285029840E+00  0.42570743465E+02  0.43274677313E+02  0.17770000000E+01 0.  1.
         15    1    1    2    0    0 -0.16378652066E+01 -0.36901078143E+01  0.41729279389E+01  0.60721128695E+01  0.17770000000E+01 0. -1.
</event>
<event>
 6    1  0.8353910E-003  0.1827969E+03  0.7546771E-02  0.1068219E+00
        -11   -1    0    0    0    0  0.00000000000E+00  0.00000000000E+00  0.18250000000E+03  0.18250000000E+03  0.00000000000E+00 0. -1.
         11   -1    0    0    0    0 -0.00000000000E+00 -0.00000000000E+00 -0.18250000000E+03  0.18250000000E+03  0.00000000000E+00 0.  1.
        -11    1    1    2    0    0  0.31141965712E+00 -0.14008338137E+01  0.67608516264E+02  0.67623744269E+02  0.00000000000E+00 0. -1.
         11    1    1    2    0    0 -0.19229107758E+01  0.26366915536E+01 -0.18217385272E+03  0.18220307995E+03  0.00000000000E+00 0.  1.
        -15    1    1    2    0    0  0.48350245039E+01 -0.43341624448E+01  0.78538372495E+02  0.78826366840E+02  0.17770000000E+01 0. -1.
         15    1    1    2    0    0 -0.32235333852E+01  0.30983047049E+01  0.36026963958E+02  0.36346808946E+02  0.17770000000E+01 0. -1.
</event>
<event>
 6    1  0.8353910E-003  0.1871815E+03  0.7546771E-02  0.1064788E+00
        -11   -1    0    0    0    0  0.00000000000E+00  0.00000000000E+00  0.18250000000E+03  0.18250000000E+03  0.00000000000E+00 0. -1.
         11   -1    0    0    0    0 -0.00000000000E+00 -0.00000000000E+00 -0.18250000000E+03  0.18250000000E+03  0.00000000000E+00 0. -1.
        -11    1    1    2    0    0 -0.52128791068E+00 -0.24577918881E+01  0.14787574938E+03  0.14789709171E+03  0.00000000000E+00 0. -1.
         11    1    1    2    0    0  0.30423905996E+01  0.10032263597E+02 -0.17750922233E+03  0.17781852115E+03  0.00000000000E+00 0. -1.
        -15    1    1    2    0    0 -0.94799901622E+01 -0.75073812253E+01  0.43069770390E+01  0.12959119050E+02  0.17770000000E+01 0.  1.
         15    1    1    2    0    0  0.69588874733E+01 -0.67090483818E-01  0.25326495904E+02  0.26325268085E+02  0.17770000000E+01 0. -1.
</event>
<event>
 6    1  0.8353910E-003  0.1898342E+03  0.7546771E-02  0.1062762E+00
        -11   -1    0    0    0    0  0.00000000000E+00  0.00000000000E+00  0.18250000000E+03  0.18250000000E+03  0.00000000000E+00 0. -1.
         11   -1    0    0    0    0 -0.00000000000E+00 -0.00000000000E+00 -0.18250000000E+03  0.18250000000E+03  0.00000000000E+00 0.  1.
        -11    1    1    2    0    0  0.50606424930E+00  0.51362791228E+00  0.21506929707E+02  0.21519013455E+02  0.00000000000E+00 0. -1.
         11    1    1    2    0    0  0.25404205598E+01  0.14823312423E+02 -0.17451896399E+03  0.17516578752E+03  0.00000000000E+00 0.  1.
        -15    1    1    2    0    0 -0.59148908740E+01 -0.10769270236E+02 -0.25298455755E+01  0.12669686780E+02  0.17770000000E+01 0.  1.
         15    1    1    2    0    0  0.28684060649E+01 -0.45676700996E+01  0.15554187985E+03  0.15564551224E+03  0.17770000000E+01 0. -1.
</event>
<event>
 6    1  0.8353910E-003  0.1835408E+03  0.7546771E-02  0.1067629E+00
        -11   -1    0    0    0    0  0.00000000000E+00  0.00000000000E+00  0.18250000000E+03  0.18250000000E+03  0.00000000000E+00 0.  1.
         11   -1    0    0    0    0 -0.00000000000E+00 -0.00000000000E+00 -0.18250000000E+03  0.18250000000E+03  0.00000000000E+00 0.  1.
        -11    1    1    2    0    0 -0.20934453655E+01  0.21389142789E+01  0.18143455297E+03  0.18145923641E+03  0.00000000000E+00 0.  1.
         11    1    1    2    0    0  0.24824578053E+01 -0.15139915565E+01 -0.16929503099E+03  0.16931999966E+03  0.00000000000E+00 0.  1.
        -15    1    1    2    0    0  0.20163999310E+01 -0.22472989867E+01 -0.35762494725E+01  0.50063470422E+01  0.17770000000E+01 0.  1.
         15    1    1    2    0    0 -0.24054123708E+01  0.16223762643E+01 -0.85632725084E+01  0.92144168817E+01  0.17770000000E+01 0.  1.
</event>
<event>
 6    1  0.8353910E-003  0.1862885E+03  0.7546771E-02  0.1065479E+00
        -11   -1    0    0    0    0  0.00000000000E+00  0.00000000000E+00  0.18250000000E+03  0.18250000000E+03  0.00000000000E+00 0. -1.
         11   -1    0    0    0    0 -0.00000000000E+00 -0.00000000000E+00 -0.18250000000E+03  0.18250000000E+03  0.00000000000E+00 0. -1.
        -11    1    1    2    0    0  0.20775210621E+01 -0.18299016660E+01  0.17869001937E+03  0.17871146482E+03  0.00000000000E+00 0. -1.
         11    1    1    2    0    0  0.36504290759E+01 -0.92974478219E+01 -0.15567409359E+03  0.15599420369E+03  0.00000000000E+00 0. -1.
        -15    1    1    2    0    0 -0.10527071770E+02  0.54558586284E+01 -0.15282224675E+02  0.19423947937E+02  0.17770000000E+01 0.  1.
         15    1    1    2    0    0  0.47991216322E+01  0.56714908595E+01 -0.77337011059E+01  0.10870383563E+02  0.17770000000E+01 0. -1.
</event>
<event>
 6    1  0.8353910E-003  0.1852123E+03  0.7546771E-02  0.1066316E+00
        -11   -1    0    0    0    0  0.00000000000E+00  0.00000000000E+00  0.18250000000E+03  0.18250000000E+03  0.00000000000E+00 0. -1.
         11   -1    0    0    0    0 -0.00000000000E+00 -0.00000000000E+00 -0.18250000000E+03  0.18250000000E+03  0.00000000000E+00 0. -1.
        -11    1    1    2    0    0 -0.20728002519E+00 -0.29307621207E+01  0.17976365553E+03  0.17978766415E+03  0.00000000000E+00 0. -1.
         11    1    1    2    0    0  0.56978681477E+01 -0.83981368022E+00 -0.12503866532E+03  0.12517123796E+03  0.00000000000E+00 0. -1.
        -15    1    1    2    0    0 -0.55498130489E+01 -0.94105391211E+01 -0.29802808444E+02  0.31791882480E+02  0.17770000000E+01 0.  1.
         15    1    1    2    0    0  0.59224926330E-01  0.13181114922E+02 -0.24922181765E+02  0.28249215407E+02  0.17770000000E+01 0. -1.
</event>
<event>
 6    1  0.8353910E-003  0.1827905E+03  0.7546771E-02  0.1068224E+00
        -11   -1    0    0    0    0  0.00000000000E+00  0.00000000000E+00  0.18250000000E+03  0.18250000000E+03  0.00000000000E+00 0. -1.
         11   -1    0    0    0    0 -0.00000000000E+00 -0.00000000000E+00 -0.18250000000E+03  0.18250000000E+03  0.00000000000E+00 0.  1.
        -11    1    1    2    0    0  0.41272520506E+00  0.38184664857E+01  0.18216904457E+03  0.18220952727E+03  0.00000000000E+00 0. -1.
         11    1    1    2    0    0  0.37195152807E+01 -0.16996845822E+01 -0.90957545805E+02  0.91049430863E+02  0.00000000000E+00 0.  1.
        -15    1    1    2    0    0 -0.22723342567E+01  0.14642017910E+01 -0.12693006525E+02  0.13098760762E+02  0.17770000000E+01 0. -1.
         15    1    1    2    0    0 -0.18599062291E+01 -0.35829836945E+01 -0.78518492245E+02  0.78642281101E+02  0.17770000000E+01 0.  1.
</event>
<event>
 6    1  0.8353910E-003  0.1412150E+03  0.7546771E-02  0.1107087E+00
        -11   -1    0    0    0    0  0.00000000000E+00  0.00000000000E+00  0.18250000000E+03  0.18250000000E+03  0.00000000000E+00 0.  1.
         11   -1    0    0    0    0 -0.00000000000E+00 -0.00000000000E+00 -0.18250000000E+03  0.18250000000E+03  0.00000000000E+00 0. -1.
        -11    1    1    2    0    0 -0.25531531543E+02  0.13518202700E+02  0.10919141181E+03  0.11294850738E+03  0.00000000000E+00 0.  1.
         11    1    1    2    0    0  0.31974086542E+01  0.17507559948E+01 -0.13298548886E+03  0.13303544195E+03  0.00000000000E+00 0. -1.
        -15    1    1    2    0    0 -0.30013032920E+02 -0.41300094888E+02 -0.91340546812E+01  0.51894784581E+02  0.17770000000E+01 0. -1.
         15    1    1    2    0    0  0.52347155809E+02  0.26031136193E+02  0.32928131729E+02  0.67121266086E+02  0.17770000000E+01 0.  1.
</event>
<event>
 6    1  0.8353910E-003  0.1857294E+03  0.7546771E-02  0.1065913E+00
        -11   -1    0    0    0    0  0.00000000000E+00  0.00000000000E+00  0.18250000000E+03  0.18250000000E+03  0.00000000000E+00 0.  1.
         11   -1    0    0    0    0 -0.00000000000E+00 -0.00000000000E+00 -0.18250000000E+03  0.18250000000E+03  0.00000000000E+00 0.  1.
        -11    1    1    2    0    0  0.16184177812E+01 -0.19605133377E+01  0.17925259646E+03  0.17927062287E+03  0.00000000000E+00 0.  1.
         11    1    1    2    0    0  0.19108580894E+01  0.16881414829E+01 -0.17453247173E+03  0.17455109535E+03  0.00000000000E+00 0.  1.
        -15    1    1    2    0    0 -0.18505453995E+01 -0.17904752601E+01  0.20156064708E+01  0.37216553277E+01  0.17770000000E+01 0.  1.
         15    1    1    2    0    0 -0.16787304711E+01  0.20628471149E+01 -0.67357311982E+01  0.74566264482E+01  0.17770000000E+01 0.  1.
</event>
<event>
 6    1  0.8353910E-003  0.1718417E+03  0.7546771E-02  0.1077270E+00
        -11   -1    0    0    0    0  0.00000000000E+00  0.00000000000E+00  0.18250000000E+03  0.18250000000E+03  0.00000000000E+00 0.  1.
         11   -1    0    0    0    0 -0.00000000000E+00 -0.00000000000E+00 -0.18250000000E+03  0.18250000000E+03  0.00000000000E+00 0. -1.
        -11    1    1    2    0    0 -0.50371612930E+00 -0.29987483090E+01  0.17023963391E+03  0.17026678823E+03  0.00000000000E+00 0.  1.
         11    1    1    2    0    0 -0.80263016967E+01  0.12185089163E+02 -0.17304253672E+03  0.17365660780E+03  0.00000000000E+00 0. -1.
        -15    1    1    2    0    0  0.68406579186E+01  0.31300908724E+01  0.35295215351E+01  0.84974890936E+01  0.17770000000E+01 0. -1.
         15    1    1    2    0    0  0.16893599074E+01 -0.12316431727E+02 -0.72661872122E+00  0.12579114879E+02  0.17770000000E+01 0.  1.
</event>
<event>
 6    1  0.8353910E-003  0.1831776E+03  0.7546771E-02  0.1067917E+00
        -11   -1    0    0    0    0  0.00000000000E+00  0.00000000000E+00  0.18250000000E+03  0.18250000000E+03  0.00000000000E+00 0. -1.
         11   -1    0    0    0    0 -0.00000000000E+00 -0.00000000000E+00 -0.18250000000E+03  0.18250000000E+03  0.00000000000E+00 0.  1.
        -11    1    1    2    0    0 -0.28230581338E+01 -0.12198968552E+01  0.18179636977E+03  0.18182238000E+03  0.00000000000E+00 0. -1.
         11    1    1    2    0    0  0.12872176723E+01  0.10299860894E+01 -0.11802804319E+03  0.11803955599E+03  0.00000000000E+00 0.  1.
        -15    1    1    2    0    0  0.18296212539E+00 -0.52018992464E+01 -0.48182762463E+02  0.48495665358E+02  0.17770000000E+01 0.  1.
         15    1    1    2    0    0  0.13528783361E+01  0.53918100122E+01 -0.15585564120E+02  0.16642398654E+02  0.17770000000E+01 0. -1.
</event>
<event>
 6    1  0.8353910E-003  0.2023357E+03  0.7546771E-02  0.1053678E+00
        -11   -1    0    0    0    0  0.00000000000E+00  0.00000000000E+00  0.18250000000E+03  0.18250000000E+03  0.00000000000E+00 0. -1.
         11   -1    0    0    0    0 -0.00000000000E+00 -0.00000000000E+00 -0.18250000000E+03  0.18250000000E+03  0.00000000000E+00 0.  1.
        -11    1    1    2    0    0 -0.15982611413E+01  0.96617540422E+01  0.16236927548E+03  0.16266433398E+03  0.00000000000E+00 0. -1.
         11    1    1    2    0    0  0.71551433538E+01  0.42092802883E+00 -0.14241490136E+03  0.14259515204E+03  0.00000000000E+00 0.  1.
        -15    1    1    2    0    0  0.94848337131E+01  0.51830810482E+01  0.15076490322E+02  0.18635575901E+02  0.17770000000E+01 0. -1.
         15    1    1    2    0    0 -0.15041715926E+02 -0.15265763119E+02 -0.35030864443E+02  0.41104938076E+02  0.17770000000E+01 0.  1.
</event>
<event>
 6    1  0.8353910E-003  0.1900412E+03  0.7546771E-02  0.1062606E+00
        -11   -1    0    0    0    0  0.00000000000E+00  0.00000000000E+00  0.18250000000E+03  0.18250000000E+03  0.00000000000E+00 0. -1.
         11   -1    0    0    0    0 -0.00000000000E+00 -0.00000000000E+00 -0.18250000000E+03  0.18250000000E+03  0.00000000000E+00 0.  1.
        -11    1    1    2    0    0  0.99773619010E+00 -0.34101713866E+01  0.14052601012E+03  0.14057092255E+03  0.00000000000E+00 0. -1.
         11    1    1    2    0    0  0.23877871178E+00  0.55168086861E+01 -0.17487161780E+03  0.17495878059E+03  0.00000000000E+00 0.  1.
        -15    1    1    2    0    0  0.11796443919E+02  0.81235492483E+01  0.28256522732E+02  0.31729118290E+02  0.17770000000E+01 0.  1.
         15    1    1    2    0    0 -0.13032958821E+02 -0.10230186548E+02  0.60890849499E+01  0.17741178567E+02  0.17770000000E+01 0. -1.
</event>
<event>
 6    1  0.8353910E-003  0.1847833E+03  0.7546771E-02  0.1066652E+00
        -11   -1    0    0    0    0  0.00000000000E+00  0.00000000000E+00  0.18250000000E+03  0.18250000000E+03  0.00000000000E+00 0.  1.
         11   -1    0    0    0    0 -0.00000000000E+00 -0.00000000000E+00 -0.18250000000E+03  0.18250000000E+03  0.00000000000E+00 0.  1.
        -11    1    1    2    0    0  0.62062600623E+01 -0.16307457051E+01  0.15116600747E+03  0.15130214410E+03  0.00000000000E+00 0.  1.
         11    1    1    2    0    0 -0.63858994635E+00 -0.36461635036E+01 -0.18017866366E+03  0.18021668386E+03  0.00000000000E+00 0.  1.
        -15    1    1    2    0    0 -0.14233500295E+01  0.39927402716E+00  0.26143340510E+02  0.26245329625E+02  0.17770000000E+01 0. -1.
         15    1    1    2    0    0 -0.41443200865E+01  0.48776351816E+01  0.28693156816E+01  0.72358424130E+01  0.17770000000E+01 0.  1.
</event>
<event>
 6    1  0.8353910E-003  0.1835271E+03  0.7546771E-02  0.1067640E+00
        -11   -1    0    0    0    0  0.00000000000E+00  0.00000000000E+00  0.18250000000E+03  0.18250000000E+03  0.00000000000E+00 0.  1.
         11   -1    0    0    0    0 -0.00000000000E+00 -0.00000000000E+00 -0.18250000000E+03  0.18250000000E+03  0.00000000000E+00 0.  1.
        -11    1    1    2    0    0 -0.24684459898E+01 -0.36325395719E+00  0.12224534933E+03  0.12227080850E+03  0.00000000000E+00 0.  1.
         11    1    1    2    0    0 -0.47087414983E+01 -0.48199096049E+01 -0.18134771793E+03  0.18147285906E+03  0.00000000000E+00 0.  1.
        -15    1    1    2    0    0  0.47502321466E+01  0.38681872708E+01  0.89158475571E+01  0.10962556493E+02  0.17770000000E+01 0.  1.
         15    1    1    2    0    0  0.24269553414E+01  0.13149762912E+01  0.50186521051E+02  0.50293775948E+02  0.17770000000E+01 0.  1.
</event>
<event>
 6    1  0.8353910E-003  0.1834431E+03  0.7546771E-02  0.1067707E+00
        -11   -1    0    0    0    0  0.00000000000E+00  0.00000000000E+00  0.18250000000E+03  0.18250000000E+03  0.00000000000E+00 0.  1.
         11   -1    0    0    0    0 -0.00000000000E+00 -0.00000000000E+00 -0.18250000000E+03  0.18250000000E+03  0.00000000000E+00 0. -1.
        -11    1    1    2    0    0  0.23618909196E+01  0.69676908108E+00  0.17076351991E+03  0.17078127458E+03  0.00000000000E+00 0.  1.
         11    1    1    2    0    0  0.20153029268E+01  0.15701773271E+01 -0.18153890802E+03  0.18155688372E+03  0.00000000000E+00 0. -1.
        -15    1    1    2    0    0 -0.84229112771E+00 -0.96149610083E+00  0.56342254900E+01  0.60445144527E+01  0.17770000000E+01 0.  1.
         15    1    1    2    0    0 -0.35349027187E+01 -0.13054503073E+01  0.51411626168E+01  0.66173272390E+01  0.17770000000E+01 0. -1.
</event>
<event>
 6    1  0.8353910E-003  0.1851684E+03  0.7546771E-02  0.1066350E+00
        -11   -1    0    0    0    0  0.00000000000E+00  0.00000000000E+00  0.18250000000E+03  0.18250000000E+03  0.00000000000E+00 0. -1.
         11   -1    0    0    0    0 -0.00000000000E+00 -0.00000000000E+00 -0.18250000000E+03  0.18250000000E+03  0.00000000000E+00 0. -1.
        -11    1    1    2    0    0  0.27116479488E+01  0.20567411961E+01  0.17979940310E+03  0.17983161172E+03  0.00000000000E+00 0. -1.
         11    1    1    2    0    0 -0.25300472958E+01  0.92721580718E+00 -0.17154845000E+03  0.17156961143E+03  0.00000000000E+00 0. -1.
        -15    1    1    2    0    0 -0.21544364132E+01 -0.27324404662E+01  0.94843463759E+00  0.40205825973E+01  0.17770000000E+01 0.  1.
         15    1    1    2    0    0  0.19728357602E+01 -0.25151653707E+00 -0.91993877364E+01  0.95781942573E+01  0.17770000000E+01 0. -1.
</event>
<event>
 6    1  0.8353910E-003  0.1827720E+03  0.7546771E-02  0.1068238E+00
        -11   -1    0    0    0    0  0.00000000000E+00  0.00000000000E+00  0.18250000000E+03  0.18250000000E+03  0.00000000000E+00 0. -1.
         11   -1    0    0    0    0 -0.00000000000E+00 -0.00000000000E+00 -0.18250000000E+03  0.18250000000E+03  0.00000000000E+00 0. -1.
        -11    1    1    2    0    0 -0.32912861240E+01 -0.13824555938E+01  0.18219299520E+03  0.18222796506E+03  0.00000000000E+00 0. -1.
         11    1    1    2    0    0 -0.66684366552E+00  0.66015488671E+00 -0.64524674592E+02  0.64531497086E+02  0.00000000000E+00 0. -1.
        -15    1    1    2    0    0  0.41567030352E+01 -0.33684067496E+01 -0.34943813358E+02  0.35395651783E+02  0.17770000000E+01 0.  1.
         15    1    1    2    0    0 -0.19857324570E+00  0.40907074566E+01 -0.82724507255E+02  0.82844886073E+02  0.17770000000E+01 0. -1.
</event>
<event>
 6    1  0.8353910E-003  0.2137525E+03  0.7546771E-02  0.1045985E+00
        -11   -1    0    0    0    0  0.00000000000E+00  0.00000000000E+00  0.18250000000E+03  0.18250000000E+03  0.00000000000E+00 0.  1.
         11   -1    0    0    0    0 -0.00000000000E+00 -0.00000000000E+00 -0.18250000000E+03  0.18250000000E+03  0.00000000000E+00 0. -1.
        -11    1    1    2    0    0 -0.82935573179E+01  0.13965307573E+02  0.15037283061E+03  0.15124748293E+03  0.00000000000E+00 0.  1.
         11    1    1    2    0    0 -0.12614424740E+02  0.15216396185E+01 -0.97479904117E+02  0.98304480087E+02  0.00000000000E+00 0. -1.
        -15    1    1    2    0    0  0.10262764952E+02 -0.48538882268E+01 -0.81910904395E+02  0.82712989083E+02  0.17770000000E+01 0. -1.
         15    1    1    2    0    0  0.10645217106E+02 -0.10633058964E+02  0.29017977902E+02  0.32735047895E+02  0.17770000000E+01 0.  1.
</event>
<event>
 6    1  0.8353910E-003  0.1975321E+03  0.7546771E-02  0.1057081E+00
        -11   -1    0    0    0    0  0.00000000000E+00  0.00000000000E+00  0.18250000000E+03  0.18250000000E+03  0.00000000000E+00 0.  1.
         11   -1    0    0    0    0 -0.00000000000E+00 -0.00000000000E+00 -0.18250000000E+03  0.18250000000E+03  0.00000000000E+00 0.  1.
        -11    1    1    2    0    0 -0.56520961879E+01 -0.19958790796E+01  0.15055095631E+03  0.15067023651E+03  0.00000000000E+00 0.  1.
         11    1    1    2    0    0  0.18754723486E+00 -0.37016678424E+01 -0.16742683704E+03  0.16746785746E+03  0.00000000000E+00 0.  1.
        -15    1    1    2    0    0 -0.30620737144E+01 -0.13175640999E+01 -0.13749205851E+02  0.14258704749E+02  0.17770000000E+01 0. -1.
         15    1    1    2    0    0  0.85266226674E+01  0.70151110220E+01  0.30625086581E+02  0.32603201283E+02  0.17770000000E+01 0.  1.
</event>
<event>
 6    1  0.8353910E-003  0.1857764E+03  0.7546771E-02  0.1065876E+00
        -11   -1    0    0    0    0  0.00000000000E+00  0.00000000000E+00  0.18250000000E+03  0.18250000000E+03  0.00000000000E+00 0. -1.
         11   -1    0    0    0    0 -0.00000000000E+00 -0.00000000000E+00 -0.18250000000E+03  0.18250000000E+03  0.00000000000E+00 0. -1.
        -11    1    1    2    0    0  0.28358945461E+01  0.58342938613E+00  0.17920016495E+03  0.17922355260E+03  0.00000000000E+00 0. -1.
         11    1    1    2    0    0  0.57825842024E+01  0.19238888239E+01 -0.17088945165E+03  0.17099808278E+03  0.00000000000E+00 0. -1.
        -15    1    1    2    0    0 -0.91381710825E+01 -0.44576830382E+00 -0.72637279440E+01  0.11816274910E+02  0.17770000000E+01 0. -1.
         15    1    1    2    0    0  0.51969233402E+00 -0.20615499062E+01 -0.10469853520E+01  0.29620897126E+01  0.17770000000E+01 0.  1.
</event>
<event>
 6    1  0.8353910E-003  0.1827063E+03  0.7546771E-02  0.1068291E+00
        -11   -1    0    0    0    0  0.00000000000E+00  0.00000000000E+00  0.18250000000E+03  0.18250000000E+03  0.00000000000E+00 0.  1.
         11   -1    0    0    0    0 -0.00000000000E+00 -0.00000000000E+00 -0.18250000000E+03  0.18250000000E+03  0.00000000000E+00 0. -1.
        -11    1    1    2    0    0 -0.15871560575E+01  0.52327147967E+00  0.10350234842E+03  0.10351583939E+03  0.00000000000E+00 0.  1.
         11    1    1    2    0    0  0.45026638936E+01 -0.15095584681E+01 -0.18223185506E+03  0.18229372383E+03  0.00000000000E+00 0. -1.
        -15    1    1    2    0    0  0.32801137472E-01 -0.27388586019E+01  0.39433228816E+02  0.39568165060E+02  0.17770000000E+01 0.  1.
         15    1    1    2    0    0 -0.29483089736E+01  0.37251455903E+01  0.39296277830E+02  0.39622271714E+02  0.17770000000E+01 0. -1.
</event>
<event>
 6    1  0.8353910E-003  0.1831095E+03  0.7546771E-02  0.1067971E+00
        -11   -1    0    0    0    0  0.00000000000E+00  0.00000000000E+00  0.18250000000E+03  0.18250000000E+03  0.00000000000E+00 0.  1.
         11   -1    0    0    0    0 -0.00000000000E+00 -0.00000000000E+00 -0.18250000000E+03  0.18250000000E+03  0.00000000000E+00 0. -1.
        -11    1    1    2    0    0 -0.20754273195E+01  0.18206468011E+01  0.18186950272E+03  0.18189045652E+03  0.00000000000E+00 0.  1.
         11    1    1    2    0    0  0.16782741764E+01 -0.20919577653E+01 -0.16843134552E+03  0.16845269676E+03  0.00000000000E+00 0. -1.
        -15    1    1    2    0    0  0.24497562435E+01  0.21986928008E+00 -0.57211036679E+01  0.64759867458E+01  0.17770000000E+01 0.  1.
         15    1    1    2    0    0 -0.20526031005E+01  0.51441684122E-01 -0.77170535306E+01  0.81808599750E+01  0.17770000000E+01 0. -1.
</event>
<event>
 6    1  0.8353910E-003  0.1855276E+03  0.7546771E-02  0.1066070E+00
        -11   -1    0    0    0    0  0.00000000000E+00  0.00000000000E+00  0.18250000000E+03  0.18250000000E+03  0.00000000000E+00 0.  1.
         11   -1    0    0    0    0 -0.00000000000E+00 -0.00000000000E+00 -0.18250000000E+03  0.18250000000E+03  0.00000000000E+00 0.  1.
        -11    1    1    2    0    0  0.48326818213E+01  0.77690212555E+01  0.64951895907E+02  0.65593149694E+02  0.00000000000E+00 0.  1.
         11    1    1    2    0    0 -0.63528206117E+01 -0.12514078042E+02 -0.17892288701E+03  0.17947244907E+03  0.00000000000E+00 0.  1.
        -15    1    1    2    0    0 -0.44947112632E+01 -0.49368012683E+01  0.10524126670E+03  0.10546779784E+03  0.17770000000E+01 0.  1.
         15    1    1    2    0    0  0.60148500536E+01  0.96818580544E+01  0.87297244072E+01  0.14466603395E+02  0.17770000000E+01 0. -1.
</event>
<event>
 6    1  0.8353910E-003  0.1831568E+03  0.7546771E-02  0.1067933E+00
        -11   -1    0    0    0    0  0.00000000000E+00  0.00000000000E+00  0.18250000000E+03  0.18250000000E+03  0.00000000000E+00 0. -1.
         11   -1    0    0    0    0 -0.00000000000E+00 -0.00000000000E+00 -0.18250000000E+03  0.18250000000E+03  0.00000000000E+00 0. -1.
        -11    1    1    2    0    0  0.78174357019E+00  0.26718672298E+01  0.14237329192E+03  0.14240050649E+03  0.00000000000E+00 0. -1.
         11    1    1    2    0    0 -0.31898710000E+01  0.43918926160E+01 -0.18176218108E+03  0.18184321397E+03  0.00000000000E+00 0. -1.
        -15    1    1    2    0    0  0.38380624564E+01 -0.33913911007E+01  0.14210910052E+02  0.15209863593E+02  0.17770000000E+01 0. -1.
         15    1    1    2    0    0 -0.14299350266E+01 -0.36723687451E+01  0.25177979111E+02  0.25546415943E+02  0.17770000000E+01 0.  1.
</event>
<event>
 6    1  0.8353910E-003  0.1828534E+03  0.7546771E-02  0.1068174E+00
        -11   -1    0    0    0    0  0.00000000000E+00  0.00000000000E+00  0.18250000000E+03  0.18250000000E+03  0.00000000000E+00 0.  1.
         11   -1    0    0    0    0 -0.00000000000E+00 -0.00000000000E+00 -0.18250000000E+03  0.18250000000E+03  0.00000000000E+00 0. -1.
        -11    1    1    2    0    0  0.66317519211E+00  0.35080259335E+00  0.43933350469E+02  0.43939755885E+02  0.00000000000E+00 0.  1.
         11    1    1    2    0    0  0.21349293829E+01  0.52365575189E+01 -0.18205879437E+03  0.18214660048E+03  0.00000000000E+00 0. -1.
        -15    1    1    2    0    0  0.22691485521E+00  0.11510055181E+01  0.36642899464E+01  0.42380483557E+01  0.17770000000E+01 0. -1.
         15    1    1    2    0    0 -0.30250194302E+01 -0.67383656304E+01  0.13446115395E+03  0.13467559528E+03  0.17770000000E+01 0.  1.
</event>
<event>
 6    1  0.8353910E-003  0.1831162E+03  0.7546771E-02  0.1067965E+00
        -11   -1    0    0    0    0  0.00000000000E+00  0.00000000000E+00  0.18250000000E+03  0.18250000000E+03  0.00000000000E+00 0. -1.
         11   -1    0    0    0    0 -0.00000000000E+00 -0.00000000000E+00 -0.18250000000E+03  0.18250000000E+03  0.00000000000E+00 0. -1.
        -11    1    1    2    0    0 -0.35051040700E+01  0.48436815638E+01  0.18178546352E+03  0.18188375890E+03  0.00000000000E+00 0. -1.
         11    1    1    2    0    0 -0.63705505063E+00  0.42269377507E+01 -0.73531213888E+02  0.73655361365E+02  0.00000000000E+00 0. -1.
        -15    1    1    2    0    0  0.54297830130E+01 -0.69577589568E+01 -0.34870221836E+02  0.36013650928E+02  0.17770000000E+01 0. -1.
         15    1    1    2    0    0 -0.12876238924E+01 -0.21128603578E+01 -0.73384027797E+02  0.73447228803E+02  0.17770000000E+01 0.  1.
</event>
<event>
 6    1  0.8353910E-003  0.1827273E+03  0.7546771E-02  0.1068274E+00
        -11   -1    0    0    0    0  0.00000000000E+00  0.00000000000E+00  0.18250000000E+03  0.18250000000E+03  0.00000000000E+00 0. -1.
         11   -1    0    0    0    0 -0.00000000000E+00 -0.00000000000E+00 -0.18250000000E+03  0.18250000000E+03  0.00000000000E+00 0. -1.
        -11    1    1    2    0    0  0.16137936723E+01 -0.52458908960E+00  0.12517149284E+03  0.12518299462E+03  0.00000000000E+00 0. -1.
         11    1    1    2    0    0  0.27451242626E+01 -0.20470146539E+01 -0.18224051950E+03  0.18227268837E+03  0.00000000000E+00 0. -1.
        -15    1    1    2    0    0 -0.22729710972E+01 -0.40493040072E-01  0.37605323170E+02  0.37715860019E+02  0.17770000000E+01 0.  1.
         15    1    1    2    0    0 -0.20859468378E+01  0.26120967836E+01  0.19463703498E+02  0.19828456992E+02  0.17770000000E+01 0. -1.
</event>
<event>
 6    1  0.8353910E-003  0.1798516E+03  0.7546771E-02  0.1070583E+00
        -11   -1    0    0    0    0  0.00000000000E+00  0.00000000000E+00  0.18250000000E+03  0.18250000000E+03  0.00000000000E+00 0.  1.
         11   -1    0    0    0    0 -0.00000000000E+00 -0.00000000000E+00 -0.18250000000E+03  0.18250000000E+03  0.00000000000E+00 0.  1.
        -11    1    1    2    0    0  0.18997414829E+01 -0.32258969055E+01  0.17986162562E+03  0.17990058310E+03  0.00000000000E+00 0.  1.
         11    1    1    2    0    0  0.11311775319E+01  0.32434720510E+01 -0.17978252172E+03  0.17981533525E+03  0.00000000000E+00 0.  1.
        -15    1    1    2    0    0 -0.13185166838E+01  0.55546838429E+00 -0.11244217966E+01  0.25434395507E+01  0.17770000000E+01 0. -1.
         15    1    1    2    0    0 -0.17124023310E+01 -0.57304352974E+00  0.10453178961E+01  0.27406421025E+01  0.17770000000E+01 0.  1.
</event>
<event>
 6    1  0.8353910E-003  0.1827554E+03  0.7546771E-02  0.1068252E+00
        -11   -1    0    0    0    0  0.00000000000E+00  0.00000000000E+00  0.18250000000E+03  0.18250000000E+03  0.00000000000E+00 0. -1.
         11   -1    0    0    0    0 -0.00000000000E+00 -0.00000000000E+00 -0.18250000000E+03  0.18250000000E+03  0.00000000000E+00 0. -1.
        -11    1    1    2    0    0  0.56477511804E+01 -0.11784960448E+01  0.18215327526E+03  0.18224462032E+03  0.00000000000E+00 0. -1.
         11    1    1    2    0    0  0.14373203200E+01  0.57872609591E+00 -0.88610777354E+02  0.88624323280E+02  0.00000000000E+00 0. -1.
        -15    1    1    2    0    0 -0.81682176349E+01  0.74675724094E+00 -0.71862892731E+02  0.72351299272E+02  0.17770000000E+01 0. -1.
         15    1    1    2    0    0  0.10831461345E+01 -0.14698729205E+00 -0.21679605179E+02  0.21779757128E+02  0.17770000000E+01 0. -1.
</event>
<event>
 6    1  0.8353910E-003  0.1841360E+03  0.7546771E-02  0.1067160E+00
        -11   -1    0    0    0    0  0.00000000000E+00  0.00000000000E+00  0.18250000000E+03  0.18250000000E+03  0.00000000000E+00 0.  1.
         11   -1    0    0    0    0 -0.00000000000E+00 -0.00000000000E+00 -0.18250000000E+03  0.18250000000E+03  0.00000000000E+00 0.  1.
        -11    1    1    2    0    0  0.19311551452E+01  0.24207046898E+01  0.18083744628E+03  0.18086395757E+03  0.00000000000E+00 0.  1.
         11    1    1    2    0    0  0.68263004410E+00 -0.28210402184E+01 -0.14705935276E+03  0.14708799232E+03  0.00000000000E+00 0.  1.
        -15    1    1    2    0    0 -0.40904973989E+01 -0.42443459638E+01 -0.30013370489E+02  0.30638322061E+02  0.17770000000E+01 0.  1.
         15    1    1    2    0    0  0.14767122096E+01  0.46446814924E+01 -0.37647230291E+01  0.64097280443E+01  0.17770000000E+01 0.  1.
</event>
<event>
 6    1  0.8353910E-003  0.1829250E+03  0.7546771E-02  0.1068117E+00
        -11   -1    0    0    0    0  0.00000000000E+00  0.00000000000E+00  0.18250000000E+03  0.18250000000E+03  0.00000000000E+00 0.  1.
         11   -1    0    0    0    0 -0.00000000000E+00 -0.00000000000E+00 -0.18250000000E+03  0.18250000000E+03  0.00000000000E+00 0.  1.
        -11    1    1    2    0    0 -0.25776837218E+01  0.15904526946E+01  0.18204975745E+03  0.18207495210E+03  0.00000000000E+00 0.  1.
         11    1    1    2    0    0  0.21474188804E+01  0.85567969678E+00 -0.16851538132E+03  0.16853123550E+03  0.00000000000E+00 0.  1.
        -15    1    1    2    0    0 -0.86736987990E-01 -0.22320559212E+01 -0.61831773544E+01  0.68102135162E+01  0.17770000000E+01 0.  1.
         15    1    1    2    0    0  0.51700182931E+00 -0.21407647012E+00 -0.73511987780E+01  0.75835988884E+01  0.17770000000E+01 0. -1.
</event>
<event>
 6    1  0.8353910E-003  0.1778700E+03  0.7546771E-02  0.1072201E+00
        -11   -1    0    0    0    0  0.00000000000E+00  0.00000000000E+00  0.18250000000E+03  0.18250000000E+03  0.00000000000E+00 0.  1.
         11   -1    0    0    0    0 -0.00000000000E+00 -0.00000000000E+00 -0.18250000000E+03  0.18250000000E+03  0.00000000000E+00 0. -1.
        -11    1    1    2    0    0  0.18294219675E+01 -0.25775803076E+01  0.17929538123E+03  0.17932324009E+03  0.00000000000E+00 0.  1.
         11    1    1    2    0    0  0.27853920521E+01  0.11453210590E+01 -0.17643529845E+03  0.17646100053E+03  0.00000000000E+00 0. -1.
        -15    1    1    2    0    0  0.13535898446E+01  0.52529269563E+00  0.20366835538E-01  0.22948380534E+01  0.17770000000E+01 0. -1.
         15    1    1    2    0    0 -0.59684038642E+01  0.90696655296E+00 -0.28804496193E+01  0.69209213277E+01  0.17770000000E+01 0.  1.
</event>
<event>
 6    1  0.8353910E-003  0.1826160E+03  0.7546771E-02  0.1068363E+00
        -11   -1    0    0    0    0  0.00000000000E+00  0.00000000000E+00  0.18250000000E+03  0.18250000000E+03  0.00000000000E+00 0. -1.
         11   -1    0    0    0    0 -0.00000000000E+00 -0.00000000000E+00 -0.18250000000E+03  0.18250000000E+03  0.00000000000E+00 0.  1.
        -11    1    1    2    0    0  0.19014275488E+00  0.44836901318E+01  0.18232881653E+03  0.18238403705E+03  0.00000000000E+00 0. -1.
         11    1    1    2    0    0  0.18726797765E+01  0.13266891530E+00 -0.98757695997E+02  0.98775538719E+02  0.00000000000E+00 0.  1.
        -15    1    1    2    0    0 -0.14068065856E+01 -0.34361924485E+01 -0.65982564165E+02  0.66110838946E+02  0.17770000000E+01 0. -1.
         15    1    1    2    0    0 -0.65601594571E+00 -0.11801665986E+01 -0.17588556373E+02  0.17729585286E+02  0.17770000000E+01 0.  1.
</event>
<event>
 6    1  0.8353910E-003  0.2028805E+03  0.7546771E-02  0.1053298E+00
        -11   -1    0    0    0    0  0.00000000000E+00  0.00000000000E+00  0.18250000000E+03  0.18250000000E+03  0.00000000000E+00 0. -1.
         11   -1    0    0    0    0 -0.00000000000E+00 -0.00000000000E+00 -0.18250000000E+03  0.18250000000E+03  0.00000000000E+00 0. -1.
        -11    1    1    2    0    0 -0.16271461272E+01 -0.10073571633E+01  0.67813447001E+02  0.67840444921E+02  0.00000000000E+00 0. -1.
         11    1    1    2    0    0  0.23532149878E+02 -0.68868244289E+01 -0.16025465266E+03  0.16211953654E+03  0.00000000000E+00 0. -1.
        -15    1    1    2    0    0 -0.18193204136E+02  0.92039986751E+01 -0.16330264571E+02  0.26182848170E+02  0.17770000000E+01 0.  1.
         15    1    1    2    0    0 -0.37117996156E+01 -0.13098170829E+01  0.10877147023E+03  0.10885717037E+03  0.17770000000E+01 0. -1.
</event>
<event>
 6    1  0.8353910E-003  0.1831045E+03  0.7546771E-02  0.1067975E+00
        -11   -1    0    0    0    0  0.00000000000E+00  0.00000000000E+00  0.18250000000E+03  0.18250000000E+03  0.00000000000E+00 0.  1.
         11   -1    0    0    0    0 -0.00000000000E+00 -0.00000000000E+00 -0.18250000000E+03  0.18250000000E+03  0.00000000000E+00 0. -1.
        -11    1    1    2    0    0 -0.16725943085E+01  0.42815697350E+00  0.84339487769E+02  0.84357157890E+02  0.00000000000E+00 0.  1.
         11    1    1    2    0    0  0.96941274366E+00  0.35407065187E+01 -0.18185846140E+03  0.18189550942E+03  0.00000000000E+00 0. -1.
        -15    1    1    2    0    0  0.10798179874E+01 -0.24813705651E+00  0.91003344552E+02  0.91027435576E+02  0.17770000000E+01 0. -1.
         15    1    1    2    0    0 -0.37663642250E+00 -0.37207264357E+01  0.65156290786E+01  0.77198971168E+01  0.17770000000E+01 0. -1.
</event>
<event>
 6    1  0.8353910E-003  0.1780430E+03  0.7546771E-02  0.1072059E+00
        -11   -1    0    0    0    0  0.00000000000E+00  0.00000000000E+00  0.18250000000E+03  0.18250000000E+03  0.00000000000E+00 0.  1.
         11   -1    0    0    0    0 -0.00000000000E+00 -0.00000000000E+00 -0.18250000000E+03  0.18250000000E+03  0.00000000000E+00 0.  1.
        -11    1    1    2    0    0 -0.24417018410E+01 -0.53459243250E+01  0.17787509896E+03  0.17797216537E+03  0.00000000000E+00 0.  1.
         11    1    1    2    0    0  0.25321123767E+01  0.13070204551E+01 -0.17811394462E+03  0.17813673727E+03  0.00000000000E+00 0.  1.
        -15    1    1    2    0    0 -0.17708646530E+01 -0.12962989754E+01  0.94939552974E+00  0.29791665822E+01  0.17770000000E+01 0.  1.
         15    1    1    2    0    0  0.16804541172E+01  0.53352028452E+01 -0.71054987183E+00  0.59119307811E+01  0.17770000000E+01 0. -1.
</event>
<event>
 6    1  0.8353910E-003  0.1830025E+03  0.7546771E-02  0.1068056E+00
        -11   -1    0    0    0    0  0.00000000000E+00  0.00000000000E+00  0.18250000000E+03  0.18250000000E+03  0.00000000000E+00 0.  1.
         11   -1    0    0    0    0 -0.00000000000E+00 -0.00000000000E+00 -0.18250000000E+03  0.18250000000E+03  0.00000000000E+00 0. -1.
        -11    1    1    2    0    0 -0.34416477599E+01 -0.98216407912E+00  0.57681897951E+02  0.57792827729E+02  0.00000000000E+00 0.  1.
         11    1    1    2    0    0  0.23710233931E+01  0.17706244337E+01 -0.18197345561E+03  0.18199751484E+03  0.00000000000E+00 0. -1.
        -15    1    1    2    0    0  0.49722326793E+01  0.39859460751E+01  0.94678091406E+02  0.94908954188E+02  0.17770000000E+01 0.  1.
         15    1    1    2    0    0 -0.39016083126E+01 -0.47744064297E+01  0.29613466253E+02  0.30300703238E+02  0.17770000000E+01 0.  1.
</event>
<event>
 6    1  0.8353910E-003  0.1860306E+03  0.7546771E-02  0.1065679E+00
        -11   -1    0    0    0    0  0.00000000000E+00  0.00000000000E+00  0.18250000000E+03  0.18250000000E+03  0.00000000000E+00 0.  1.
         11   -1    0    0    0    0 -0.00000000000E+00 -0.00000000000E+00 -0.18250000000E+03  0.18250000000E+03  0.00000000000E+00 0.  1.
        -11    1    1    2    0    0 -0.11531508854E+01  0.12686186157E+02  0.17851550855E+03  0.17896942719E+03  0.00000000000E+00 0.  1.
         11    1    1    2    0    0 -0.21578159980E+01  0.20861216514E+01 -0.58405097811E+02  0.58482164151E+02  0.00000000000E+00 0.  1.
        -15    1    1    2    0    0 -0.48581456245E+01 -0.17440453753E+02 -0.19928374318E+02  0.26982750749E+02  0.17770000000E+01 0. -1.
         15    1    1    2    0    0  0.81691125080E+01  0.26681459446E+01 -0.10018203642E+03  0.10056565791E+03  0.17770000000E+01 0.  1.
</event>
<event>
 6    1  0.8353910E-003  0.1931222E+03  0.7546771E-02  0.1060300E+00
        -11   -1    0    0    0    0  0.00000000000E+00  0.00000000000E+00  0.18250000000E+03  0.18250000000E+03  0.00000000000E+00 0. -1.
         11   -1    0    0    0    0 -0.00000000000E+00 -0.00000000000E+00 -0.18250000000E+03  0.18250000000E+03  0.00000000000E+00 0.  1.
        -11    1    1    2    0    0  0.19172666209E+01  0.85491673771E+00  0.15462925650E+03  0.15464350539E+03  0.00000000000E+00 0. -1.
         11    1    1    2    0    0 -0.56412289189E+00 -0.11881949931E+02 -0.17146567010E+03  0.17187779086E+03  0.00000000000E+00 0.  1.
        -15    1    1    2    0    0  0.55560826853E+01 -0.28211967385E+01 -0.72942114461E+01  0.97566621067E+01  0.17770000000E+01 0.  1.
         15    1    1    2    0    0 -0.69092264144E+01  0.13848229932E+02  0.24130625051E+02  0.28722041645E+02  0.17770000000E+01 0. -1.
</event>
<event>
 6    1  0.8353910E-003  0.1828841E+03  0.7546771E-02  0.1068149E+00
        -11   -1    0    0    0    0  0.00000000000E+00  0.00000000000E+00  0.18250000000E+03  0.18250000000E+03  0.00000000000E+00 0. -1.
         11   -1    0    0    0    0 -0.00000000000E+00 -0.00000000000E+00 -0.18250000000E+03  0.18250000000E+03  0.00000000000E+00 0. -1.
        -11    1    1    2    0    0 -0.41921805291E+00  0.19697236471E+01  0.98892000097E+02  0.98912502942E+02  0.00000000000E+00 0. -1.
         11    1    1    2    0    0 -0.27805157447E+01  0.64318995867E+00 -0.18209350500E+03  0.18211586840E+03  0.00000000000E+00 0. -1.
        -15    1    1    2    0    0  0.12123012158E+01  0.41440909883E+00  0.72531195945E+02  0.72564271672E+02  0.17770000000E+01 0. -1.
         15    1    1    2    0    0  0.19874325819E+01 -0.30273227046E+01  0.10670308959E+02  0.11407356982E+02  0.17770000000E+01 0.  1.
</event>
<event>
 6    1  0.8353910E-003  0.1874878E+03  0.7546771E-02  0.1064552E+00
        -11   -1    0    0    0    0  0.00000000000E+00  0.00000000000E+00  0.18250000000E+03  0.18250000000E+03  0.00000000000E+00 0.  1.
         11   -1    0    0    0    0 -0.00000000000E+00 -0.00000000000E+00 -0.18250000000E+03  0.18250000000E+03  0.00000000000E+00 0.  1.
        -11    1    1    2    0    0 -0.39488738245E+01 -0.72461065256E+00  0.16481255264E+03  0.16486144538E+03  0.00000000000E+00 0.  1.
         11    1    1    2    0    0  0.10823373300E+01 -0.40509620455E+01 -0.17746269067E+03  0.17751222022E+03  0.00000000000E+00 0.  1.
        -15    1    1    2    0    0  0.99217805252E+00  0.84342435443E+01  0.15178604222E+02  0.17483381726E+02  0.17770000000E+01 0.  1.
         15    1    1    2    0    0  0.18743584419E+01 -0.36586708463E+01 -0.25284661884E+01  0.51429526729E+01  0.17770000000E+01 0. -1.
</event>
<event>
 6    1  0.8353910E-003  0.1843236E+03  0.7546771E-02  0.1067012E+00
        -11   -1    0    0    0    0  0.00000000000E+00  0.00000000000E+00  0.18250000000E+03  0.18250000000E+03  0.00000000000E+00 0.  1.
         11   -1    0    0    0    0 -0.00000000000E+00 -0.00000000000E+00 -0.18250000000E+03  0.18250000000E+03  0.00000000000E+00 0. -1.
        -11    1    1    2    0    0  0.27006415483E+00  0.46860725272E+01  0.18061537333E+03  0.18067635511E+03  0.00000000000E+00 0.  1.
         11    1    1    2    0    0  0.85728408732E+00  0.39482111757E+01 -0.15740652390E+03  0.15745836616E+03  0.00000000000E+00 0. -1.
        -15    1    1    2    0    0  0.46344941209E+00 -0.62501973814E+01 -0.22493674429E+02  0.23418003139E+02  0.17770000000E+01 0. -1.
         15    1    1    2    0    0 -0.15907976542E+01 -0.23840863216E+01 -0.71517500833E+00  0.34472755994E+01  0.17770000000E+01 0.  1.
</event>
<event>
 6    1  0.8353910E-003  0.1671854E+03  0.7546771E-02  0.1081344E+00
        -11   -1    0    0    0    0  0.00000000000E+00  0.00000000000E+00  0.18250000000E+03  0.18250000000E+03  0.00000000000E+00 0.  1.
         11   -1    0    0    0    0 -0.00000000000E+00 -0.00000000000E+00 -0.18250000000E+03  0.18250000000E+03  0.00000000000E+00 0.  1.
        -11    1    1    2    0    0  0.53206701192E+01  0.31003516082E+01  0.17055208380E+03  0.17066322099E+03  0.00000000000E+00 0.  1.
         11    1    1    2    0    0 -0.93406339210E+00  0.79431163546E+01 -0.16379188520E+03  0.16398703373E+03  0.00000000000E+00 0.  1.
        -15    1    1    2    0    0 -0.16763740122E+01 -0.43527590519E+01  0.10461865399E+02  0.11591596000E+02  0.17770000000E+01 0.  1.
         15    1    1    2    0    0 -0.27102327149E+01 -0.66907089109E+01 -0.17222063996E+02  0.18758149279E+02  0.17770000000E+01 0. -1.
</event>
<event>
 6    1  0.8353910E-003  0.1774101E+03  0.7546771E-02  0.1072580E+00
        -11   -1    0    0    0    0  0.00000000000E+00  0.00000000000E+00  0.18250000000E+03  0.18250000000E+03  0.00000000000E+00 0.  1.
         11   -1    0    0    0    0 -0.00000000000E+00 -0.00000000000E+00 -0.18250000000E+03  0.18250000000E+03  0.00000000000E+00 0.  1.
        -11    1    1    2    0    0  0.13225400825E+01  0.21339904328E+01  0.17804110599E+03  0.17805880615E+03  0.00000000000E+00 0.  1.
         11    1    1    2    0    0 -0.21328635221E-01  0.36582840748E+01 -0.17677541022E+03  0.17681326069E+03  0.00000000000E+00 0.  1.
        -15    1    1    2    0    0 -0.20980067123E+01 -0.53018289429E+01  0.19964357845E+01  0.62971824768E+01  0.17770000000E+01 0.  1.
         15    1    1    2    0    0  0.79679526506E+00 -0.49044556469E+00 -0.32621315519E+01  0.38307506847E+01  0.17770000000E+01 0. -1.
</event>
<event>
 6    1  0.8353910E-003  0.1825650E+03  0.7546771E-02  0.1068403E+00
        -11   -1    0    0    0    0  0.00000000000E+00  0.00000000000E+00  0.18250000000E+03  0.18250000000E+03  0.00000000000E+00 0. -1.
         11   -1    0    0    0    0 -0.00000000000E+00 -0.00000000000E+00 -0.18250000000E+03  0.18250000000E+03  0.00000000000E+00 0.  1.
        -11    1    1    2    0    0  0.50724702518E+00 -0.31654618931E+01  0.18240681774E+03  0.18243498734E+03  0.00000000000E+00 0. -1.
         11    1    1    2    0    0 -0.79401346986E+00 -0.40574570217E+00 -0.50825581801E+01  0.51601826149E+01  0.00000000000E+00 0.  1.
        -15    1    1    2    0    0  0.44064987770E+00  0.68825212978E+00 -0.65314109193E+02  0.65343388740E+02  0.17770000000E+01 0.  1.
         15    1    1    2    0    0 -0.15388343303E+00  0.28829554655E+01 -0.11201015037E+03  0.11206144130E+03  0.17770000000E+01 0.  1.
</event>
<event>
 6    1  0.8353910E-003  0.1828131E+03  0.7546771E-02  0.1068206E+00
        -11   -1    0    0    0    0  0.00000000000E+00  0.00000000000E+00  0.18250000000E+03  0.18250000000E+03  0.00000000000E+00 0.  1.
         11   -1    0    0    0    0 -0.00000000000E+00 -0.00000000000E+00 -0.18250000000E+03  0.18250000000E+03  0.00000000000E+00 0.  1.
        -11    1    1    2    0    0  0.17119927096E+01  0.64675775718E+01  0.18206401827E+03  0.18218690191E+03  0.00000000000E+00 0.  1.
         11    1    1    2    0    0 -0.43502499480E+00 -0.18402531988E+01 -0.59200896091E+02  0.59231088767E+02  0.00000000000E+00 0.  1.
        -15    1    1    2    0    0 -0.35944158146E+00 -0.62267315073E+01 -0.30429273884E+02  0.31112695505E+02  0.17770000000E+01 0. -1.
         15    1    1    2    0    0 -0.91752613334E+00  0.15994071343E+01 -0.92433848298E+02  0.92469313816E+02  0.17770000000E+01 0.  1.
</event>
<event>
 6    1  0.8353910E-003  0.1845158E+03  0.7546771E-02  0.1066861E+00
        -11   -1    0    0    0    0  0.00000000000E+00  0.00000000000E+00  0.18250000000E+03  0.18250000000E+03  0.00000000000E+00 0. -1.
         11   -1    0    0    0    0 -0.00000000000E+00 -0.00000000000E+00 -0.18250000000E+03  0.18250000000E+03  0.00000000000E+00 0.  1.
        -11    1    1    2    0    0  0.34208828668E+01  0.19583885962E+01  0.79961263274E+02  0.80058362149E+02  0.00000000000E+00 0. -1.
         11    1    1    2    0    0  0.43105697369E+00 -0.45198482969E+01 -0.18042710334E+03  0.18048422219E+03  0.00000000000E+00 0.  1.
        -15    1    1    2    0    0  0.74244301187E+01  0.72743986497E+01  0.78932975241E+02  0.79634234772E+02  0.17770000000E+01 0. -1.
         15    1    1    2    0    0 -0.11276369959E+02 -0.47129389490E+01  0.21532864825E+02  0.24823180892E+02  0.17770000000E+01 0.  1.
</event>
<event>
 6    1  0.8353910E-003  0.1854120E+03  0.7546771E-02  0.1066160E+00
        -11   -1    0    0    0    0  0.00000000000E+00  0.00000000000E+00  0.18250000000E+03  0.18250000000E+03  0.00000000000E+00 0. -1.
         11   -1    0    0    0    0 -0.00000000000E+00 -0.00000000000E+00 -0.18250000000E+03  0.18250000000E+03  0.00000000000E+00 0.  1.
        -11    1    1    2    0    0  0.18390591109E+01  0.10455146333E+01  0.92813227856E+02  0.92837333570E+02  0.00000000000E+00 0. -1.
         11    1    1    2    0    0 -0.28159835170E+02 -0.70993254703E+00 -0.17736510916E+03  0.17958803487E+03  0.00000000000E+00 0.  1.
        -15    1    1    2    0    0 -0.24188075197E+01  0.61760889233E+01  0.27413260554E+02  0.28260206783E+02  0.17770000000E+01 0. -1.
         15    1    1    2    0    0  0.28739583579E+02 -0.65116710096E+01  0.57138620753E+02  0.64314424775E+02  0.17770000000E+01 0.  1.
</event>
<event>
 6    1  0.8353910E-003  0.1826438E+03  0.7546771E-02  0.1068340E+00
        -11   -1    0    0    0    0  0.00000000000E+00  0.00000000000E+00  0.18250000000E+03  0.18250000000E+03  0.00000000000E+00 0.  1.
         11   -1    0    0    0    0 -0.00000000000E+00 -0.00000000000E+00 -0.18250000000E+03  0.18250000000E+03  0.00000000000E+00 0.  1.
        -11    1    1    2    0    0  0.22209463576E+01 -0.23449692872E+01  0.18232764411E+03  0.18235624829E+03  0.00000000000E+00 0.  1.
         11    1    1    2    0    0  0.10651481878E+01  0.16877453992E+01 -0.96231686627E+02  0.96252379379E+02  0.00000000000E+00 0.  1.
        -15    1    1    2    0    0 -0.19818483912E+01 -0.52650878870E+00 -0.14499379312E+02  0.14751090264E+02  0.17770000000E+01 0. -1.
         15    1    1    2    0    0 -0.13042461541E+01  0.11837326767E+01 -0.71596578167E+02  0.71640282072E+02  0.17770000000E+01 0.  1.
</event>
<event>
 6    1  0.8353910E-003  0.1865768E+03  0.7546771E-02  0.1065255E+00
        -11   -1    0    0    0    0  0.00000000000E+00  0.00000000000E+00  0.18250000000E+03  0.18250000000E+03  0.00000000000E+00 0.  1.
         11   -1    0    0    0    0 -0.00000000000E+00 -0.00000000000E+00 -0.18250000000E+03  0.18250000000E+03  0.00000000000E+00 0.  1.
        -11    1    1    2    0    0 -0.20200668758E+01  0.19904110802E+01  0.17840065872E+03  0.17842319759E+03  0.00000000000E+00 0.  1.
         11    1    1    2    0    0  0.62466909550E+00 -0.18712098225E+01 -0.13240152671E+03  0.13241622224E+03  0.00000000000E+00 0.  1.
        -15    1    1    2    0    0  0.47201536528E+01 -0.29388887528E+01 -0.48486191100E+02  0.48836312043E+02  0.17770000000E+01 0.  1.
         15    1    1    2    0    0 -0.33247558725E+01  0.28196874951E+01  0.24870590899E+01  0.53242681280E+01  0.17770000000E+01 0.  1.
</event>
<event>
 6    1  0.8353910E-003  0.1909282E+03  0.7546771E-02  0.1061937E+00
        -11   -1    0    0    0    0  0.00000000000E+00  0.00000000000E+00  0.18250000000E+03  0.18250000000E+03  0.00000000000E+00 0.  1.
         11   -1    0    0    0    0 -0.00000000000E+00 -0.00000000000E+00 -0.18250000000E+03  0.18250000000E+03  0.00000000000E+00 0.  1.
        -11    1    1    2    0    0 -0.50590682645E+01  0.24692907089E+01  0.17398071325E+03  0.17407176724E+03  0.00000000000E+00 0.  1.
         11    1    1    2    0    0  0.13408744942E+01  0.53759006914E+01 -0.14970684675E+03  0.14980933955E+03  0.00000000000E+00 0.  1.
        -15    1    1    2    0    0  0.15544215830E+02 -0.19743619698E+00 -0.21603947240E+02  0.26674892543E+02  0.17770000000E+01 0. -1.
         15    1    1    2    0    0 -0.11826022060E+02 -0.76477552034E+01 -0.26699192626E+01  0.14444000667E+02  0.17770000000E+01 0.  1.
</event>
<event>
 6    1  0.8353910E-003  0.1827504E+03  0.7546771E-02  0.1068256E+00
        -11   -1    0    0    0    0  0.00000000000E+00  0.00000000000E+00  0.18250000000E+03  0.18250000000E+03  0.00000000000E+00 0. -1.
         11   -1    0    0    0    0 -0.00000000000E+00 -0.00000000000E+00 -0.18250000000E+03  0.18250000000E+03  0.00000000000E+00 0.  1.
        -11    1    1    2    0    0  0.42587590242E+00  0.24909093926E+01  0.14620741309E+03  0.14622925029E+03  0.00000000000E+00 0. -1.
         11    1    1    2    0    0 -0.27542108851E+01 -0.22460171900E+01 -0.18221491233E+03  0.18224956665E+03  0.00000000000E+00 0.  1.
        -15    1    1    2    0    0  0.28204880521E+01  0.82090310460E+00  0.14165730471E+02  0.14575825312E+02  0.17770000000E+01 0. -1.
         15    1    1    2    0    0 -0.49215306937E+00 -0.10657953072E+01  0.21841768772E+02  0.21945357741E+02  0.17770000000E+01 0. -1.
</event>
<event>
 6    1  0.8353910E-003  0.1874995E+03  0.7546771E-02  0.1064543E+00
        -11   -1    0    0    0    0  0.00000000000E+00  0.00000000000E+00  0.18250000000E+03  0.18250000000E+03  0.00000000000E+00 0. -1.
         11   -1    0    0    0    0 -0.00000000000E+00 -0.00000000000E+00 -0.18250000000E+03  0.18250000000E+03  0.00000000000E+00 0.  1.
        -11    1    1    2    0    0  0.72497372602E+01  0.75821256202E+01  0.17719020259E+03  0.17750046539E+03  0.00000000000E+00 0. -1.
         11    1    1    2    0    0 -0.19617777155E+01  0.12814729108E+01 -0.13490650912E+03  0.13492685777E+03  0.00000000000E+00 0.  1.
        -15    1    1    2    0    0  0.83260227185E+01 -0.62901242889E+01 -0.35499031758E+02  0.37043586525E+02  0.17770000000E+01 0. -1.
         15    1    1    2    0    0 -0.13613982263E+02 -0.25734742420E+01 -0.67846617119E+01  0.15529090324E+02  0.17770000000E+01 0.  1.
</event>
<event>
 6    1  0.8353910E-003  0.1858366E+03  0.7546771E-02  0.1065829E+00
        -11   -1    0    0    0    0  0.00000000000E+00  0.00000000000E+00  0.18250000000E+03  0.18250000000E+03  0.00000000000E+00 0. -1.
         11   -1    0    0    0    0 -0.00000000000E+00 -0.00000000000E+00 -0.18250000000E+03  0.18250000000E+03  0.00000000000E+00 0.  1.
        -11    1    1    2    0    0  0.11827562117E+01  0.36418767764E+01  0.17912243915E+03  0.17916336228E+03  0.00000000000E+00 0. -1.
         11    1    1    2    0    0 -0.14430891807E+02  0.30536635192E+01 -0.12843568394E+03  0.12927993042E+03  0.00000000000E+00 0.  1.
        -15    1    1    2    0    0  0.12449588284E+01 -0.11563802702E+02 -0.28014167263E+02  0.30384580824E+02  0.17770000000E+01 0.  1.
         15    1    1    2    0    0  0.12003176767E+02  0.48682624065E+01 -0.22672587942E+02  0.26172126477E+02  0.17770000000E+01 0. -1.
</event>
<event>
 6    1  0.8353910E-003  0.1849423E+03  0.7546771E-02  0.1066527E+00
        -11   -1    0    0    0    0  0.00000000000E+00  0.00000000000E+00  0.18250000000E+03  0.18250000000E+03  0.00000000000E+00 0.  1.
         11   -1    0    0    0    0 -0.00000000000E+00 -0.00000000000E+00 -0.18250000000E+03  0.18250000000E+03  0.00000000000E+00 0. -1.
        -11    1    1    2    0    0  0.32143112131E+01  0.38284158289E+01  0.17998827688E+03  0.18005768070E+03  0.00000000000E+00 0.  1.
         11    1    1    2    0    0  0.33452574402E+01  0.11854081046E+01 -0.13164217058E+03  0.13169000347E+03  0.00000000000E+00 0. -1.
        -15    1    1    2    0    0  0.16902309121E+01  0.20096940036E+01 -0.38109448387E+02  0.38241123622E+02  0.17770000000E+01 0. -1.
         15    1    1    2    0    0 -0.82497995654E+01 -0.70235179371E+01 -0.10236657914E+02  0.15011192202E+02  0.17770000000E+01 0. -1.
</event>
<event>
 6    1  0.8353910E-003  0.1841921E+03  0.7546771E-02  0.1067116E+00
        -11   -1    0    0    0    0  0.00000000000E+00  0.00000000000E+00  0.18250000000E+03  0.18250000000E+03  0.00000000000E+00 0.  1.
         11   -1    0    0    0    0 -0.00000000000E+00 -0.00000000000E+00 -0.18250000000E+03  0.18250000000E+03  0.00000000000E+00 0. -1.
        -11    1    1    2    0    0 -0.75767362047E+00 -0.35426804363E+01  0.17160779863E+03  0.17164603463E+03  0.00000000000E+00 0.  1.
         11    1    1    2    0    0  0.51047844990E+01  0.86278524331E-01 -0.18073582179E+03  0.18080791892E+03  0.00000000000E+00 0. -1.
        -15    1    1    2    0    0  0.85502822126E+00  0.22238461708E+01  0.32487352254E+01  0.44032459181E+01  0.17770000000E+01 0. -1.
         15    1    1    2    0    0 -0.52021390998E+01  0.12325557412E+01  0.58792879302E+01  0.81428005278E+01  0.17770000000E+01 0.  1.
</event>
<event>
 6    1  0.8353910E-003  0.1841019E+03  0.7546771E-02  0.1067187E+00
        -11   -1    0    0    0    0  0.00000000000E+00  0.00000000000E+00  0.18250000000E+03  0.18250000000E+03  0.00000000000E+00 0. -1.
         11   -1    0    0    0    0 -0.00000000000E+00 -0.00000000000E+00 -0.18250000000E+03  0.18250000000E+03  0.00000000000E+00 0. -1.
        -11    1    1    2    0    0  0.17295353292E+01 -0.22451594892E+01  0.18087584843E+03  0.18089805024E+03  0.00000000000E+00 0. -1.
         11    1    1    2    0    0  0.26246588190E+01  0.23859375508E+01 -0.14718255867E+03  0.14722529371E+03  0.00000000000E+00 0. -1.
        -15    1    1    2    0    0 -0.21211006617E+01 -0.24941371481E+01 -0.32878620498E+02  0.33088989150E+02  0.17770000000E+01 0.  1.
         15    1    1    2    0    0 -0.22330934864E+01  0.23533590865E+01 -0.81466926457E+00  0.37876668966E+01  0.17770000000E+01 0.  1.
</event>
<event>
 6    1  0.1047963E-002  0.1864378E+03  0.7546771E-02  0.1065363E+00
        -11   -1    0    0    0    0  0.00000000000E+00  0.00000000000E+00  0.18250000000E+03  0.18250000000E+03  0.00000000000E+00 0. -1.
         11   -1    0    0    0    0 -0.00000000000E+00 -0.00000000000E+00 -0.18250000000E+03  0.18250000000E+03  0.00000000000E+00 0. -1.
        -11    1    1    2    0    0  0.26756867813E+01  0.11001529608E+01  0.17335728868E+03  0.17338142685E+03  0.00000000000E+00 0. -1.
         11    1    1    2    0    0 -0.56953121493E+00 -0.77843384382E+01 -0.17839149098E+03  0.17856215821E+03  0.00000000000E+00 0. -1.
        -15    1    1    2    0    0  0.53477303401E+00  0.59142623503E+01 -0.91466222899E+00  0.62656857038E+01  0.17770000000E+01 0.  1.
         15    1    1    2    0    0 -0.26409286004E+01  0.76992312709E+00  0.59488645217E+01  0.67907292385E+01  0.17770000000E+01 0. -1.
</event>
<event>
 6    1  0.8353910E-003  0.1936266E+03  0.7546771E-02  0.1059928E+00
        -11   -1    0    0    0    0  0.00000000000E+00  0.00000000000E+00  0.18250000000E+03  0.18250000000E+03  0.00000000000E+00 0.  1.
         11   -1    0    0    0    0 -0.00000000000E+00 -0.00000000000E+00 -0.18250000000E+03  0.18250000000E+03  0.00000000000E+00 0. -1.
        -11    1    1    2    0    0  0.52812043754E+00  0.98153503063E+00  0.80570410247E+02  0.80578119422E+02  0.00000000000E+00 0.  1.
         11    1    1    2    0    0 -0.65315736868E+01 -0.43141860088E+01 -0.17119450446E+03  0.17137337020E+03  0.00000000000E+00 0. -1.
        -15    1    1    2    0    0 -0.16124997369E+02 -0.16693824213E+02  0.76536067848E+02  0.79997666951E+02  0.17770000000E+01 0.  1.
         15    1    1    2    0    0  0.22128450618E+02  0.20026475191E+02  0.14088026367E+02  0.33050843427E+02  0.17770000000E+01 0. -1.
</event>
<event>
 6    1  0.8353910E-003  0.1852612E+03  0.7546771E-02  0.1066278E+00
        -11   -1    0    0    0    0  0.00000000000E+00  0.00000000000E+00  0.18250000000E+03  0.18250000000E+03  0.00000000000E+00 0. -1.
         11   -1    0    0    0    0 -0.00000000000E+00 -0.00000000000E+00 -0.18250000000E+03  0.18250000000E+03  0.00000000000E+00 0. -1.
        -11    1    1    2    0    0 -0.24334972665E+01  0.42162490621E+01  0.17967288074E+03  0.17973881812E+03  0.00000000000E+00 0. -1.
         11    1    1    2    0    0 -0.54097564491E+00 -0.26004851964E+01 -0.16936020878E+03  0.16938103642E+03  0.00000000000E+00 0. -1.
        -15    1    1    2    0    0 -0.32667385806E+01 -0.10495423588E+01 -0.81448894729E+01  0.90149916053E+01  0.17770000000E+01 0.  1.
         15    1    1    2    0    0  0.62412114921E+01 -0.56622150687E+00 -0.21677824795E+01  0.68651538629E+01  0.17770000000E+01 0. -1.
</event>
<event>
 6    1  0.8353910E-003  0.1827154E+03  0.7546771E-02  0.1068283E+00
        -11   -1    0    0    0    0  0.00000000000E+00  0.00000000000E+00  0.18250000000E+03  0.18250000000E+03  0.00000000000E+00 0.  1.
         11   -1    0    0    0    0 -0.00000000000E+00 -0.00000000000E+00 -0.18250000000E+03  0.18250000000E+03  0.00000000000E+00 0.  1.
        -11    1    1    2    0    0 -0.10934862268E+01  0.27543253435E+01  0.18226046603E+03  0.18228455639E+03  0.00000000000E+00 0.  1.
         11    1    1    2    0    0  0.19444242070E+01 -0.18588688510E+01 -0.13882506963E+03  0.13885112940E+03  0.00000000000E+00 0.  1.
        -15    1    1    2    0    0  0.77174753294E+00 -0.11525303356E+01 -0.71193025175E+01  0.74676715089E+01  0.17770000000E+01 0. -1.
         15    1    1    2    0    0 -0.16226855131E+01  0.25707384309E+00 -0.36316093891E+02  0.36396642699E+02  0.17770000000E+01 0.  1.
</event>
<event>
 6    1  0.8353910E-003  0.1836324E+03  0.7546771E-02  0.1067557E+00
        -11   -1    0    0    0    0  0.00000000000E+00  0.00000000000E+00  0.18250000000E+03  0.18250000000E+03  0.00000000000E+00 0. -1.
         11   -1    0    0    0    0 -0.00000000000E+00 -0.00000000000E+00 -0.18250000000E+03  0.18250000000E+03  0.00000000000E+00 0. -1.
        -11    1    1    2    0    0 -0.59053705608E+00  0.31737138269E+01  0.10778623522E+03  0.10783456633E+03  0.00000000000E+00 0. -1.
         11    1    1    2    0    0 -0.63332535234E+01 -0.11133445065E+01 -0.18125354796E+03  0.18136757782E+03  0.00000000000E+00 0. -1.
        -15    1    1    2    0    0  0.91856266253E+00  0.17308872560E+01  0.80125408642E+00  0.27639582430E+01  0.17770000000E+01 0. -1.
         15    1    1    2    0    0  0.60052279169E+01 -0.37912565764E+01  0.72666058660E+02  0.73033897602E+02  0.17770000000E+01 0.  1.
</event>
<event>
 6    1  0.8353910E-003  0.1832231E+03  0.7546771E-02  0.1067881E+00
        -11   -1    0    0    0    0  0.00000000000E+00  0.00000000000E+00  0.18250000000E+03  0.18250000000E+03  0.00000000000E+00 0.  1.
         11   -1    0    0    0    0 -0.00000000000E+00 -0.00000000000E+00 -0.18250000000E+03  0.18250000000E+03  0.00000000000E+00 0.  1.
        -11    1    1    2    0    0  0.45575463256E+01 -0.19430911301E+01  0.18170933041E+03  0.18177686208E+03  0.00000000000E+00 0.  1.
         11    1    1    2    0    0  0.10022115264E+01 -0.42866424062E+01 -0.13604559651E+03  0.13611680300E+03  0.00000000000E+00 0.  1.
        -15    1    1    2    0    0 -0.78236886308E+00 -0.71520076328E+00 -0.34529948713E+01  0.40254832940E+01  0.17770000000E+01 0.  1.
         15    1    1    2    0    0 -0.47773889889E+01  0.69449342995E+01 -0.42210739028E+02  0.43080851620E+02  0.17770000000E+01 0. -1.
</event>
<event>
 6    1  0.8353910E-003  0.1829322E+03  0.7546771E-02  0.1068111E+00
        -11   -1    0    0    0    0  0.00000000000E+00  0.00000000000E+00  0.18250000000E+03  0.18250000000E+03  0.00000000000E+00 0.  1.
         11   -1    0    0    0    0 -0.00000000000E+00 -0.00000000000E+00 -0.18250000000E+03  0.18250000000E+03  0.00000000000E+00 0. -1.
        -11    1    1    2    0    0  0.37606637470E+01  0.91917919005E+00  0.18202663359E+03  0.18206779732E+03  0.00000000000E+00 0.  1.
         11    1    1    2    0    0  0.10134714133E+01  0.20139690775E+01 -0.13797682396E+03  0.13799524320E+03  0.00000000000E+00 0. -1.
        -15    1    1    2    0    0 -0.36687183343E+01 -0.66263169875E+00 -0.11110797416E+02  0.11853527880E+02  0.17770000000E+01 0. -1.
         15    1    1    2    0    0 -0.11054168261E+01 -0.22705165688E+01 -0.32939012218E+02  0.33083431605E+02  0.17770000000E+01 0. -1.
</event>
<event>
 6    1  0.8353910E-003  0.2064718E+03  0.7546771E-02  0.1050828E+00
        -11   -1    0    0    0    0  0.00000000000E+00  0.00000000000E+00  0.18250000000E+03  0.18250000000E+03  0.00000000000E+00 0. -1.
         11   -1    0    0    0    0 -0.00000000000E+00 -0.00000000000E+00 -0.18250000000E+03  0.18250000000E+03  0.00000000000E+00 0.  1.
        -11    1    1    2    0    0  0.60465775337E+01  0.27917332568E+00  0.15144544488E+03  0.15156636108E+03  0.00000000000E+00 0. -1.
         11    1    1    2    0    0 -0.10625418128E+02 -0.31113571084E+01 -0.15814111795E+03  0.15852820960E+03  0.00000000000E+00 0.  1.
        -15    1    1    2    0    0 -0.16418779420E+01  0.11172176179E+01 -0.23665609682E+02  0.23815178962E+02  0.17770000000E+01 0.  1.
         15    1    1    2    0    0  0.62207185363E+01  0.17149661648E+01  0.30361282751E+02  0.31090250359E+02  0.17770000000E+01 0. -1.
</event>
<event>
 6    1  0.8353910E-003  0.1840550E+03  0.7546771E-02  0.1067224E+00
        -11   -1    0    0    0    0  0.00000000000E+00  0.00000000000E+00  0.18250000000E+03  0.18250000000E+03  0.00000000000E+00 0.  1.
         11   -1    0    0    0    0 -0.00000000000E+00 -0.00000000000E+00 -0.18250000000E+03  0.18250000000E+03  0.00000000000E+00 0.  1.
        -11    1    1    2    0    0 -0.60839383426E+00 -0.31367422980E+01  0.43073160738E+02  0.43191509250E+02  0.00000000000E+00 0.  1.
         11    1    1    2    0    0  0.12238266906E+02  0.70129348585E+01 -0.18039438581E+03  0.18094499403E+03  0.00000000000E+00 0.  1.
        -15    1    1    2    0    0  0.28738660641E+01  0.10164578464E+02  0.58914299305E+02  0.59880131538E+02  0.17770000000E+01 0.  1.
         15    1    1    2    0    0 -0.14503739136E+02 -0.14040771024E+02  0.78406925765E+02  0.80983365185E+02  0.17770000000E+01 0.  1.
</event>
<event>
 6    1  0.8353910E-003  0.1831445E+03  0.7546771E-02  0.1067943E+00
        -11   -1    0    0    0    0  0.00000000000E+00  0.00000000000E+00  0.18250000000E+03  0.18250000000E+03  0.00000000000E+00 0. -1.
         11   -1    0    0    0    0 -0.00000000000E+00 -0.00000000000E+00 -0.18250000000E+03  0.18250000000E+03  0.00000000000E+00 0.  1.
        -11    1    1    2    0    0  0.88888446359E+00 -0.24488636589E+01  0.12015891161E+03  0.12018715026E+03  0.00000000000E+00 0. -1.
         11    1    1    2    0    0  0.96981421144E+00 -0.47980563142E+01 -0.18178962819E+03  0.18185552178E+03  0.00000000000E+00 0.  1.
        -15    1    1    2    0    0  0.26013419744E+01  0.13698579376E+01  0.37605419408E+02  0.37762001916E+02  0.17770000000E+01 0. -1.
         15    1    1    2    0    0 -0.44600406495E+01  0.58770620355E+01  0.24025297175E+02  0.25195326037E+02  0.17770000000E+01 0.  1.
</event>
<event>
 6    1  0.8353910E-003  0.1827881E+03  0.7546771E-02  0.1068226E+00
        -11   -1    0    0    0    0  0.00000000000E+00  0.00000000000E+00  0.18250000000E+03  0.18250000000E+03  0.00000000000E+00 0.  1.
         11   -1    0    0    0    0 -0.00000000000E+00 -0.00000000000E+00 -0.18250000000E+03  0.18250000000E+03  0.00000000000E+00 0.  1.
        -11    1    1    2    0    0 -0.19187457366E+01 -0.27739074270E+01  0.12763740039E+03  0.12768195694E+03  0.00000000000E+00 0.  1.
         11    1    1    2    0    0  0.26853871195E+01 -0.52570392580E+00 -0.18219140170E+03  0.18221194945E+03  0.00000000000E+00 0.  1.
        -15    1    1    2    0    0 -0.28712854373E+01  0.21615062707E+01  0.18517277869E+02  0.18946337327E+02  0.17770000000E+01 0. -1.
         15    1    1    2    0    0  0.21046440544E+01  0.11381050822E+01  0.36036723436E+02  0.36159756288E+02  0.17770000000E+01 0.  1.
</event>
<event>
 6    1  0.8353910E-003  0.1852259E+03  0.7546771E-02  0.1066305E+00
        -11   -1    0    0    0    0  0.00000000000E+00  0.00000000000E+00  0.18250000000E+03  0.18250000000E+03  0.00000000000E+00 0.  1.
         11   -1    0    0    0    0 -0.00000000000E+00 -0.00000000000E+00 -0.18250000000E+03  0.18250000000E+03  0.00000000000E+00 0.  1.
        -11    1    1    2    0    0  0.29353199392E+01  0.40972122412E+00  0.17974967364E+03  0.17977410589E+03  0.00000000000E+00 0.  1.
         11    1    1    2    0    0  0.18029019623E+01 -0.29279832518E+01 -0.15996618878E+03  0.16000314088E+03  0.00000000000E+00 0.  1.
        -15    1    1    2    0    0 -0.42125956753E+01  0.45117216733E+01 -0.13172504439E+01  0.65570170438E+01  0.17770000000E+01 0.  1.
         15    1    1    2    0    0 -0.52562622622E+00 -0.19934596456E+01 -0.18466234425E+02  0.18665736179E+02  0.17770000000E+01 0. -1.
</event>
<event>
 6    1  0.8353910E-003  0.1832595E+03  0.7546771E-02  0.1067852E+00
        -11   -1    0    0    0    0  0.00000000000E+00  0.00000000000E+00  0.18250000000E+03  0.18250000000E+03  0.00000000000E+00 0.  1.
         11   -1    0    0    0    0 -0.00000000000E+00 -0.00000000000E+00 -0.18250000000E+03  0.18250000000E+03  0.00000000000E+00 0. -1.
        -11    1    1    2    0    0  0.10216090869E+01  0.74595453761E+01  0.18158446396E+03  0.18174049096E+03  0.00000000000E+00 0.  1.
         11    1    1    2    0    0  0.17152113982E+01 -0.46069598203E+00 -0.12989535335E+03  0.12990749406E+03  0.00000000000E+00 0. -1.
        -15    1    1    2    0    0 -0.48361563283E+01 -0.52173845120E+00 -0.32568003044E+02  0.32977161344E+02  0.17770000000E+01 0. -1.
         15    1    1    2    0    0  0.20993358432E+01 -0.64771109428E+01 -0.19121107568E+02  0.20374853639E+02  0.17770000000E+01 0.  1.
</event>
<event>
 6    1  0.8353910E-003  0.2129598E+03  0.7546771E-02  0.1046502E+00
        -11   -1    0    0    0    0  0.00000000000E+00  0.00000000000E+00  0.18250000000E+03  0.18250000000E+03  0.00000000000E+00 0.  1.
         11   -1    0    0    0    0 -0.00000000000E+00 -0.00000000000E+00 -0.18250000000E+03  0.18250000000E+03  0.00000000000E+00 0.  1.
        -11    1    1    2    0    0 -0.44140592713E+01 -0.25002913276E+01  0.15195557419E+03  0.15204023120E+03  0.00000000000E+00 0.  1.
         11    1    1    2    0    0 -0.56573120977E+00 -0.41433654057E+01 -0.14486897699E+03  0.14492932078E+03  0.00000000000E+00 0.  1.
        -15    1    1    2    0    0 -0.50866364581E+01  0.18678651200E+01 -0.36283734790E+02  0.36729142787E+02  0.17770000000E+01 0. -1.
         15    1    1    2    0    0  0.10066426939E+02  0.47757916133E+01  0.29197137586E+02  0.31301305229E+02  0.17770000000E+01 0.  1.
</event>
<event>
 6    1  0.8353910E-003  0.1845953E+03  0.7546771E-02  0.1066799E+00
        -11   -1    0    0    0    0  0.00000000000E+00  0.00000000000E+00  0.18250000000E+03  0.18250000000E+03  0.00000000000E+00 0.  1.
         11   -1    0    0    0    0 -0.00000000000E+00 -0.00000000000E+00 -0.18250000000E+03  0.18250000000E+03  0.00000000000E+00 0.  1.
        -11    1    1    2    0    0 -0.18837626144E+01  0.19047676852E+01  0.17002094226E+03  0.17004204630E+03  0.00000000000E+00 0.  1.
         11    1    1    2    0    0 -0.26644030282E+01  0.28345097996E+01 -0.18036272985E+03  0.18040467790E+03  0.00000000000E+00 0.  1.
        -15    1    1    2    0    0 -0.76182965292E+00 -0.60775988698E-01  0.54120156354E+01  0.57473228880E+01  0.17770000000E+01 0. -1.
         15    1    1    2    0    0  0.53099952956E+01 -0.46785014961E+01  0.49297719468E+01  0.88059529146E+01  0.17770000000E+01 0. -1.
</event>
<event>
 6    1  0.8353910E-003  0.1827042E+03  0.7546771E-02  0.1068292E+00
        -11   -1    0    0    0    0  0.00000000000E+00  0.00000000000E+00  0.18250000000E+03  0.18250000000E+03  0.00000000000E+00 0.  1.
         11   -1    0    0    0    0 -0.00000000000E+00 -0.00000000000E+00 -0.18250000000E+03  0.18250000000E+03  0.00000000000E+00 0.  1.
        -11    1    1    2    0    0  0.11958171837E+01  0.16161831109E+01  0.78718783187E+02  0.78744452840E+02  0.00000000000E+00 0.  1.
         11    1    1    2    0    0  0.80127954331E+00 -0.41047404460E+01 -0.18224778892E+03  0.18229576931E+03  0.00000000000E+00 0.  1.
        -15    1    1    2    0    0  0.10137484680E+01 -0.25512732189E+01  0.31073497789E+02  0.31245106414E+02  0.17770000000E+01 0.  1.
         15    1    1    2    0    0 -0.30108451950E+01  0.50398305539E+01  0.72455507946E+02  0.72714671432E+02  0.17770000000E+01 0.  1.
</event>
<event>
 6    1  0.8353910E-003  0.1725155E+03  0.7546771E-02  0.1076692E+00
        -11   -1    0    0    0    0  0.00000000000E+00  0.00000000000E+00  0.18250000000E+03  0.18250000000E+03  0.00000000000E+00 0.  1.
         11   -1    0    0    0    0 -0.00000000000E+00 -0.00000000000E+00 -0.18250000000E+03  0.18250000000E+03  0.00000000000E+00 0.  1.
        -11    1    1    2    0    0  0.21015300072E+01  0.41563706027E+01  0.17416141066E+03  0.17422367464E+03  0.00000000000E+00 0.  1.
         11    1    1    2    0    0 -0.85422503630E+01 -0.28544350982E+01 -0.17065020495E+03  0.17088771252E+03  0.00000000000E+00 0.  1.
        -15    1    1    2    0    0  0.30409700947E+01 -0.53811652104E+01  0.60361478658E+01  0.88202748368E+01  0.17770000000E+01 0. -1.
         15    1    1    2    0    0  0.33997502611E+01  0.40792297059E+01 -0.95473535762E+01  0.11068338003E+02  0.17770000000E+01 0. -1.
</event>
<event>
 6    1  0.8353910E-003  0.1826979E+03  0.7546771E-02  0.1068297E+00
        -11   -1    0    0    0    0  0.00000000000E+00  0.00000000000E+00  0.18250000000E+03  0.18250000000E+03  0.00000000000E+00 0.  1.
         11   -1    0    0    0    0 -0.00000000000E+00 -0.00000000000E+00 -0.18250000000E+03  0.18250000000E+03  0.00000000000E+00 0.  1.
        -11    1    1    2    0    0  0.30761878942E+01  0.89798398072E+00  0.18227393768E+03  0.18230210548E+03  0.00000000000E+00 0.  1.
         11    1    1    2    0    0 -0.33666137564E+01 -0.10508872203E+01 -0.91870334444E+02  0.91938005216E+02  0.00000000000E+00 0.  1.
        -15    1    1    2    0    0 -0.28911476636E+01  0.39191228970E+00 -0.22470456379E+02  0.22728648639E+02  0.17770000000E+01 0.  1.
         15    1    1    2    0    0  0.31815735257E+01 -0.23900905010E+00 -0.67933146854E+02  0.68031240661E+02  0.17770000000E+01 0. -1.
</event>
<event>
 6    1  0.8353910E-003  0.1860966E+03  0.7546771E-02  0.1065627E+00
        -11   -1    0    0    0    0  0.00000000000E+00  0.00000000000E+00  0.18250000000E+03  0.18250000000E+03  0.00000000000E+00 0.  1.
         11   -1    0    0    0    0 -0.00000000000E+00 -0.00000000000E+00 -0.18250000000E+03  0.18250000000E+03  0.00000000000E+00 0. -1.
        -11    1    1    2    0    0 -0.15547347655E+01  0.22278483305E+01  0.16448495712E+03  0.16450739080E+03  0.00000000000E+00 0.  1.
         11    1    1    2    0    0  0.52677409015E+01  0.21322197547E-02 -0.17882586152E+03  0.17890343162E+03  0.00000000000E+00 0. -1.
        -15    1    1    2    0    0  0.38064609075E+00 -0.82173107244E+01  0.94913590653E+01  0.12685137480E+02  0.17770000000E+01 0. -1.
         15    1    1    2    0    0 -0.40936522268E+01  0.59873301741E+01  0.48495453262E+01  0.89040400964E+01  0.17770000000E+01 0.  1.
</event>
<event>
 6    1  0.8353910E-003  0.1837351E+03  0.7546771E-02  0.1067476E+00
        -11   -1    0    0    0    0  0.00000000000E+00  0.00000000000E+00  0.18250000000E+03  0.18250000000E+03  0.00000000000E+00 0.  1.
         11   -1    0    0    0    0 -0.00000000000E+00 -0.00000000000E+00 -0.18250000000E+03  0.18250000000E+03  0.00000000000E+00 0. -1.
        -11    1    1    2    0    0  0.58538982772E+01  0.10100349694E+01  0.14542602582E+03  0.14554730255E+03  0.00000000000E+00 0.  1.
         11    1    1    2    0    0 -0.14740052750E+01  0.24137686043E+01 -0.18124282807E+03  0.18126489373E+03  0.00000000000E+00 0. -1.
        -15    1    1    2    0    0 -0.69231137108E+01 -0.20319962151E+01  0.32834624578E+02  0.33664949313E+02  0.17770000000E+01 0.  1.
         15    1    1    2    0    0  0.25432207086E+01 -0.13918073585E+01  0.29821776766E+01  0.45228544074E+01  0.17770000000E+01 0. -1.
</event>
<event>
 6    1  0.8353910E-003  0.1839703E+03  0.7546771E-02  0.1067290E+00
        -11   -1    0    0    0    0  0.00000000000E+00  0.00000000000E+00  0.18250000000E+03  0.18250000000E+03  0.00000000000E+00 0.  1.
         11   -1    0    0    0    0 -0.00000000000E+00 -0.00000000000E+00 -0.18250000000E+03  0.18250000000E+03  0.00000000000E+00 0. -1.
        -11    1    1    2    0    0  0.40347193306E+01  0.61645560358E+01  0.13299379484E+03  0.13319771086E+03  0.00000000000E+00 0.  1.
         11    1    1    2    0    0  0.39972554268E+01 -0.46096596824E+01 -0.18092685138E+03  0.18102970078E+03  0.00000000000E+00 0. -1.
        -15    1    1    2    0    0 -0.42456094173E+01  0.10954809699E+01  0.30761291967E+01  0.56431886123E+01  0.17770000000E+01 0.  1.
         15    1    1    2    0    0 -0.37863653402E+01 -0.26503773233E+01  0.44856927343E+02  0.45129399753E+02  0.17770000000E+01 0. -1.
</event>
<event>
 6    1  0.8353910E-003  0.1844257E+03  0.7546771E-02  0.1066932E+00
        -11   -1    0    0    0    0  0.00000000000E+00  0.00000000000E+00  0.18250000000E+03  0.18250000000E+03  0.00000000000E+00 0. -1.
         11   -1    0    0    0    0 -0.00000000000E+00 -0.00000000000E+00 -0.18250000000E+03  0.18250000000E+03  0.00000000000E+00 0.  1.
        -11    1    1    2    0    0 -0.21623649991E+01 -0.49502778866E+01  0.18049350284E+03  0.18057432166E+03  0.00000000000E+00 0. -1.
         11    1    1    2    0    0  0.25162096423E+01 -0.57047070518E+00 -0.16206325100E+03  0.16208378719E+03  0.00000000000E+00 0.  1.
        -15    1    1    2    0    0  0.29149923009E+01  0.41445454375E+01 -0.24961444798E+01  0.59213936925E+01  0.17770000000E+01 0.  1.
         15    1    1    2    0    0 -0.32688369441E+01  0.13762031543E+01 -0.15934107367E+02  0.16420497455E+02  0.17770000000E+01 0. -1.
</event>
<event>
 6    1  0.8353910E-003  0.1840733E+03  0.7546771E-02  0.1067209E+00
        -11   -1    0    0    0    0  0.00000000000E+00  0.00000000000E+00  0.18250000000E+03  0.18250000000E+03  0.00000000000E+00 0.  1.
         11   -1    0    0    0    0 -0.00000000000E+00 -0.00000000000E+00 -0.18250000000E+03  0.18250000000E+03  0.00000000000E+00 0. -1.
        -11    1    1    2    0    0  0.53227699196E+00 -0.35592791636E+01  0.18089087824E+03  0.18092667470E+03  0.00000000000E+00 0.  1.
         11    1    1    2    0    0  0.18632711044E+00 -0.41407046505E+01 -0.15039639352E+03  0.15045349892E+03  0.00000000000E+00 0. -1.
        -15    1    1    2    0    0 -0.37953533258E+00  0.60188142831E+01 -0.50727301751E+01  0.80783966771E+01  0.17770000000E+01 0.  1.
         15    1    1    2    0    0 -0.33906876983E+00  0.16811695310E+01 -0.25421754538E+02  0.25541429706E+02  0.17770000000E+01 0. -1.
</event>
<event>
 6    1  0.8353910E-003  0.1837609E+03  0.7546771E-02  0.1067456E+00
        -11   -1    0    0    0    0  0.00000000000E+00  0.00000000000E+00  0.18250000000E+03  0.18250000000E+03  0.00000000000E+00 0.  1.
         11   -1    0    0    0    0 -0.00000000000E+00 -0.00000000000E+00 -0.18250000000E+03  0.18250000000E+03  0.00000000000E+00 0.  1.
        -11    1    1    2    0    0 -0.29255197379E+01  0.17423540264E+01  0.86072321641E+02  0.86139648339E+02  0.00000000000E+00 0.  1.
         11    1    1    2    0    0 -0.22628400191E+01  0.99130366274E+00 -0.18122221611E+03  0.18123905412E+03  0.00000000000E+00 0.  1.
        -15    1    1    2    0    0  0.77365142564E+00 -0.64621743013E+00 -0.26932297411E+00  0.20606788590E+01  0.17770000000E+01 0. -1.
         15    1    1    2    0    0  0.44147083313E+01 -0.20874402590E+01  0.95419217441E+02  0.95560618680E+02  0.17770000000E+01 0.  1.
</event>
<event>
 6    1  0.8353910E-003  0.1831449E+03  0.7546771E-02  0.1067943E+00
        -11   -1    0    0    0    0  0.00000000000E+00  0.00000000000E+00  0.18250000000E+03  0.18250000000E+03  0.00000000000E+00 0.  1.
         11   -1    0    0    0    0 -0.00000000000E+00 -0.00000000000E+00 -0.18250000000E+03  0.18250000000E+03  0.00000000000E+00 0. -1.
        -11    1    1    2    0    0  0.29924404124E+01  0.12578076228E+00  0.15906602376E+03  0.15909421874E+03  0.00000000000E+00 0.  1.
         11    1    1    2    0    0  0.26181736787E+01  0.54017900255E-01 -0.18183622689E+03  0.18185508285E+03  0.00000000000E+00 0. -1.
        -15    1    1    2    0    0 -0.55266528860E+01  0.52562631070E+00  0.17068166399E+02  0.18036080737E+02  0.17770000000E+01 0. -1.
         15    1    1    2    0    0 -0.83961205171E-01 -0.70542497324E+00  0.57020367255E+01  0.60146176683E+01  0.17770000000E+01 0. -1.
</event>
<event>
 6    1  0.8353910E-003  0.1840802E+03  0.7546771E-02  0.1067204E+00
        -11   -1    0    0    0    0  0.00000000000E+00  0.00000000000E+00  0.18250000000E+03  0.18250000000E+03  0.00000000000E+00 0. -1.
         11   -1    0    0    0    0 -0.00000000000E+00 -0.00000000000E+00 -0.18250000000E+03  0.18250000000E+03  0.00000000000E+00 0. -1.
        -11    1    1    2    0    0  0.31703139512E+01 -0.20687798784E+00  0.17032352190E+03  0.17035315025E+03  0.00000000000E+00 0. -1.
         11    1    1    2    0    0  0.23757113875E+01  0.18794240639E+01 -0.18089440409E+03  0.18091976583E+03  0.00000000000E+00 0. -1.
        -15    1    1    2    0    0 -0.90487473700E+00  0.22504632918E+00  0.13227292432E+00  0.20111363123E+01  0.17770000000E+01 0.  1.
         15    1    1    2    0    0 -0.46411506017E+01 -0.18975924053E+01  0.10438609267E+02  0.11715947605E+02  0.17770000000E+01 0. -1.
</event>
<event>
 6    1  0.8353910E-003  0.1829812E+03  0.7546771E-02  0.1068072E+00
        -11   -1    0    0    0    0  0.00000000000E+00  0.00000000000E+00  0.18250000000E+03  0.18250000000E+03  0.00000000000E+00 0.  1.
         11   -1    0    0    0    0 -0.00000000000E+00 -0.00000000000E+00 -0.18250000000E+03  0.18250000000E+03  0.00000000000E+00 0.  1.
        -11    1    1    2    0    0 -0.40195444987E+01 -0.33861945252E+01  0.68544590024E+02  0.68745791674E+02  0.00000000000E+00 0.  1.
         11    1    1    2    0    0  0.15206672606E+01 -0.33815700627E+01 -0.18198102847E+03  0.18201879619E+03  0.00000000000E+00 0.  1.
        -15    1    1    2    0    0 -0.16944072106E+01  0.48046659090E+00  0.73988766961E+02  0.74031055844E+02  0.17770000000E+01 0.  1.
         15    1    1    2    0    0  0.41932844487E+01  0.62872979970E+01  0.39447671480E+02  0.40204356291E+02  0.17770000000E+01 0. -1.
</event>
<event>
 6    1  0.8353910E-003  0.1828274E+03  0.7546771E-02  0.1068195E+00
        -11   -1    0    0    0    0  0.00000000000E+00  0.00000000000E+00  0.18250000000E+03  0.18250000000E+03  0.00000000000E+00 0. -1.
         11   -1    0    0    0    0 -0.00000000000E+00 -0.00000000000E+00 -0.18250000000E+03  0.18250000000E+03  0.00000000000E+00 0. -1.
        -11    1    1    2    0    0  0.56538142017E+01  0.15423668143E+02  0.18143046454E+03  0.18217263410E+03  0.00000000000E+00 0. -1.
         11    1    1    2    0    0  0.24708192073E+01  0.85491191068E+00 -0.14038265173E+02  0.14279660745E+02  0.00000000000E+00 0. -1.
        -15    1    1    2    0    0 -0.84652680250E+01 -0.11512806231E+02 -0.11212716142E+03  0.11304805848E+03  0.17770000000E+01 0. -1.
         15    1    1    2    0    0  0.34063461606E+00 -0.47657738228E+01 -0.55265037945E+02  0.55499646666E+02  0.17770000000E+01 0.  1.
</event>
<event>
 6    1  0.8353910E-003  0.1827889E+03  0.7546771E-02  0.1068225E+00
        -11   -1    0    0    0    0  0.00000000000E+00  0.00000000000E+00  0.18250000000E+03  0.18250000000E+03  0.00000000000E+00 0. -1.
         11   -1    0    0    0    0 -0.00000000000E+00 -0.00000000000E+00 -0.18250000000E+03  0.18250000000E+03  0.00000000000E+00 0. -1.
        -11    1    1    2    0    0  0.35129825250E+01 -0.72134761355E+00  0.59815749286E+02  0.59923161226E+02  0.00000000000E+00 0. -1.
         11    1    1    2    0    0 -0.93227400387E+01 -0.30060370577E+00 -0.18197219725E+03  0.18221109850E+03  0.00000000000E+00 0. -1.
        -15    1    1    2    0    0  0.72957555692E+01 -0.50025738838E+00  0.42505621728E+02  0.43166699136E+02  0.17770000000E+01 0. -1.
         15    1    1    2    0    0 -0.14859980555E+01  0.15222087077E+01  0.79650826235E+02  0.79699041139E+02  0.17770000000E+01 0. -1.
</event>
<event>
 6    1  0.8353910E-003  0.1869456E+03  0.7546771E-02  0.1064970E+00
        -11   -1    0    0    0    0  0.00000000000E+00  0.00000000000E+00  0.18250000000E+03  0.18250000000E+03  0.00000000000E+00 0. -1.
         11   -1    0    0    0    0 -0.00000000000E+00 -0.00000000000E+00 -0.18250000000E+03  0.18250000000E+03  0.00000000000E+00 0.  1.
        -11    1    1    2    0    0  0.24309529202E+01 -0.12920701052E+01  0.17803310799E+03  0.17805439202E+03  0.00000000000E+00 0. -1.
         11    1    1    2    0    0 -0.41184416417E+01  0.24699386434E+01 -0.12096421125E+03  0.12105950009E+03  0.00000000000E+00 0.  1.
        -15    1    1    2    0    0  0.15160353921E+02  0.42473360815E+00 -0.14075444849E+02  0.20767585472E+02  0.17770000000E+01 0. -1.
         15    1    1    2    0    0 -0.13472865200E+02 -0.16026021463E+01 -0.42993451890E+02  0.45118522413E+02  0.17770000000E+01 0.  1.
</event>
<event>
 6    1  0.8353910E-003  0.1876014E+03  0.7546771E-02  0.1064465E+00
        -11   -1    0    0    0    0  0.00000000000E+00  0.00000000000E+00  0.18250000000E+03  0.18250000000E+03  0.00000000000E+00 0.  1.
         11   -1    0    0    0    0 -0.00000000000E+00 -0.00000000000E+00 -0.18250000000E+03  0.18250000000E+03  0.00000000000E+00 0.  1.
        -11    1    1    2    0    0 -0.54816961820E+01  0.91030421978E+01  0.16891835970E+03  0.16925225734E+03  0.00000000000E+00 0.  1.
         11    1    1    2    0    0  0.20919312373E+01 -0.37593172723E+01 -0.17734644182E+03  0.17739861632E+03  0.00000000000E+00 0.  1.
        -15    1    1    2    0    0  0.52353457957E+01 -0.34898517955E+01  0.11946401184E+02  0.13618448568E+02  0.17770000000E+01 0. -1.
         15    1    1    2    0    0 -0.18455808510E+01 -0.18538731300E+01 -0.35183190584E+01  0.47306777798E+01  0.17770000000E+01 0.  1.
</event>
<event>
 6    1  0.8353910E-003  0.1673202E+03  0.7546771E-02  0.1081224E+00
        -11   -1    0    0    0    0  0.00000000000E+00  0.00000000000E+00  0.18250000000E+03  0.18250000000E+03  0.00000000000E+00 0. -1.
         11   -1    0    0    0    0 -0.00000000000E+00 -0.00000000000E+00 -0.18250000000E+03  0.18250000000E+03  0.00000000000E+00 0. -1.
        -11    1    1    2    0    0  0.20702131274E+01 -0.27809973600E+00  0.46719731542E+01  0.51176610878E+01  0.00000000000E+00 0. -1.
         11    1    1    2    0    0 -0.29644823378E+01 -0.29234047994E+02 -0.17146661185E+03  0.17396613664E+03  0.00000000000E+00 0. -1.
        -15    1    1    2    0    0  0.82512591192E+00  0.23617545353E+02  0.52742200602E+01  0.24278476219E+02  0.17770000000E+01 0.  1.
         15    1    1    2    0    0  0.69143298438E-01  0.58946023762E+01  0.16152041864E+03  0.16163772605E+03  0.17770000000E+01 0. -1.
</event>
<event>
 6    1  0.8353910E-003  0.1879693E+03  0.7546771E-02  0.1064183E+00
        -11   -1    0    0    0    0  0.00000000000E+00  0.00000000000E+00  0.18250000000E+03  0.18250000000E+03  0.00000000000E+00 0.  1.
         11   -1    0    0    0    0 -0.00000000000E+00 -0.00000000000E+00 -0.18250000000E+03  0.18250000000E+03  0.00000000000E+00 0. -1.
        -11    1    1    2    0    0  0.15304334720E+00 -0.30556717466E+01  0.17700426754E+03  0.17703070717E+03  0.00000000000E+00 0.  1.
         11    1    1    2    0    0  0.12403700309E+02  0.85825273416E+01 -0.16007177575E+03  0.16078086002E+03  0.00000000000E+00 0. -1.
        -15    1    1    2    0    0 -0.24630696962E+00  0.14000755386E+01  0.23160665449E+01  0.32469634857E+01  0.17770000000E+01 0.  1.
         15    1    1    2    0    0 -0.12310436686E+02 -0.69269311336E+01 -0.19248558338E+02  0.23941469325E+02  0.17770000000E+01 0. -1.
</event>
<event>
 6    1  0.8353910E-003  0.1865379E+03  0.7546771E-02  0.1065285E+00
        -11   -1    0    0    0    0  0.00000000000E+00  0.00000000000E+00  0.18250000000E+03  0.18250000000E+03  0.00000000000E+00 0.  1.
         11   -1    0    0    0    0 -0.00000000000E+00 -0.00000000000E+00 -0.18250000000E+03  0.18250000000E+03  0.00000000000E+00 0.  1.
        -11    1    1    2    0    0 -0.59071636115E+01 -0.19103198471E+01  0.17835405059E+03  0.17846207234E+03  0.00000000000E+00 0.  1.
         11    1    1    2    0    0 -0.45450292554E+01  0.23116814505E+01 -0.13209575370E+03  0.13219413492E+03  0.00000000000E+00 0.  1.
        -15    1    1    2    0    0  0.11227861445E+02  0.10592969855E+02 -0.35884186368E+02  0.39103816224E+02  0.17770000000E+01 0.  1.
         15    1    1    2    0    0 -0.77566857815E+00 -0.10994331458E+02 -0.10374110526E+02  0.15239976514E+02  0.17770000000E+01 0. -1.
</event>
<event>
 6    1  0.8353910E-003  0.1936930E+03  0.7546771E-02  0.1059879E+00
        -11   -1    0    0    0    0  0.00000000000E+00  0.00000000000E+00  0.18250000000E+03  0.18250000000E+03  0.00000000000E+00 0. -1.
         11   -1    0    0    0    0 -0.00000000000E+00 -0.00000000000E+00 -0.18250000000E+03  0.18250000000E+03  0.00000000000E+00 0. -1.
        -11    1    1    2    0    0  0.36232369026E+00  0.61334691352E+01  0.17119680085E+03  0.17130702071E+03  0.00000000000E+00 0. -1.
         11    1    1    2    0    0  0.12921180723E+02 -0.13183842924E+02 -0.98867115012E+02  0.10057572797E+03  0.00000000000E+00 0. -1.
        -15    1    1    2    0    0  0.61286779662E+01  0.12992067378E+01  0.79661925293E+01  0.10289148856E+02  0.17770000000E+01 0.  1.
         15    1    1    2    0    0 -0.19412182379E+02  0.57511670514E+01 -0.80295878367E+02  0.82828102471E+02  0.17770000000E+01 0. -1.
</event>
<event>
 6    1  0.8353910E-003  0.1861309E+03  0.7546771E-02  0.1065601E+00
        -11   -1    0    0    0    0  0.00000000000E+00  0.00000000000E+00  0.18250000000E+03  0.18250000000E+03  0.00000000000E+00 0.  1.
         11   -1    0    0    0    0 -0.00000000000E+00 -0.00000000000E+00 -0.18250000000E+03  0.18250000000E+03  0.00000000000E+00 0. -1.
        -11    1    1    2    0    0  0.22969421951E+01 -0.13014620742E+01  0.17884964458E+03  0.17886912845E+03  0.00000000000E+00 0.  1.
         11    1    1    2    0    0 -0.59502776051E+01  0.14557901095E+01 -0.15952525362E+03  0.15964282531E+03  0.00000000000E+00 0. -1.
        -15    1    1    2    0    0  0.19252939751E+01  0.76747186978E+01 -0.15359491726E+02  0.17368931431E+02  0.17770000000E+01 0. -1.
         15    1    1    2    0    0  0.17280414349E+01 -0.78290467331E+01 -0.39648992307E+01  0.91191148068E+01  0.17770000000E+01 0.  1.
</event>
<event>
 6    1  0.8353910E-003  0.1840697E+03  0.7546771E-02  0.1067212E+00
        -11   -1    0    0    0    0  0.00000000000E+00  0.00000000000E+00  0.18250000000E+03  0.18250000000E+03  0.00000000000E+00 0. -1.
         11   -1    0    0    0    0 -0.00000000000E+00 -0.00000000000E+00 -0.18250000000E+03  0.18250000000E+03  0.00000000000E+00 0. -1.
        -11    1    1    2    0    0 -0.93693070314E+00  0.14130914906E+01  0.11867190696E+03  0.11868401816E+03  0.00000000000E+00 0. -1.
         11    1    1    2    0    0 -0.14733167813E+01  0.49018584346E+01 -0.18085790035E+03  0.18093031531E+03  0.00000000000E+00 0. -1.
        -15    1    1    2    0    0 -0.10860970666E+01  0.18202665247E+01  0.50694858806E+02  0.50770261132E+02  0.17770000000E+01 0.  1.
         15    1    1    2    0    0  0.34963445511E+01 -0.81352164499E+01  0.11491134585E+02  0.14615405398E+02  0.17770000000E+01 0.  1.
</event>
<event>
 6    1  0.8353910E-003  0.1881606E+03  0.7546771E-02  0.1064036E+00
        -11   -1    0    0    0    0  0.00000000000E+00  0.00000000000E+00  0.18250000000E+03  0.18250000000E+03  0.00000000000E+00 0.  1.
         11   -1    0    0    0    0 -0.00000000000E+00 -0.00000000000E+00 -0.18250000000E+03  0.18250000000E+03  0.00000000000E+00 0.  1.
        -11    1    1    2    0    0 -0.23308883314E+01 -0.21484671272E+01  0.17681097739E+03  0.17683939233E+03  0.00000000000E+00 0.  1.
         11    1    1    2    0    0  0.24372867576E+00  0.31379837061E+01 -0.16914554487E+03  0.16917482583E+03  0.00000000000E+00 0.  1.
        -15    1    1    2    0    0  0.50084109980E+01  0.17950314346E+01 -0.11721413400E+02  0.12994444185E+02  0.17770000000E+01 0. -1.
         15    1    1    2    0    0 -0.29212513424E+01 -0.27845480136E+01  0.40559808774E+01  0.59913376572E+01  0.17770000000E+01 0.  1.
</event>
<event>
 6    1  0.9819463E-003  0.1827520E+03  0.7546771E-02  0.1068254E+00
        -11   -1    0    0    0    0  0.00000000000E+00  0.00000000000E+00  0.18250000000E+03  0.18250000000E+03  0.00000000000E+00 0.  1.
         11   -1    0    0    0    0 -0.00000000000E+00 -0.00000000000E+00 -0.18250000000E+03  0.18250000000E+03  0.00000000000E+00 0. -1.
        -11    1    1    2    0    0 -0.39954451040E+00  0.35891604619E+01  0.18221222396E+03  0.18224800758E+03  0.00000000000E+00 0.  1.
         11    1    1    2    0    0 -0.55998205266E+00 -0.96405249474E+00 -0.65219086357E+02  0.65228614904E+02  0.00000000000E+00 0. -1.
        -15    1    1    2    0    0 -0.17782565615E+01 -0.15846029997E+01 -0.90401996780E+01  0.95160970090E+01  0.17770000000E+01 0.  1.
         15    1    1    2    0    0  0.27377831246E+01 -0.10405049675E+01 -0.10795293792E+03  0.10800728050E+03  0.17770000000E+01 0. -1.
</event>
<event>
 6    1  0.8353910E-003  0.1826269E+03  0.7546771E-02  0.1068354E+00
        -11   -1    0    0    0    0  0.00000000000E+00  0.00000000000E+00  0.18250000000E+03  0.18250000000E+03  0.00000000000E+00 0.  1.
         11   -1    0    0    0    0 -0.00000000000E+00 -0.00000000000E+00 -0.18250000000E+03  0.18250000000E+03  0.00000000000E+00 0. -1.
        -11    1    1    2    0    0 -0.47318504798E+00  0.43601587161E+00  0.17761913856E+02  0.17773564577E+02  0.00000000000E+00 0.  1.
         11    1    1    2    0    0  0.38859223252E+01 -0.85620977465E+00 -0.18232969576E+03  0.18237311052E+03  0.00000000000E+00 0. -1.
        -15    1    1    2    0    0  0.23735627645E+01 -0.73305080973E+00  0.81550007081E+02  0.81607184412E+02  0.17770000000E+01 0. -1.
         15    1    1    2    0    0 -0.57863000417E+01  0.11532447128E+01  0.83017774818E+02  0.83246140489E+02  0.17770000000E+01 0.  1.
</event>
<event>
 6    1  0.8353910E-003  0.1852679E+03  0.7546771E-02  0.1066273E+00
        -11   -1    0    0    0    0  0.00000000000E+00  0.00000000000E+00  0.18250000000E+03  0.18250000000E+03  0.00000000000E+00 0.  1.
         11   -1    0    0    0    0 -0.00000000000E+00 -0.00000000000E+00 -0.18250000000E+03  0.18250000000E+03  0.00000000000E+00 0. -1.
        -11    1    1    2    0    0 -0.14828767626E+01  0.14265389532E+01  0.10047137525E+03  0.10049244340E+03  0.00000000000E+00 0.  1.
         11    1    1    2    0    0  0.77887392778E+01 -0.14728715856E+02 -0.17895816914E+03  0.17973209461E+03  0.00000000000E+00 0. -1.
        -15    1    1    2    0    0 -0.13981854436E+01  0.30805551069E+01  0.70932381384E+02  0.71035239143E+02  0.17770000000E+01 0.  1.
         15    1    1    2    0    0 -0.49076770716E+01  0.10221621796E+02  0.75544125121E+01  0.13740222843E+02  0.17770000000E+01 0. -1.
</event>
<event>
 6    1  0.8353910E-003  0.1827020E+03  0.7546771E-02  0.1068294E+00
        -11   -1    0    0    0    0  0.00000000000E+00  0.00000000000E+00  0.18250000000E+03  0.18250000000E+03  0.00000000000E+00 0. -1.
         11   -1    0    0    0    0 -0.00000000000E+00 -0.00000000000E+00 -0.18250000000E+03  0.18250000000E+03  0.00000000000E+00 0. -1.
        -11    1    1    2    0    0  0.12499980137E+01 -0.68052494653E+00  0.33364993172E+02  0.33395334683E+02  0.00000000000E+00 0. -1.
         11    1    1    2    0    0 -0.20637380642E+01  0.13459345475E+01 -0.18228137137E+03  0.18229802222E+03  0.00000000000E+00 0. -1.
        -15    1    1    2    0    0  0.78626273727E+00 -0.49480574669E+01  0.50033060710E+02  0.50314673553E+02  0.17770000000E+01 0.  1.
         15    1    1    2    0    0  0.27477313135E-01  0.42826478659E+01  0.98883317491E+02  0.98991969547E+02  0.17770000000E+01 0. -1.
</event>
<event>
 6    1  0.8353910E-003  0.1846180E+03  0.7546771E-02  0.1066781E+00
        -11   -1    0    0    0    0  0.00000000000E+00  0.00000000000E+00  0.18250000000E+03  0.18250000000E+03  0.00000000000E+00 0. -1.
         11   -1    0    0    0    0 -0.00000000000E+00 -0.00000000000E+00 -0.18250000000E+03  0.18250000000E+03  0.00000000000E+00 0.  1.
        -11    1    1    2    0    0  0.17164533369E+01 -0.24230299051E+01  0.18035752560E+03  0.18038196785E+03  0.00000000000E+00 0. -1.
         11    1    1    2    0    0 -0.85838959179E+00  0.38525650417E+01 -0.17622184087E+03  0.17626603839E+03  0.00000000000E+00 0.  1.
        -15    1    1    2    0    0 -0.21024575743E+01  0.13429067546E+01 -0.37023710909E+01  0.48051021943E+01  0.17770000000E+01 0.  1.
         15    1    1    2    0    0  0.12443938292E+01 -0.27724418912E+01 -0.43331363440E+00  0.35468915613E+01  0.17770000000E+01 0. -1.
</event>
<event>
 6    1  0.8353910E-003  0.1825661E+03  0.7546771E-02  0.1068402E+00
        -11   -1    0    0    0    0  0.00000000000E+00  0.00000000000E+00  0.18250000000E+03  0.18250000000E+03  0.00000000000E+00 0. -1.
         11   -1    0    0    0    0 -0.00000000000E+00 -0.00000000000E+00 -0.18250000000E+03  0.18250000000E+03  0.00000000000E+00 0. -1.
        -11    1    1    2    0    0  0.20400049257E+01 -0.83624930214E+00  0.60735967809E+02  0.60775971556E+02  0.00000000000E+00 0. -1.
         11    1    1    2    0    0 -0.24746098826E+01  0.33834723481E+01 -0.18238577427E+03  0.18243393937E+03  0.00000000000E+00 0. -1.
        -15    1    1    2    0    0  0.12064763410E+01 -0.21446245575E+01  0.39496672638E+02  0.39613127598E+02  0.17770000000E+01 0.  1.
         15    1    1    2    0    0 -0.77187138415E+00 -0.40259848843E+00  0.82153133823E+02  0.82176961473E+02  0.17770000000E+01 0. -1.
</event>
<event>
 6    1  0.8353910E-003  0.1829772E+03  0.7546771E-02  0.1068076E+00
        -11   -1    0    0    0    0  0.00000000000E+00  0.00000000000E+00  0.18250000000E+03  0.18250000000E+03  0.00000000000E+00 0.  1.
         11   -1    0    0    0    0 -0.00000000000E+00 -0.00000000000E+00 -0.18250000000E+03  0.18250000000E+03  0.00000000000E+00 0.  1.
        -11    1    1    2    0    0 -0.55769546363E+00 -0.29442007636E+00  0.25011344026E+02  0.25019293304E+02  0.00000000000E+00 0.  1.
         11    1    1    2    0    0  0.95033624565E+01  0.75256470263E+01 -0.18161872193E+03  0.18202282664E+03  0.00000000000E+00 0.  1.
        -15    1    1    2    0    0 -0.11270508853E+02 -0.80784777932E+01  0.74887607333E+02  0.76181347023E+02  0.17770000000E+01 0.  1.
         15    1    1    2    0    0  0.23248418597E+01  0.84725084331E+00  0.81719770573E+02  0.81776533034E+02  0.17770000000E+01 0.  1.
</event>
<event>
 6    1  0.8353910E-003  0.1848739E+03  0.7546771E-02  0.1066581E+00
        -11   -1    0    0    0    0  0.00000000000E+00  0.00000000000E+00  0.18250000000E+03  0.18250000000E+03  0.00000000000E+00 0. -1.
         11   -1    0    0    0    0 -0.00000000000E+00 -0.00000000000E+00 -0.18250000000E+03  0.18250000000E+03  0.00000000000E+00 0.  1.
        -11    1    1    2    0    0  0.36951669844E+01  0.17235537634E+01  0.13375713070E+03  0.13381926211E+03  0.00000000000E+00 0. -1.
         11    1    1    2    0    0 -0.94872599317E+01 -0.98733961328E+00 -0.17987340471E+03  0.18012613543E+03  0.00000000000E+00 0.  1.
        -15    1    1    2    0    0  0.49573448108E+01  0.26779302302E+01  0.12791949025E+01  0.60448859782E+01  0.17770000000E+01 0. -1.
         15    1    1    2    0    0  0.83474813646E+00 -0.34141443803E+01  0.44837079108E+02  0.45009716487E+02  0.17770000000E+01 0.  1.
</event>
<event>
 6    1  0.8353910E-003  0.1908394E+03  0.7546771E-02  0.1062004E+00
        -11   -1    0    0    0    0  0.00000000000E+00  0.00000000000E+00  0.18250000000E+03  0.18250000000E+03  0.00000000000E+00 0.  1.
         11   -1    0    0    0    0 -0.00000000000E+00 -0.00000000000E+00 -0.18250000000E+03  0.18250000000E+03  0.00000000000E+00 0.  1.
        -11    1    1    2    0    0 -0.80898427219E+01 -0.22609039946E+01  0.16303395988E+03  0.16325020465E+03  0.00000000000E+00 0.  1.
         11    1    1    2    0    0  0.20081234631E+01 -0.41914215803E+01 -0.17409853799E+03  0.17416056243E+03  0.00000000000E+00 0.  1.
        -15    1    1    2    0    0  0.42087157882E+01  0.60961677246E+01 -0.63887665074E+01  0.99423647085E+01  0.17770000000E+01 0. -1.
         15    1    1    2    0    0  0.18730034706E+01  0.35615785038E+00  0.17453344617E+02  0.17646868213E+02  0.17770000000E+01 0.  1.
</event>
<event>
 6    1  0.8353910E-003  0.1826245E+03  0.7546771E-02  0.1068356E+00
        -11   -1    0    0    0    0  0.00000000000E+00  0.00000000000E+00  0.18250000000E+03  0.18250000000E+03  0.00000000000E+00 0. -1.
         11   -1    0    0    0    0 -0.00000000000E+00 -0.00000000000E+00 -0.18250000000E+03  0.18250000000E+03  0.00000000000E+00 0. -1.
        -11    1    1    2    0    0  0.24810486010E+00 -0.12538125430E+01  0.15047764311E+02  0.15101947314E+02  0.00000000000E+00 0. -1.
         11    1    1    2    0    0 -0.88435037397E+00 -0.33519171830E+01 -0.18234257437E+03  0.18237552427E+03  0.00000000000E+00 0. -1.
        -15    1    1    2    0    0  0.27803145092E+01  0.48679604783E+01  0.10431909938E+03  0.10448473291E+03  0.17770000000E+01 0. -1.
         15    1    1    2    0    0 -0.21440689953E+01 -0.26223075229E+00  0.62975710682E+02  0.63037795502E+02  0.17770000000E+01 0.  1.
</event>
<event>
 6    1  0.8353910E-003  0.1876662E+03  0.7546771E-02  0.1064415E+00
        -11   -1    0    0    0    0  0.00000000000E+00  0.00000000000E+00  0.18250000000E+03  0.18250000000E+03  0.00000000000E+00 0.  1.
         11   -1    0    0    0    0 -0.00000000000E+00 -0.00000000000E+00 -0.18250000000E+03  0.18250000000E+03  0.00000000000E+00 0.  1.
        -11    1    1    2    0    0  0.23430055999E+01  0.77260732397E+00  0.17102034703E+03  0.17103814106E+03  0.00000000000E+00 0.  1.
         11    1    1    2    0    0 -0.70261136224E+01  0.43307585440E+01 -0.17714163437E+03  0.17733381056E+03  0.00000000000E+00 0.  1.
        -15    1    1    2    0    0  0.26511697273E+00  0.11113972232E+01  0.82485459787E+01  0.85147948043E+01  0.17770000000E+01 0. -1.
         15    1    1    2    0    0  0.44179910498E+01 -0.62147630912E+01 -0.21272586423E+01  0.81132535722E+01  0.17770000000E+01 0. -1.
</event>
<event>
 6    1  0.8353910E-003  0.1909739E+03  0.7546771E-02  0.1061903E+00
        -11   -1    0    0    0    0  0.00000000000E+00  0.00000000000E+00  0.18250000000E+03  0.18250000000E+03  0.00000000000E+00 0.  1.
         11   -1    0    0    0    0 -0.00000000000E+00 -0.00000000000E+00 -0.18250000000E+03  0.18250000000E+03  0.00000000000E+00 0.  1.
        -11    1    1    2    0    0 -0.17155450627E+01  0.25384453817E+01  0.17399909530E+03  0.17402606691E+03  0.00000000000E+00 0.  1.
         11    1    1    2    0    0  0.20742948272E+01 -0.15767489917E+01 -0.16571077956E+03  0.16573126228E+03  0.00000000000E+00 0.  1.
        -15    1    1    2    0    0  0.74109270401E+01  0.56723086929E+01  0.29531727286E+01  0.99486624059E+01  0.17770000000E+01 0.  1.
         15    1    1    2    0    0 -0.77696768047E+01 -0.66340050828E+01 -0.11241488468E+02  0.15294008404E+02  0.17770000000E+01 0. -1.
</event>
<event>
 6    1  0.8353910E-003  0.1840970E+03  0.7546771E-02  0.1067191E+00
        -11   -1    0    0    0    0  0.00000000000E+00  0.00000000000E+00  0.18250000000E+03  0.18250000000E+03  0.00000000000E+00 0.  1.
         11   -1    0    0    0    0 -0.00000000000E+00 -0.00000000000E+00 -0.18250000000E+03  0.18250000000E+03  0.00000000000E+00 0. -1.
        -11    1    1    2    0    0 -0.19119325839E+01 -0.80923545168E+00  0.56507483755E+02  0.56545610516E+02  0.00000000000E+00 0.  1.
         11    1    1    2    0    0 -0.38559211463E+01  0.14247183624E+02 -0.18029990144E+03  0.18090302604E+03  0.00000000000E+00 0. -1.
        -15    1    1    2    0    0 -0.10086128199E+02 -0.66468852175E+00  0.44409400614E+02  0.45579868196E+02  0.17770000000E+01 0. -1.
         15    1    1    2    0    0  0.15853981929E+02 -0.12773259650E+02  0.79383017074E+02  0.81971495252E+02  0.17770000000E+01 0.  1.
</event>
<event>
 6    1  0.8353910E-003  0.1832077E+03  0.7546771E-02  0.1067893E+00
        -11   -1    0    0    0    0  0.00000000000E+00  0.00000000000E+00  0.18250000000E+03  0.18250000000E+03  0.00000000000E+00 0. -1.
         11   -1    0    0    0    0 -0.00000000000E+00 -0.00000000000E+00 -0.18250000000E+03  0.18250000000E+03  0.00000000000E+00 0.  1.
        -11    1    1    2    0    0  0.17542876676E+01  0.12297048823E+01  0.12637039152E+03  0.12638854992E+03  0.00000000000E+00 0. -1.
         11    1    1    2    0    0 -0.60251224238E+00  0.26289336007E+01 -0.18177229928E+03  0.18179230759E+03  0.00000000000E+00 0.  1.
        -15    1    1    2    0    0 -0.22216107679E+00 -0.14950197050E+01  0.13842569190E+01  0.27126252377E+01  0.17770000000E+01 0.  1.
         15    1    1    2    0    0 -0.92961434839E+00 -0.23636187780E+01  0.54017650847E+02  0.54106517247E+02  0.17770000000E+01 0. -1.
</event>
<event>
 6    1  0.8353910E-003  0.1855383E+03  0.7546771E-02  0.1066062E+00
        -11   -1    0    0    0    0  0.00000000000E+00  0.00000000000E+00  0.18250000000E+03  0.18250000000E+03  0.00000000000E+00 0.  1.
         11   -1    0    0    0    0 -0.00000000000E+00 -0.00000000000E+00 -0.18250000000E+03  0.18250000000E+03  0.00000000000E+00 0.  1.
        -11    1    1    2    0    0 -0.57438574195E+01 -0.47200682411E+01  0.17930765181E+03  0.17946170884E+03  0.00000000000E+00 0.  1.
         11    1    1    2    0    0 -0.51654215897E+00 -0.47781351635E+01 -0.16048035453E+03  0.16055230170E+03  0.00000000000E+00 0.  1.
        -15    1    1    2    0    0 -0.19379812557E+01 -0.96198203644E+00 -0.18649862748E+01  0.33640873341E+01  0.17770000000E+01 0.  1.
         15    1    1    2    0    0  0.81983808342E+01  0.10460185441E+02 -0.16962311005E+02  0.21621902123E+02  0.17770000000E+01 0.  1.
</event>
<event>
 6    1  0.8353910E-003  0.1835903E+03  0.7546771E-02  0.1067590E+00
        -11   -1    0    0    0    0  0.00000000000E+00  0.00000000000E+00  0.18250000000E+03  0.18250000000E+03  0.00000000000E+00 0. -1.
         11   -1    0    0    0    0 -0.00000000000E+00 -0.00000000000E+00 -0.18250000000E+03  0.18250000000E+03  0.00000000000E+00 0.  1.
        -11    1    1    2    0    0  0.30986406047E+01 -0.92096785437E+00  0.14925136795E+03  0.14928637108E+03  0.00000000000E+00 0. -1.
         11    1    1    2    0    0  0.12436115149E+01 -0.33216543454E+01 -0.18137505248E+03  0.18140972857E+03  0.00000000000E+00 0.  1.
        -15    1    1    2    0    0 -0.36919916683E+01  0.48611160023E+01  0.85931465019E+01  0.10689300588E+02  0.17770000000E+01 0. -1.
         15    1    1    2    0    0 -0.65026045132E+00 -0.61849380251E+00  0.23530538024E+02  0.23614599763E+02  0.17770000000E+01 0. -1.
</event>
<event>
 6    1  0.8353910E-003  0.1425747E+03  0.7546771E-02  0.1105592E+00
        -11   -1    0    0    0    0  0.00000000000E+00  0.00000000000E+00  0.18250000000E+03  0.18250000000E+03  0.00000000000E+00 0.  1.
         11   -1    0    0    0    0 -0.00000000000E+00 -0.00000000000E+00 -0.18250000000E+03  0.18250000000E+03  0.00000000000E+00 0.  1.
        -11    1    1    2    0    0  0.40398156455E+01 -0.83629235978E+00  0.13945890866E+03  0.13951991506E+03  0.00000000000E+00 0.  1.
         11    1    1    2    0    0  0.67173734578E+01  0.47581675491E+01 -0.14569504029E+03  0.14592740671E+03  0.00000000000E+00 0.  1.
        -15    1    1    2    0    0  0.50220746321E+01  0.10632814778E+02 -0.32843193387E+02  0.34930088242E+02  0.17770000000E+01 0.  1.
         15    1    1    2    0    0 -0.15779263735E+02 -0.14554689967E+02  0.39079325020E+02  0.44622589986E+02  0.17770000000E+01 0. -1.
</event>
<event>
 6    1  0.8353910E-003  0.1834256E+03  0.7546771E-02  0.1067720E+00
        -11   -1    0    0    0    0  0.00000000000E+00  0.00000000000E+00  0.18250000000E+03  0.18250000000E+03  0.00000000000E+00 0. -1.
         11   -1    0    0    0    0 -0.00000000000E+00 -0.00000000000E+00 -0.18250000000E+03  0.18250000000E+03  0.00000000000E+00 0.  1.
        -11    1    1    2    0    0 -0.30696002808E+01  0.19989497238E+01  0.15950440345E+03  0.15954646021E+03  0.00000000000E+00 0. -1.
         11    1    1    2    0    0 -0.24187172299E+01  0.14557506541E+01 -0.18155250287E+03  0.18157444947E+03  0.00000000000E+00 0.  1.
        -15    1    1    2    0    0  0.29655881502E+01  0.34027255056E+00  0.46366989011E+01  0.57937211000E+01  0.17770000000E+01 0.  1.
         15    1    1    2    0    0  0.25227293606E+01 -0.37949729285E+01  0.17411400518E+02  0.18085369224E+02  0.17770000000E+01 0. -1.
</event>
<event>
 6    1  0.8353910E-003  0.1832682E+03  0.7546771E-02  0.1067845E+00
        -11   -1    0    0    0    0  0.00000000000E+00  0.00000000000E+00  0.18250000000E+03  0.18250000000E+03  0.00000000000E+00 0.  1.
         11   -1    0    0    0    0 -0.00000000000E+00 -0.00000000000E+00 -0.18250000000E+03  0.18250000000E+03  0.00000000000E+00 0.  1.
        -11    1    1    2    0    0  0.47324770774E+00 -0.34684625858E+01  0.18169805580E+03  0.18173177399E+03  0.00000000000E+00 0.  1.
         11    1    1    2    0    0  0.50387781395E+01  0.27769761266E+01 -0.13413276625E+03  0.13425609805E+03  0.00000000000E+00 0.  1.
        -15    1    1    2    0    0 -0.76197395899E+01  0.24008904934E+01 -0.27701218165E+02  0.28884942849E+02  0.17770000000E+01 0.  1.
         15    1    1    2    0    0  0.21077137427E+01 -0.17094040342E+01 -0.19864071382E+02  0.20127185105E+02  0.17770000000E+01 0.  1.
</event>
<event>
 6    1  0.8353910E-003  0.1833996E+03  0.7546771E-02  0.1067741E+00
        -11   -1    0    0    0    0  0.00000000000E+00  0.00000000000E+00  0.18250000000E+03  0.18250000000E+03  0.00000000000E+00 0.  1.
         11   -1    0    0    0    0 -0.00000000000E+00 -0.00000000000E+00 -0.18250000000E+03  0.18250000000E+03  0.00000000000E+00 0.  1.
        -11    1    1    2    0    0 -0.79757730577E+00 -0.23792068230E+01  0.18158302762E+03  0.18160036529E+03  0.00000000000E+00 0.  1.
         11    1    1    2    0    0  0.10298699027E+01  0.20353413560E+01 -0.48882133831E+02  0.48935327263E+02  0.00000000000E+00 0.  1.
        -15    1    1    2    0    0 -0.50081609327E+01  0.71301780499E+01 -0.27073596670E+02  0.28496639812E+02  0.17770000000E+01 0. -1.
         15    1    1    2    0    0  0.47758683358E+01 -0.67863125828E+01 -0.10562729712E+03  0.10596766763E+03  0.17770000000E+01 0.  1.
</event>
<event>
 6    1  0.8353910E-003  0.1827687E+03  0.7546771E-02  0.1068241E+00
        -11   -1    0    0    0    0  0.00000000000E+00  0.00000000000E+00  0.18250000000E+03  0.18250000000E+03  0.00000000000E+00 0.  1.
         11   -1    0    0    0    0 -0.00000000000E+00 -0.00000000000E+00 -0.18250000000E+03  0.18250000000E+03  0.00000000000E+00 0.  1.
        -11    1    1    2    0    0 -0.48673274236E+00 -0.34694678470E+01  0.12498688371E+03  0.12503597568E+03  0.00000000000E+00 0.  1.
         11    1    1    2    0    0 -0.48653109932E+01  0.19359974321E+01 -0.18215601667E+03  0.18223126446E+03  0.00000000000E+00 0.  1.
        -15    1    1    2    0    0  0.72844125329E+00 -0.47643012246E+00  0.68376011432E+01  0.71181550078E+01  0.17770000000E+01 0.  1.
         15    1    1    2    0    0  0.46236024822E+01  0.20099005374E+01  0.50331531821E+02  0.50614604854E+02  0.17770000000E+01 0.  1.
</event>
<event>
 6    1  0.8353910E-003  0.1834347E+03  0.7546771E-02  0.1067713E+00
        -11   -1    0    0    0    0  0.00000000000E+00  0.00000000000E+00  0.18250000000E+03  0.18250000000E+03  0.00000000000E+00 0.  1.
         11   -1    0    0    0    0 -0.00000000000E+00 -0.00000000000E+00 -0.18250000000E+03  0.18250000000E+03  0.00000000000E+00 0. -1.
        -11    1    1    2    0    0  0.18620606080E+01  0.54299623940E+00  0.11068752907E+03  0.11070452207E+03  0.00000000000E+00 0.  1.
         11    1    1    2    0    0  0.26210516699E+01 -0.71062457479E+00 -0.18154500864E+03  0.18156531899E+03  0.00000000000E+00 0. -1.
        -15    1    1    2    0    0  0.61135695519E+00 -0.97760812712E-01  0.63871472835E+02  0.63899186894E+02  0.17770000000E+01 0.  1.
         15    1    1    2    0    0 -0.50944692330E+01  0.26538914811E+00  0.69860067343E+01  0.88309720449E+01  0.17770000000E+01 0.  1.
</event>
<event>
 6    1  0.8353910E-003  0.1843462E+03  0.7546771E-02  0.1066995E+00
        -11   -1    0    0    0    0  0.00000000000E+00  0.00000000000E+00  0.18250000000E+03  0.18250000000E+03  0.00000000000E+00 0.  1.
         11   -1    0    0    0    0 -0.00000000000E+00 -0.00000000000E+00 -0.18250000000E+03  0.18250000000E+03  0.00000000000E+00 0.  1.
        -11    1    1    2    0    0 -0.30829201036E+01  0.52016667771E+00  0.14638522824E+03  0.14641861226E+03  0.00000000000E+00 0.  1.
         11    1    1    2    0    0 -0.30050331262E+01 -0.23404586769E+01 -0.18061366307E+03  0.18065382160E+03  0.00000000000E+00 0.  1.
        -15    1    1    2    0    0  0.23885573956E+00  0.59575486494E+00 -0.10096438202E+01  0.21422151076E+01  0.17770000000E+01 0.  1.
         15    1    1    2    0    0  0.58490974903E+01  0.12245371342E+01  0.35238078651E+02  0.35785351035E+02  0.17770000000E+01 0. -1.
</event>
<event>
 6    1  0.8353910E-003  0.1833707E+03  0.7546771E-02  0.1067764E+00
        -11   -1    0    0    0    0  0.00000000000E+00  0.00000000000E+00  0.18250000000E+03  0.18250000000E+03  0.00000000000E+00 0. -1.
         11   -1    0    0    0    0 -0.00000000000E+00 -0.00000000000E+00 -0.18250000000E+03  0.18250000000E+03  0.00000000000E+00 0. -1.
        -11    1    1    2    0    0 -0.20718501808E+00  0.32592348247E+01  0.18159992698E+03  0.18162929009E+03  0.00000000000E+00 0. -1.
         11    1    1    2    0    0  0.61115865633E+01  0.31786528439E+01 -0.45894565646E+02  0.46408689705E+02  0.00000000000E+00 0. -1.
        -15    1    1    2    0    0 -0.97872514688E+00 -0.85584862058E+01 -0.11905206421E+03  0.11937653585E+03  0.17770000000E+01 0. -1.
         15    1    1    2    0    0 -0.49256763984E+01  0.21205985371E+01 -0.16653297121E+02  0.17585484359E+02  0.17770000000E+01 0.  1.
</event>
<event>
 6    1  0.8353910E-003  0.1896511E+03  0.7546771E-02  0.1062901E+00
        -11   -1    0    0    0    0  0.00000000000E+00  0.00000000000E+00  0.18250000000E+03  0.18250000000E+03  0.00000000000E+00 0.  1.
         11   -1    0    0    0    0 -0.00000000000E+00 -0.00000000000E+00 -0.18250000000E+03  0.18250000000E+03  0.00000000000E+00 0.  1.
        -11    1    1    2    0    0 -0.55382440228E+01  0.27680335357E+01  0.11296463741E+03  0.11313418344E+03  0.00000000000E+00 0.  1.
         11    1    1    2    0    0 -0.55054412131E+01  0.18325904978E+01 -0.17525283356E+03  0.17534886353E+03  0.00000000000E+00 0.  1.
        -15    1    1    2    0    0  0.75796487932E+01  0.21027030771E+00  0.67790150225E+02  0.68236042426E+02  0.17770000000E+01 0. -1.
         15    1    1    2    0    0  0.34640364427E+01 -0.48108943412E+01 -0.55019540767E+01  0.82809106082E+01  0.17770000000E+01 0.  1.
</event>
<event>
 6    1  0.8353910E-003  0.1828072E+03  0.7546771E-02  0.1068211E+00
        -11   -1    0    0    0    0  0.00000000000E+00  0.00000000000E+00  0.18250000000E+03  0.18250000000E+03  0.00000000000E+00 0.  1.
         11   -1    0    0    0    0 -0.00000000000E+00 -0.00000000000E+00 -0.18250000000E+03  0.18250000000E+03  0.00000000000E+00 0.  1.
        -11    1    1    2    0    0 -0.20241990820E+01  0.29869226119E+01  0.18215703988E+03  0.18219277227E+03  0.00000000000E+00 0.  1.
         11    1    1    2    0    0  0.60874575033E+00  0.21992587972E+01 -0.10115233000E+03  0.10117806667E+03  0.00000000000E+00 0.  1.
        -15    1    1    2    0    0  0.12632838608E+01  0.99901560459E+00 -0.44254601921E+02  0.44319537886E+02  0.17770000000E+01 0.  1.
         15    1    1    2    0    0  0.15216947089E+00 -0.61851970137E+01 -0.36750107957E+02  0.37309623176E+02  0.17770000000E+01 0.  1.
</event>
<event>
 6    1  0.8353910E-003  0.1862947E+03  0.7546771E-02  0.1065474E+00
        -11   -1    0    0    0    0  0.00000000000E+00  0.00000000000E+00  0.18250000000E+03  0.18250000000E+03  0.00000000000E+00 0.  1.
         11   -1    0    0    0    0 -0.00000000000E+00 -0.00000000000E+00 -0.18250000000E+03  0.18250000000E+03  0.00000000000E+00 0.  1.
        -11    1    1    2    0    0 -0.29032677779E+01 -0.13607804181E+01  0.17130476481E+03  0.17133476919E+03  0.00000000000E+00 0.  1.
         11    1    1    2    0    0 -0.10628763343E+01 -0.71837145897E+01 -0.17855766328E+03  0.17870527294E+03  0.00000000000E+00 0.  1.
        -15    1    1    2    0    0  0.19005809938E+01 -0.66182195364E+00  0.40104676855E+01  0.48261575264E+01  0.17770000000E+01 0.  1.
         15    1    1    2    0    0  0.20655631183E+01  0.92063169614E+01  0.32424307842E+01  0.10133800342E+02  0.17770000000E+01 0. -1.
</event>
<event>
 6    1  0.8353910E-003  0.1864349E+03  0.7546771E-02  0.1065365E+00
        -11   -1    0    0    0    0  0.00000000000E+00  0.00000000000E+00  0.18250000000E+03  0.18250000000E+03  0.00000000000E+00 0.  1.
         11   -1    0    0    0    0 -0.00000000000E+00 -0.00000000000E+00 -0.18250000000E+03  0.18250000000E+03  0.00000000000E+00 0.  1.
        -11    1    1    2    0    0  0.15520364014E+01 -0.24227962524E+01  0.17854189182E+03  0.17856507468E+03  0.00000000000E+00 0.  1.
         11    1    1    2    0    0 -0.92250245428E+00 -0.18027456063E+01 -0.14754163740E+03  0.14755553418E+03  0.00000000000E+00 0.  1.
        -15    1    1    2    0    0 -0.35784883994E+01 -0.39437094422E+01  0.97499440519E+00  0.56979616074E+01  0.17770000000E+01 0. -1.
         15    1    1    2    0    0  0.29489544523E+01  0.81692513010E+01 -0.31975248831E+02  0.33181429535E+02  0.17770000000E+01 0.  1.
</event>
<event>
 6    1  0.8353910E-003  0.1828852E+03  0.7546771E-02  0.1068149E+00
        -11   -1    0    0    0    0  0.00000000000E+00  0.00000000000E+00  0.18250000000E+03  0.18250000000E+03  0.00000000000E+00 0. -1.
         11   -1    0    0    0    0 -0.00000000000E+00 -0.00000000000E+00 -0.18250000000E+03  0.18250000000E+03  0.00000000000E+00 0.  1.
        -11    1    1    2    0    0 -0.26022133424E+01 -0.32562480280E-01  0.14671740321E+03  0.14674048173E+03  0.00000000000E+00 0. -1.
         11    1    1    2    0    0 -0.16967458974E+00 -0.44969629018E+01 -0.18205919569E+03  0.18211480500E+03  0.00000000000E+00 0.  1.
        -15    1    1    2    0    0  0.13718659214E+01  0.27712515635E+01  0.95492142175E+01  0.10193481864E+02  0.17770000000E+01 0. -1.
         15    1    1    2    0    0  0.14000220107E+01  0.17582738187E+01  0.25792578271E+02  0.25951231402E+02  0.17770000000E+01 0. -1.
</event>
<event>
 6    1  0.8353910E-003  0.1902513E+03  0.7546771E-02  0.1062447E+00
        -11   -1    0    0    0    0  0.00000000000E+00  0.00000000000E+00  0.18250000000E+03  0.18250000000E+03  0.00000000000E+00 0.  1.
         11   -1    0    0    0    0 -0.00000000000E+00 -0.00000000000E+00 -0.18250000000E+03  0.18250000000E+03  0.00000000000E+00 0.  1.
        -11    1    1    2    0    0 -0.29244264453E+01 -0.49044375991E+00  0.17472351543E+03  0.17474867568E+03  0.00000000000E+00 0.  1.
         11    1    1    2    0    0 -0.66605971520E+00 -0.51922645970E+01 -0.16938961614E+03  0.16947048505E+03  0.00000000000E+00 0.  1.
        -15    1    1    2    0    0 -0.44591056406E+00  0.39599679080E+01  0.66170664280E+01  0.79261263664E+01  0.17770000000E+01 0. -1.
         15    1    1    2    0    0  0.40363967246E+01  0.17227404489E+01 -0.11950965720E+02  0.12854712902E+02  0.17770000000E+01 0.  1.
</event>
<event>
 6    1  0.8353910E-003  0.1896884E+03  0.7546771E-02  0.1062873E+00
        -11   -1    0    0    0    0  0.00000000000E+00  0.00000000000E+00  0.18250000000E+03  0.18250000000E+03  0.00000000000E+00 0.  1.
         11   -1    0    0    0    0 -0.00000000000E+00 -0.00000000000E+00 -0.18250000000E+03  0.18250000000E+03  0.00000000000E+00 0. -1.
        -11    1    1    2    0    0 -0.30361001946E+01  0.14733145453E+01  0.16819199876E+03  0.16822585118E+03  0.00000000000E+00 0.  1.
         11    1    1    2    0    0 -0.72917253539E+00 -0.24379279557E+01 -0.17529315065E+03  0.17531161927E+03  0.00000000000E+00 0. -1.
        -15    1    1    2    0    0  0.34319514823E+01  0.33124612664E+01 -0.60932094920E+01  0.79394975616E+01  0.17770000000E+01 0. -1.
         15    1    1    2    0    0  0.33332124773E+00 -0.23478478559E+01  0.13194361390E+02  0.13523031987E+02  0.17770000000E+01 0.  1.
</event>
<event>
 6    1  0.8353910E-003  0.1768211E+03  0.7546771E-02  0.1073067E+00
        -11   -1    0    0    0    0  0.00000000000E+00  0.00000000000E+00  0.18250000000E+03  0.18250000000E+03  0.00000000000E+00 0.  1.
         11   -1    0    0    0    0 -0.00000000000E+00 -0.00000000000E+00 -0.18250000000E+03  0.18250000000E+03  0.00000000000E+00 0.  1.
        -11    1    1    2    0    0  0.10861671395E+01 -0.39631150236E+01  0.17693860819E+03  0.17698631899E+03  0.00000000000E+00 0.  1.
         11    1    1    2    0    0  0.26083726152E+01 -0.21866217066E+00 -0.17668064369E+03  0.17670003191E+03  0.00000000000E+00 0.  1.
        -15    1    1    2    0    0 -0.13180004760E+01  0.79443788164E+00  0.43035482538E+01  0.49037244391E+01  0.17770000000E+01 0.  1.
         15    1    1    2    0    0 -0.23765392787E+01  0.33873393126E+01 -0.45615127566E+01  0.64099246634E+01  0.17770000000E+01 0. -1.
</event>
<event>
 6    1  0.8353910E-003  0.1829695E+03  0.7546771E-02  0.1068082E+00
        -11   -1    0    0    0    0  0.00000000000E+00  0.00000000000E+00  0.18250000000E+03  0.18250000000E+03  0.00000000000E+00 0. -1.
         11   -1    0    0    0    0 -0.00000000000E+00 -0.00000000000E+00 -0.18250000000E+03  0.18250000000E+03  0.00000000000E+00 0.  1.
        -11    1    1    2    0    0  0.24947866371E+01 -0.87305064839E+00  0.18201132999E+03  0.18203052057E+03  0.00000000000E+00 0. -1.
         11    1    1    2    0    0  0.13115617747E+01  0.17499615653E+01 -0.14212347221E+03  0.14214029658E+03  0.00000000000E+00 0.  1.
        -15    1    1    2    0    0 -0.33785728713E+01  0.12095928579E+01 -0.94266402135E+01  0.10241930689E+02  0.17770000000E+01 0. -1.
         15    1    1    2    0    0 -0.42777554050E+00 -0.20865037748E+01 -0.30461217563E+02  0.30587252154E+02  0.17770000000E+01 0. -1.
</event>
<event>
 6    1  0.8353910E-003  0.1851677E+03  0.7546771E-02  0.1066351E+00
        -11   -1    0    0    0    0  0.00000000000E+00  0.00000000000E+00  0.18250000000E+03  0.18250000000E+03  0.00000000000E+00 0.  1.
         11   -1    0    0    0    0 -0.00000000000E+00 -0.00000000000E+00 -0.18250000000E+03  0.18250000000E+03  0.00000000000E+00 0. -1.
        -11    1    1    2    0    0 -0.70945606482E+01 -0.39987296242E+01  0.17964778085E+03  0.17983227684E+03  0.00000000000E+00 0.  1.
         11    1    1    2    0    0 -0.35343323306E+01  0.71582873430E+00 -0.16435626130E+03  0.16439581669E+03  0.00000000000E+00 0. -1.
        -15    1    1    2    0    0  0.10939855998E+02  0.11388432220E+01 -0.13210873220E+02  0.17281849246E+02  0.17770000000E+01 0. -1.
         15    1    1    2    0    0 -0.31096301900E+00  0.21440576679E+01 -0.20806463248E+01  0.34900572218E+01  0.17770000000E+01 0.  1.
</event>
<event>
 6    1  0.8353910E-003  0.1838574E+03  0.7546771E-02  0.1067379E+00
        -11   -1    0    0    0    0  0.00000000000E+00  0.00000000000E+00  0.18250000000E+03  0.18250000000E+03  0.00000000000E+00 0.  1.
         11   -1    0    0    0    0 -0.00000000000E+00 -0.00000000000E+00 -0.18250000000E+03  0.18250000000E+03  0.00000000000E+00 0. -1.
        -11    1    1    2    0    0 -0.50219255937E+01 -0.23798078969E+01  0.15800578876E+03  0.15810348669E+03  0.00000000000E+00 0.  1.
         11    1    1    2    0    0 -0.28629330891E+01  0.78348638128E+00 -0.18111823556E+03  0.18114255571E+03  0.00000000000E+00 0. -1.
        -15    1    1    2    0    0  0.22443897844E+01  0.25921206472E+01  0.15957410656E+02  0.16418071105E+02  0.17770000000E+01 0.  1.
         15    1    1    2    0    0  0.56404688983E+01 -0.99579913162E+00  0.71550361511E+01  0.93358864939E+01  0.17770000000E+01 0. -1.
</event>
<event>
 6    1  0.8353910E-003  0.1902584E+03  0.7546771E-02  0.1062442E+00
        -11   -1    0    0    0    0  0.00000000000E+00  0.00000000000E+00  0.18250000000E+03  0.18250000000E+03  0.00000000000E+00 0. -1.
         11   -1    0    0    0    0 -0.00000000000E+00 -0.00000000000E+00 -0.18250000000E+03  0.18250000000E+03  0.00000000000E+00 0. -1.
        -11    1    1    2    0    0 -0.75645265846E+01 -0.29802565269E+01  0.11592442106E+03  0.11620918806E+03  0.00000000000E+00 0. -1.
         11    1    1    2    0    0  0.16844106658E+02 -0.22405864132E+02 -0.17247864833E+03  0.17474161155E+03  0.00000000000E+00 0. -1.
        -15    1    1    2    0    0  0.25744196811E+01  0.26166762276E+02  0.14017916329E+02  0.29849401868E+02  0.17770000000E+01 0.  1.
         15    1    1    2    0    0 -0.11853999755E+02 -0.78064161684E+00  0.42536310949E+02  0.44199798525E+02  0.17770000000E+01 0. -1.
</event>
<event>
 6    1  0.8353910E-003  0.1847778E+03  0.7546771E-02  0.1066656E+00
        -11   -1    0    0    0    0  0.00000000000E+00  0.00000000000E+00  0.18250000000E+03  0.18250000000E+03  0.00000000000E+00 0.  1.
         11   -1    0    0    0    0 -0.00000000000E+00 -0.00000000000E+00 -0.18250000000E+03  0.18250000000E+03  0.00000000000E+00 0.  1.
        -11    1    1    2    0    0  0.23112161660E+01  0.10158843122E+01  0.17227729357E+03  0.17229579107E+03  0.00000000000E+00 0.  1.
         11    1    1    2    0    0 -0.21963594403E+01  0.45256605933E+01 -0.18015198639E+03  0.18022220673E+03  0.00000000000E+00 0.  1.
        -15    1    1    2    0    0 -0.94092792527E+00  0.81230768995E+00 -0.90796999184E-02  0.21686402617E+01  0.17770000000E+01 0. -1.
         15    1    1    2    0    0  0.82607119953E+00 -0.63538525954E+01  0.78837725177E+01  0.10313361942E+02  0.17770000000E+01 0. -1.
</event>
<event>
 6    1  0.8353910E-003  0.1838376E+03  0.7546771E-02  0.1067395E+00
        -11   -1    0    0    0    0  0.00000000000E+00  0.00000000000E+00  0.18250000000E+03  0.18250000000E+03  0.00000000000E+00 0. -1.
         11   -1    0    0    0    0 -0.00000000000E+00 -0.00000000000E+00 -0.18250000000E+03  0.18250000000E+03  0.00000000000E+00 0.  1.
        -11    1    1    2    0    0 -0.24583616221E+01  0.51289119380E+01  0.16485893689E+03  0.16495701971E+03  0.00000000000E+00 0. -1.
         11    1    1    2    0    0  0.14432147402E+00 -0.41781669723E+01 -0.18111413140E+03  0.18116237606E+03  0.00000000000E+00 0.  1.
        -15    1    1    2    0    0  0.69836829066E+00  0.21828389730E+01  0.91570081325E+00  0.30411743177E+01  0.17770000000E+01 0.  1.
         15    1    1    2    0    0  0.16156718574E+01 -0.31335839387E+01  0.15339493697E+02  0.15839429906E+02  0.17770000000E+01 0.  1.
</event>
<event>
 6    1  0.8353910E-003  0.1831406E+03  0.7546771E-02  0.1067946E+00
        -11   -1    0    0    0    0  0.00000000000E+00  0.00000000000E+00  0.18250000000E+03  0.18250000000E+03  0.00000000000E+00 0. -1.
         11   -1    0    0    0    0 -0.00000000000E+00 -0.00000000000E+00 -0.18250000000E+03  0.18250000000E+03  0.00000000000E+00 0. -1.
        -11    1    1    2    0    0 -0.11497641241E+00  0.22145858053E+01  0.15260652316E+03  0.15262263437E+03  0.00000000000E+00 0. -1.
         11    1    1    2    0    0 -0.27323374653E+01  0.36390376522E+00 -0.18183852206E+03  0.18185941328E+03  0.00000000000E+00 0. -1.
        -15    1    1    2    0    0  0.11128418827E+01  0.24046425108E+01  0.11269793705E+02  0.11712672701E+02  0.17770000000E+01 0. -1.
         15    1    1    2    0    0  0.17344719951E+01 -0.49831320814E+01  0.17962205191E+02  0.18805279652E+02  0.17770000000E+01 0. -1.
</event>
<event>
 6    1  0.8353910E-003  0.1872327E+03  0.7546771E-02  0.1064749E+00
        -11   -1    0    0    0    0  0.00000000000E+00  0.00000000000E+00  0.18250000000E+03  0.18250000000E+03  0.00000000000E+00 0. -1.
         11   -1    0    0    0    0 -0.00000000000E+00 -0.00000000000E+00 -0.18250000000E+03  0.18250000000E+03  0.00000000000E+00 0.  1.
        -11    1    1    2    0    0  0.32795354435E+01 -0.34603808785E+01  0.16854923263E+03  0.16861664630E+03  0.00000000000E+00 0. -1.
         11    1    1    2    0    0  0.59798209641E+01  0.14949011088E+01 -0.17766044600E+03  0.17776733969E+03  0.00000000000E+00 0.  1.
        -15    1    1    2    0    0 -0.82582093124E+00 -0.48562194409E+01  0.27126586175E+01  0.58975497661E+01  0.17770000000E+01 0.  1.
         15    1    1    2    0    0 -0.84335354764E+01  0.68216992106E+01  0.63985547570E+01  0.12718464244E+02  0.17770000000E+01 0. -1.
</event>
<event>
 6    1  0.8353910E-003  0.1856618E+03  0.7546771E-02  0.1065966E+00
        -11   -1    0    0    0    0  0.00000000000E+00  0.00000000000E+00  0.18250000000E+03  0.18250000000E+03  0.00000000000E+00 0.  1.
         11   -1    0    0    0    0 -0.00000000000E+00 -0.00000000000E+00 -0.18250000000E+03  0.18250000000E+03  0.00000000000E+00 0. -1.
        -11    1    1    2    0    0 -0.63151154692E+01 -0.86108865837E+00  0.17922493885E+03  0.17933823035E+03  0.00000000000E+00 0.  1.
         11    1    1    2    0    0 -0.18917255045E+00  0.24876839999E+01 -0.17039768663E+03  0.17041594986E+03  0.00000000000E+00 0. -1.
        -15    1    1    2    0    0 -0.39275671973E+00 -0.16311267093E+01  0.13744643680E+01  0.28038747264E+01  0.17770000000E+01 0.  1.
         15    1    1    2    0    0  0.68970447393E+01  0.45313677858E-02 -0.10201716591E+02  0.12441945068E+02  0.17770000000E+01 0. -1.
</event>
<event>
 6    1  0.8353910E-003  0.1839077E+03  0.7546771E-02  0.1067340E+00
        -11   -1    0    0    0    0  0.00000000000E+00  0.00000000000E+00  0.18250000000E+03  0.18250000000E+03  0.00000000000E+00 0. -1.
         11   -1    0    0    0    0 -0.00000000000E+00 -0.00000000000E+00 -0.18250000000E+03  0.18250000000E+03  0.00000000000E+00 0. -1.
        -11    1    1    2    0    0  0.15972434772E+01  0.39069986428E+01  0.16588532491E+03  0.16593901544E+03  0.00000000000E+00 0. -1.
         11    1    1    2    0    0  0.25902854880E+01  0.91780233879E+00 -0.18107148835E+03  0.18109234063E+03  0.00000000000E+00 0. -1.
        -15    1    1    2    0    0 -0.50855005894E+00 -0.31499318798E+01  0.22264276204E+01  0.42773125861E+01  0.17770000000E+01 0.  1.
         15    1    1    2    0    0 -0.36789789063E+01 -0.16748691018E+01  0.12959735825E+02  0.13691331343E+02  0.17770000000E+01 0. -1.
</event>
<event>
 6    1  0.8353910E-003  0.1831573E+03  0.7546771E-02  0.1067933E+00
        -11   -1    0    0    0    0  0.00000000000E+00  0.00000000000E+00  0.18250000000E+03  0.18250000000E+03  0.00000000000E+00 0.  1.
         11   -1    0    0    0    0 -0.00000000000E+00 -0.00000000000E+00 -0.18250000000E+03  0.18250000000E+03  0.00000000000E+00 0. -1.
        -11    1    1    2    0    0  0.33925200124E+01  0.40313213329E+00  0.18181063358E+03  0.18184272927E+03  0.00000000000E+00 0.  1.
         11    1    1    2    0    0  0.10213093449E+01 -0.54300554920E+01 -0.14887534691E+03  0.14897784228E+03  0.00000000000E+00 0. -1.
        -15    1    1    2    0    0  0.71269786248E+00  0.22904933882E+01 -0.13009451108E+02  0.13347578258E+02  0.17770000000E+01 0. -1.
         15    1    1    2    0    0 -0.51265272197E+01  0.27364299705E+01 -0.19925835563E+02  0.20831850187E+02  0.17770000000E+01 0.  1.
</event>
<event>
 6    1  0.8353910E-003  0.1890336E+03  0.7546771E-02  0.1063370E+00
        -11   -1    0    0    0    0  0.00000000000E+00  0.00000000000E+00  0.18250000000E+03  0.18250000000E+03  0.00000000000E+00 0.  1.
         11   -1    0    0    0    0 -0.00000000000E+00 -0.00000000000E+00 -0.18250000000E+03  0.18250000000E+03  0.00000000000E+00 0.  1.
        -11    1    1    2    0    0 -0.71212491507E+01  0.53462253272E+01  0.17574098402E+03  0.17596643935E+03  0.00000000000E+00 0.  1.
         11    1    1    2    0    0  0.68189510116E+01  0.19480120928E+01 -0.13589055655E+03  0.13607547981E+03  0.00000000000E+00 0.  1.
        -15    1    1    2    0    0 -0.10553396078E+02 -0.47017403108E+01 -0.39982059082E+02  0.41655771607E+02  0.17770000000E+01 0.  1.
         15    1    1    2    0    0  0.10855694217E+02 -0.25924971092E+01  0.13163161934E+00  0.11302309236E+02  0.17770000000E+01 0. -1.
</event>
<event>
 6    1  0.8353910E-003  0.1894016E+03  0.7546771E-02  0.1063090E+00
        -11   -1    0    0    0    0  0.00000000000E+00  0.00000000000E+00  0.18250000000E+03  0.18250000000E+03  0.00000000000E+00 0. -1.
         11   -1    0    0    0    0 -0.00000000000E+00 -0.00000000000E+00 -0.18250000000E+03  0.18250000000E+03  0.00000000000E+00 0.  1.
        -11    1    1    2    0    0  0.24296404530E+01 -0.65347818903E+00  0.17020599611E+03  0.17022459075E+03  0.00000000000E+00 0. -1.
         11    1    1    2    0    0  0.26414886644E+01 -0.40191360617E+01 -0.17553252212E+03  0.17559839760E+03  0.00000000000E+00 0.  1.
        -15    1    1    2    0    0  0.52001509394E+01  0.47434684081E+01 -0.42421457963E+00  0.72718463502E+01  0.17770000000E+01 0.  1.
         15    1    1    2    0    0 -0.10271280057E+02 -0.70854157307E-01  0.57507405976E+01  0.11905165297E+02  0.17770000000E+01 0. -1.
</event>
<event>
 6    1  0.8353910E-003  0.1829594E+03  0.7546771E-02  0.1068090E+00
        -11   -1    0    0    0    0  0.00000000000E+00  0.00000000000E+00  0.18250000000E+03  0.18250000000E+03  0.00000000000E+00 0.  1.
         11   -1    0    0    0    0 -0.00000000000E+00 -0.00000000000E+00 -0.18250000000E+03  0.18250000000E+03  0.00000000000E+00 0. -1.
        -11    1    1    2    0    0 -0.17217675841E+01 -0.47520907016E+00  0.11647682455E+03  0.11649051877E+03  0.00000000000E+00 0.  1.
         11    1    1    2    0    0  0.49308983113E+01  0.27496678574E+01 -0.18195307440E+03  0.18204064304E+03  0.00000000000E+00 0. -1.
        -15    1    1    2    0    0  0.19861620986E+01 -0.13605193311E+00  0.47000341936E+02  0.47076036591E+02  0.17770000000E+01 0.  1.
         15    1    1    2    0    0 -0.51952928258E+01 -0.21384068541E+01  0.18475907920E+02  0.19392801600E+02  0.17770000000E+01 0.  1.
</event>
<event>
 6    1  0.8353910E-003  0.1834264E+03  0.7546771E-02  0.1067720E+00
        -11   -1    0    0    0    0  0.00000000000E+00  0.00000000000E+00  0.18250000000E+03  0.18250000000E+03  0.00000000000E+00 0. -1.
         11   -1    0    0    0    0 -0.00000000000E+00 -0.00000000000E+00 -0.18250000000E+03  0.18250000000E+03  0.00000000000E+00 0. -1.
        -11    1    1    2    0    0  0.28192037041E+01 -0.75638602035E+00  0.16300848107E+03  0.16303461267E+03  0.00000000000E+00 0. -1.
         11    1    1    2    0    0  0.29135447527E+00 -0.36603265484E+01 -0.18153651586E+03  0.18157364750E+03  0.00000000000E+00 0. -1.
        -15    1    1    2    0    0 -0.99232333833E+00  0.45274228786E+00  0.12464862833E+02  0.12638046353E+02  0.17770000000E+01 0. -1.
         15    1    1    2    0    0 -0.21182348410E+01  0.39639702809E+01  0.60631719603E+01  0.77536934715E+01  0.17770000000E+01 0.  1.
</event>
<event>
 6    1  0.8353910E-003  0.1835661E+03  0.7546771E-02  0.1067609E+00
        -11   -1    0    0    0    0  0.00000000000E+00  0.00000000000E+00  0.18250000000E+03  0.18250000000E+03  0.00000000000E+00 0.  1.
         11   -1    0    0    0    0 -0.00000000000E+00 -0.00000000000E+00 -0.18250000000E+03  0.18250000000E+03  0.00000000000E+00 0.  1.
        -11    1    1    2    0    0 -0.15694365867E+01  0.17376247993E+01  0.10545168517E+03  0.10547767714E+03  0.00000000000E+00 0.  1.
         11    1    1    2    0    0 -0.17447757515E+01 -0.32157063010E+01 -0.18139703355E+03  0.18143392403E+03  0.00000000000E+00 0.  1.
        -15    1    1    2    0    0  0.38927871069E+01 -0.16279469633E+01  0.73662313990E+02  0.73804459446E+02  0.17770000000E+01 0. -1.
         15    1    1    2    0    0 -0.57857476865E+00  0.31060284650E+01  0.22830343907E+01  0.42839393807E+01  0.17770000000E+01 0.  1.
</event>
<event>
 6    1  0.8353910E-003  0.1832628E+03  0.7546771E-02  0.1067849E+00
        -11   -1    0    0    0    0  0.00000000000E+00  0.00000000000E+00  0.18250000000E+03  0.18250000000E+03  0.00000000000E+00 0.  1.
         11   -1    0    0    0    0 -0.00000000000E+00 -0.00000000000E+00 -0.18250000000E+03  0.18250000000E+03  0.00000000000E+00 0.  1.
        -11    1    1    2    0    0  0.16824809644E+01  0.52676151561E+01  0.18165303675E+03  0.18173718462E+03  0.00000000000E+00 0.  1.
         11    1    1    2    0    0 -0.61110771033E+00 -0.36370881424E+01 -0.15732478183E+03  0.15736800450E+03  0.00000000000E+00 0.  1.
        -15    1    1    2    0    0  0.62216274820E+00  0.22719785128E+01 -0.16873911952E+02  0.17129962242E+02  0.17770000000E+01 0.  1.
         15    1    1    2    0    0 -0.16935360022E+01 -0.39025055264E+01 -0.74543429649E+01  0.87648486361E+01  0.17770000000E+01 0. -1.
</event>
<event>
 6    1  0.1377396E-002  0.1832824E+03  0.7546771E-02  0.1067834E+00
        -11   -1    0    0    0    0  0.00000000000E+00  0.00000000000E+00  0.18250000000E+03  0.18250000000E+03  0.00000000000E+00 0.  1.
         11   -1    0    0    0    0 -0.00000000000E+00 -0.00000000000E+00 -0.18250000000E+03  0.18250000000E+03  0.00000000000E+00 0. -1.
        -11    1    1    2    0    0  0.96976245086E+00  0.24519330076E+01  0.18169850146E+03  0.18171763219E+03  0.00000000000E+00 0.  1.
         11    1    1    2    0    0 -0.27448598799E+00 -0.19016932920E+01 -0.13566197475E+03  0.13567558060E+03  0.00000000000E+00 0. -1.
        -15    1    1    2    0    0  0.13120277230E+01  0.97294626327E+00 -0.43626734710E+02  0.43693452045E+02  0.17770000000E+01 0.  1.
         15    1    1    2    0    0 -0.20073041859E+01 -0.15231859789E+01 -0.24097920023E+01  0.39133351652E+01  0.17770000000E+01 0. -1.
</event>
<event>
 6    1  0.8353910E-003  0.1827158E+03  0.7546771E-02  0.1068283E+00
        -11   -1    0    0    0    0  0.00000000000E+00  0.00000000000E+00  0.18250000000E+03  0.18250000000E+03  0.00000000000E+00 0.  1.
         11   -1    0    0    0    0 -0.00000000000E+00 -0.00000000000E+00 -0.18250000000E+03  0.18250000000E+03  0.00000000000E+00 0. -1.
        -11    1    1    2    0    0 -0.17800158681E+01  0.50809623057E+00  0.13937525176E+02  0.14059915587E+02  0.00000000000E+00 0.  1.
         11    1    1    2    0    0 -0.43988294757E+01 -0.46498267283E+01 -0.18217180994E+03  0.18228422567E+03  0.00000000000E+00 0. -1.
        -15    1    1    2    0    0  0.18395668122E+01  0.18681970199E+01  0.13305588553E+03  0.13309357824E+03  0.17770000000E+01 0.  1.
         15    1    1    2    0    0  0.43392785317E+01  0.22735334778E+01  0.35178399235E+02  0.35562280500E+02  0.17770000000E+01 0. -1.
</event>
<event>
 6    1  0.8353910E-003  0.1753126E+03  0.7546771E-02  0.1074324E+00
        -11   -1    0    0    0    0  0.00000000000E+00  0.00000000000E+00  0.18250000000E+03  0.18250000000E+03  0.00000000000E+00 0. -1.
         11   -1    0    0    0    0 -0.00000000000E+00 -0.00000000000E+00 -0.18250000000E+03  0.18250000000E+03  0.00000000000E+00 0. -1.
        -11    1    1    2    0    0  0.32555468456E+01  0.21266971200E+01  0.17386419496E+03  0.17390767584E+03  0.00000000000E+00 0. -1.
         11    1    1    2    0    0 -0.13522701792E+01  0.22719909230E+01 -0.17674237930E+03  0.17676215437E+03  0.00000000000E+00 0. -1.
        -15    1    1    2    0    0  0.23773655782E+01 -0.56663413410E-01 -0.39915918089E+01  0.49744961557E+01  0.17770000000E+01 0.  1.
         15    1    1    2    0    0 -0.42806422445E+01 -0.43420246296E+01  0.68697761429E+01  0.93556736349E+01  0.17770000000E+01 0.  1.
</event>
<event>
 6    1  0.8353910E-003  0.1873748E+03  0.7546771E-02  0.1064639E+00
        -11   -1    0    0    0    0  0.00000000000E+00  0.00000000000E+00  0.18250000000E+03  0.18250000000E+03  0.00000000000E+00 0. -1.
         11   -1    0    0    0    0 -0.00000000000E+00 -0.00000000000E+00 -0.18250000000E+03  0.18250000000E+03  0.00000000000E+00 0. -1.
        -11    1    1    2    0    0 -0.82169926218E+00  0.68407361288E+01  0.17749154953E+03  0.17762522629E+03  0.00000000000E+00 0. -1.
         11    1    1    2    0    0  0.49947282223E+01 -0.53063880239E+00 -0.16153254693E+03  0.16161062033E+03  0.00000000000E+00 0. -1.
        -15    1    1    2    0    0 -0.15542535883E+01 -0.12739864520E+02 -0.90076478878E+01  0.15780218683E+02  0.17770000000E+01 0.  1.
         15    1    1    2    0    0 -0.26187753718E+01  0.64297671938E+01 -0.69513547137E+01  0.99839346938E+01  0.17770000000E+01 0. -1.
</event>
<event>
 6    1  0.8353910E-003  0.2005941E+03  0.7546771E-02  0.1054900E+00
        -11   -1    0    0    0    0  0.00000000000E+00  0.00000000000E+00  0.18250000000E+03  0.18250000000E+03  0.00000000000E+00 0. -1.
         11   -1    0    0    0    0 -0.00000000000E+00 -0.00000000000E+00 -0.18250000000E+03  0.18250000000E+03  0.00000000000E+00 0. -1.
        -11    1    1    2    0    0  0.25554330580E+01 -0.10106480101E+00  0.16438599409E+03  0.16440588647E+03  0.00000000000E+00 0. -1.
         11    1    1    2    0    0 -0.16474885956E+01 -0.18925749338E+01 -0.15696323145E+03  0.15698328601E+03  0.00000000000E+00 0. -1.
        -15    1    1    2    0    0  0.16910735903E+02 -0.74201419998E+00  0.89178970710E+01  0.19214842987E+02  0.17770000000E+01 0. -1.
         15    1    1    2    0    0 -0.17818680365E+02  0.27356539348E+01 -0.16340659718E+02  0.24395984535E+02  0.17770000000E+01 0.  1.
</event>
<event>
 6    1  0.8353910E-003  0.1911501E+03  0.7546771E-02  0.1061770E+00
        -11   -1    0    0    0    0  0.00000000000E+00  0.00000000000E+00  0.18250000000E+03  0.18250000000E+03  0.00000000000E+00 0. -1.
         11   -1    0    0    0    0 -0.00000000000E+00 -0.00000000000E+00 -0.18250000000E+03  0.18250000000E+03  0.00000000000E+00 0.  1.
        -11    1    1    2    0    0  0.14375996401E+01 -0.41950836651E+01  0.17379331009E+03  0.17384987792E+03  0.00000000000E+00 0. -1.
         11    1    1    2    0    0  0.27591628003E+01  0.44344319342E+00 -0.14512799676E+03  0.14515490025E+03  0.00000000000E+00 0.  1.
        -15    1    1    2    0    0 -0.14845330968E+02 -0.91582499372E+01 -0.78027604493E+01  0.19191096714E+02  0.17770000000E+01 0. -1.
         15    1    1    2    0    0  0.10648568527E+02  0.12909890409E+02 -0.20862552876E+02  0.26804125122E+02  0.17770000000E+01 0.  1.
</event>
<event>
 6    1  0.8353910E-003  0.1825495E+03  0.7546771E-02  0.1068415E+00
        -11   -1    0    0    0    0  0.00000000000E+00  0.00000000000E+00  0.18250000000E+03  0.18250000000E+03  0.00000000000E+00 0.  1.
         11   -1    0    0    0    0 -0.00000000000E+00 -0.00000000000E+00 -0.18250000000E+03  0.18250000000E+03  0.00000000000E+00 0.  1.
        -11    1    1    2    0    0  0.26385704757E+01  0.49475992093E-01  0.18243144933E+03  0.18245053633E+03  0.00000000000E+00 0.  1.
         11    1    1    2    0    0 -0.44387323411E+00 -0.10936339881E+01 -0.70049524130E+02  0.70059466810E+02  0.00000000000E+00 0.  1.
        -15    1    1    2    0    0 -0.23625456115E+01  0.55745880653E+00 -0.59936521217E+02  0.60011971194E+02  0.17770000000E+01 0.  1.
         15    1    1    2    0    0  0.16784836991E+00  0.48669918950E+00 -0.52445403987E+02  0.52478025663E+02  0.17770000000E+01 0. -1.
</event>
<event>
 6    1  0.8353910E-003  0.1856208E+03  0.7546771E-02  0.1065997E+00
        -11   -1    0    0    0    0  0.00000000000E+00  0.00000000000E+00  0.18250000000E+03  0.18250000000E+03  0.00000000000E+00 0. -1.
         11   -1    0    0    0    0 -0.00000000000E+00 -0.00000000000E+00 -0.18250000000E+03  0.18250000000E+03  0.00000000000E+00 0. -1.
        -11    1    1    2    0    0  0.77569621485E+01 -0.28074320791E+01  0.17918942480E+03  0.17937921311E+03  0.00000000000E+00 0. -1.
         11    1    1    2    0    0  0.49957926990E+01 -0.10434387214E+02 -0.11921276875E+03  0.11977277910E+03  0.00000000000E+00 0. -1.
        -15    1    1    2    0    0 -0.69310323586E+01  0.71609950715E+01 -0.73182575292E+01  0.12491344292E+02  0.17770000000E+01 0. -1.
         15    1    1    2    0    0 -0.58217224890E+01  0.60808242215E+01 -0.52658398516E+02  0.53356663495E+02  0.17770000000E+01 0.  1.
</event>
<event>
 6    1  0.8353910E-003  0.1759579E+03  0.7546771E-02  0.1073785E+00
        -11   -1    0    0    0    0  0.00000000000E+00  0.00000000000E+00  0.18250000000E+03  0.18250000000E+03  0.00000000000E+00 0. -1.
         11   -1    0    0    0    0 -0.00000000000E+00 -0.00000000000E+00 -0.18250000000E+03  0.18250000000E+03  0.00000000000E+00 0. -1.
        -11    1    1    2    0    0  0.34092032967E+00 -0.48717973723E+01  0.17601277375E+03  0.17608051329E+03  0.00000000000E+00 0. -1.
         11    1    1    2    0    0 -0.34474775953E+01 -0.23466706783E+00 -0.17585217815E+03  0.17588612433E+03  0.00000000000E+00 0. -1.
        -15    1    1    2    0    0  0.70506688246E+00  0.43068210161E+01 -0.52646868970E+01  0.70654429229E+01  0.17770000000E+01 0. -1.
         15    1    1    2    0    0  0.24014903832E+01  0.79964342409E+00  0.51040912990E+01  0.59679194578E+01  0.17770000000E+01 0.  1.
</event>
<event>
 6    1  0.8353910E-003  0.1740903E+03  0.7546771E-02  0.1075353E+00
        -11   -1    0    0    0    0  0.00000000000E+00  0.00000000000E+00  0.18250000000E+03  0.18250000000E+03  0.00000000000E+00 0. -1.
         11   -1    0    0    0    0 -0.00000000000E+00 -0.00000000000E+00 -0.18250000000E+03  0.18250000000E+03  0.00000000000E+00 0. -1.
        -11    1    1    2    0    0 -0.11033185776E+02  0.72761353659E+00  0.17394732222E+03  0.17429839792E+03  0.00000000000E+00 0. -1.
         11    1    1    2    0    0  0.14664775476E+01  0.27904833452E+01 -0.17400280189E+03  0.17403135470E+03  0.00000000000E+00 0. -1.
        -15    1    1    2    0    0  0.34090447016E+01 -0.57331351165E+01 -0.47325265671E+01  0.83692867528E+01  0.17770000000E+01 0.  1.
         15    1    1    2    0    0  0.61576635267E+01  0.22150382347E+01  0.47880062367E+01  0.83009606199E+01  0.17770000000E+01 0. -1.
</event>
<event>
 6    1  0.8353910E-003  0.1848382E+03  0.7546771E-02  0.1066609E+00
        -11   -1    0    0    0    0  0.00000000000E+00  0.00000000000E+00  0.18250000000E+03  0.18250000000E+03  0.00000000000E+00 0.  1.
         11   -1    0    0    0    0 -0.00000000000E+00 -0.00000000000E+00 -0.18250000000E+03  0.18250000000E+03  0.00000000000E+00 0.  1.
        -11    1    1    2    0    0  0.35697775136E+01  0.27011697348E+01  0.18010617707E+03  0.18016180131E+03  0.00000000000E+00 0.  1.
         11    1    1    2    0    0  0.70145958350E+01 -0.55771692389E+01 -0.15606049710E+03  0.15631758739E+03  0.00000000000E+00 0.  1.
        -15    1    1    2    0    0 -0.85424517820E+01  0.11921174054E+01 -0.23736862586E+02  0.25317800078E+02  0.17770000000E+01 0. -1.
         15    1    1    2    0    0 -0.20419215665E+01  0.16838820986E+01 -0.30881738978E+00  0.32028112317E+01  0.17770000000E+01 0.  1.
</event>
<event>
 6    1  0.8353910E-003  0.1828893E+03  0.7546771E-02  0.1068145E+00
        -11   -1    0    0    0    0  0.00000000000E+00  0.00000000000E+00  0.18250000000E+03  0.18250000000E+03  0.00000000000E+00 0. -1.
         11   -1    0    0    0    0 -0.00000000000E+00 -0.00000000000E+00 -0.18250000000E+03  0.18250000000E+03  0.00000000000E+00 0.  1.
        -11    1    1    2    0    0  0.69802057885E-01  0.17350586705E+01  0.12567058891E+03  0.12568258518E+03  0.00000000000E+00 0. -1.
         11    1    1    2    0    0  0.38983424179E+01 -0.15313073014E+01 -0.18206252168E+03  0.18211069100E+03  0.00000000000E+00 0.  1.
        -15    1    1    2    0    0 -0.50413576902E+01 -0.23820713991E+01  0.46512285930E+02  0.46878993408E+02  0.17770000000E+01 0. -1.
         15    1    1    2    0    0  0.10732132144E+01  0.21783200300E+01  0.98796468433E+01  0.10327730414E+02  0.17770000000E+01 0. -1.
</event>
<event>
 6    1  0.8353910E-003  0.1887234E+03  0.7546771E-02  0.1063606E+00
        -11   -1    0    0    0    0  0.00000000000E+00  0.00000000000E+00  0.18250000000E+03  0.18250000000E+03  0.00000000000E+00 0. -1.
         11   -1    0    0    0    0 -0.00000000000E+00 -0.00000000000E+00 -0.18250000000E+03  0.18250000000E+03  0.00000000000E+00 0. -1.
        -11    1    1    2    0    0  0.15671323208E-01 -0.77797741258E+01  0.16118243249E+03  0.16137007676E+03  0.00000000000E+00 0. -1.
         11    1    1    2    0    0 -0.90170923785E+00 -0.26269496523E+01 -0.17625475155E+03  0.17627663313E+03  0.00000000000E+00 0. -1.
        -15    1    1    2    0    0 -0.51336182295E+00  0.33943912870E+01 -0.47976416768E+01  0.61612115066E+01  0.17770000000E+01 0. -1.
         15    1    1    2    0    0  0.13993997376E+01  0.70123324911E+01  0.19869960737E+02  0.21192078598E+02  0.17770000000E+01 0. -1.
</event>
<event>
 6    1  0.8353910E-003  0.1752209E+03  0.7546771E-02  0.1074401E+00
        -11   -1    0    0    0    0  0.00000000000E+00  0.00000000000E+00  0.18250000000E+03  0.18250000000E+03  0.00000000000E+00 0.  1.
         11   -1    0    0    0    0 -0.00000000000E+00 -0.00000000000E+00 -0.18250000000E+03  0.18250000000E+03  0.00000000000E+00 0.  1.
        -11    1    1    2    0    0  0.13148169985E+01  0.21684889904E+01  0.17567946849E+03  0.17569777101E+03  0.00000000000E+00 0.  1.
         11    1    1    2    0    0  0.85363224205E+01  0.14283775299E+01 -0.17468796651E+03  0.17490224328E+03  0.00000000000E+00 0.  1.
        -15    1    1    2    0    0 -0.31395179773E+01 -0.27178880798E+01 -0.46673671789E+01  0.64950391936E+01  0.17770000000E+01 0.  1.
         15    1    1    2    0    0 -0.67116214417E+01 -0.87897844057E+00  0.36758651946E+01  0.79049465150E+01  0.17770000000E+01 0. -1.
</event>
<event>
 6    1  0.8353910E-003  0.1849148E+03  0.7546771E-02  0.1066549E+00
        -11   -1    0    0    0    0  0.00000000000E+00  0.00000000000E+00  0.18250000000E+03  0.18250000000E+03  0.00000000000E+00 0. -1.
         11   -1    0    0    0    0 -0.00000000000E+00 -0.00000000000E+00 -0.18250000000E+03  0.18250000000E+03  0.00000000000E+00 0. -1.
        -11    1    1    2    0    0 -0.26485862094E+01  0.53973113080E+00  0.18006494453E+03  0.18008523139E+03  0.00000000000E+00 0. -1.
         11    1    1    2    0    0 -0.16792168118E+01  0.33871451911E+01 -0.12825324393E+03  0.12830895175E+03  0.00000000000E+00 0. -1.
        -15    1    1    2    0    0  0.46352030826E+01  0.53762441585E+01 -0.50436528385E+01  0.88873658541E+01  0.17770000000E+01 0.  1.
         15    1    1    2    0    0 -0.30740006137E+00 -0.93031204805E+01 -0.46768047760E+02  0.47718450999E+02  0.17770000000E+01 0. -1.
</event>
<event>
 6    1  0.8353910E-003  0.1754537E+03  0.7546771E-02  0.1074206E+00
        -11   -1    0    0    0    0  0.00000000000E+00  0.00000000000E+00  0.18250000000E+03  0.18250000000E+03  0.00000000000E+00 0.  1.
         11   -1    0    0    0    0 -0.00000000000E+00 -0.00000000000E+00 -0.18250000000E+03  0.18250000000E+03  0.00000000000E+00 0. -1.
        -11    1    1    2    0    0 -0.16999879779E+01 -0.54813681875E+01  0.17448343856E+03  0.17457779266E+03  0.00000000000E+00 0.  1.
         11    1    1    2    0    0  0.31993020781E+01 -0.20271298536E+01 -0.17637759724E+03  0.17641825755E+03  0.00000000000E+00 0. -1.
        -15    1    1    2    0    0 -0.54903086536E+01  0.65953083394E+01  0.32384562073E+01  0.93427463206E+01  0.17770000000E+01 0. -1.
         15    1    1    2    0    0  0.39909945535E+01  0.91318970173E+00 -0.13442975333E+01  0.46612034728E+01  0.17770000000E+01 0. -1.
</event>
<event>
 6    1  0.8353910E-003  0.1695569E+03  0.7546771E-02  0.1079251E+00
        -11   -1    0    0    0    0  0.00000000000E+00  0.00000000000E+00  0.18250000000E+03  0.18250000000E+03  0.00000000000E+00 0. -1.
         11   -1    0    0    0    0 -0.00000000000E+00 -0.00000000000E+00 -0.18250000000E+03  0.18250000000E+03  0.00000000000E+00 0. -1.
        -11    1    1    2    0    0 -0.15515860371E+01 -0.57950630648E+01  0.16719581121E+03  0.16730340541E+03  0.00000000000E+00 0. -1.
         11    1    1    2    0    0 -0.64624828158E+01 -0.17014253460E+01 -0.17189052442E+03  0.17202037937E+03  0.00000000000E+00 0. -1.
        -15    1    1    2    0    0 -0.35905786776E+01  0.26248063352E+01  0.10621737782E+02  0.11651648212E+02  0.17770000000E+01 0. -1.
         15    1    1    2    0    0  0.11604647531E+02  0.48716820756E+01 -0.59270245676E+01  0.14024567009E+02  0.17770000000E+01 0. -1.
</event>
<event>
 6    1  0.8353910E-003  0.1901150E+03  0.7546771E-02  0.1062550E+00
        -11   -1    0    0    0    0  0.00000000000E+00  0.00000000000E+00  0.18250000000E+03  0.18250000000E+03  0.00000000000E+00 0. -1.
         11   -1    0    0    0    0 -0.00000000000E+00 -0.00000000000E+00 -0.18250000000E+03  0.18250000000E+03  0.00000000000E+00 0.  1.
        -11    1    1    2    0    0 -0.26229982804E+01  0.32556703569E+00  0.16202602185E+03  0.16204757903E+03  0.00000000000E+00 0. -1.
         11    1    1    2    0    0  0.11625320351E+02 -0.28016954914E+01 -0.17447570348E+03  0.17488501558E+03  0.00000000000E+00 0.  1.
        -15    1    1    2    0    0  0.34205074918E+01 -0.59550991931E+01  0.10714041195E+02  0.12849571418E+02  0.17770000000E+01 0.  1.
         15    1    1    2    0    0 -0.12422829562E+02  0.84312276488E+01  0.17356404386E+01  0.15217833970E+02  0.17770000000E+01 0. -1.
</event>
<event>
 6    1  0.8353910E-003  0.1828220E+03  0.7546771E-02  0.1068199E+00
        -11   -1    0    0    0    0  0.00000000000E+00  0.00000000000E+00  0.18250000000E+03  0.18250000000E+03  0.00000000000E+00 0. -1.
         11   -1    0    0    0    0 -0.00000000000E+00 -0.00000000000E+00 -0.18250000000E+03  0.18250000000E+03  0.00000000000E+00 0.  1.
        -11    1    1    2    0    0 -0.63772325245E+00  0.52051426229E+01  0.10375160264E+03  0.10388404715E+03  0.00000000000E+00 0. -1.
         11    1    1    2    0    0 -0.24063664975E+01 -0.23551370584E+01 -0.18214689677E+03  0.18217801534E+03  0.00000000000E+00 0.  1.
        -15    1    1    2    0    0  0.47029611186E+01  0.54583138124E+00  0.44416275923E+02  0.44703233340E+02  0.17770000000E+01 0. -1.
         15    1    1    2    0    0 -0.16588713686E+01 -0.33958369457E+01  0.33979018205E+02  0.34234704175E+02  0.17770000000E+01 0.  1.
</event>
<event>
 6    1  0.8353910E-003  0.1867344E+03  0.7546771E-02  0.1065133E+00
        -11   -1    0    0    0    0  0.00000000000E+00  0.00000000000E+00  0.18250000000E+03  0.18250000000E+03  0.00000000000E+00 0. -1.
         11   -1    0    0    0    0 -0.00000000000E+00 -0.00000000000E+00 -0.18250000000E+03  0.18250000000E+03  0.00000000000E+00 0.  1.
        -11    1    1    2    0    0  0.92552596002E+01 -0.57052321996E+01  0.17793371458E+03  0.17826557797E+03  0.00000000000E+00 0. -1.
         11    1    1    2    0    0 -0.26924077473E+00  0.38479549331E+01 -0.17125953601E+03  0.17130297114E+03  0.00000000000E+00 0.  1.
        -15    1    1    2    0    0  0.18366530547E+01 -0.64632799097E+00 -0.89294655097E+00  0.27831846612E+01  0.17770000000E+01 0.  1.
         15    1    1    2    0    0 -0.10822671880E+02  0.25036052574E+01 -0.57812320199E+01  0.12648266228E+02  0.17770000000E+01 0. -1.
</event>
<event>
 6    1  0.8353910E-003  0.1857622E+03  0.7546771E-02  0.1065887E+00
        -11   -1    0    0    0    0  0.00000000000E+00  0.00000000000E+00  0.18250000000E+03  0.18250000000E+03  0.00000000000E+00 0. -1.
         11   -1    0    0    0    0 -0.00000000000E+00 -0.00000000000E+00 -0.18250000000E+03  0.18250000000E+03  0.00000000000E+00 0.  1.
        -11    1    1    2    0    0  0.31754973768E+01 -0.13102792736E+00  0.17920965338E+03  0.17923783310E+03  0.00000000000E+00 0. -1.
         11    1    1    2    0    0  0.79303182032E+01 -0.52010783147E+00 -0.16637899626E+03  0.16656869710E+03  0.00000000000E+00 0.  1.
        -15    1    1    2    0    0 -0.11037112548E+02  0.21105643562E+01 -0.12443974091E+02  0.16860680754E+02  0.17770000000E+01 0.  1.
         15    1    1    2    0    0 -0.68703032261E-01 -0.14594285974E+01 -0.38668302722E+00  0.23327890391E+01  0.17770000000E+01 0. -1.
</event>
<event>
 6    1  0.8353910E-003  0.1868534E+03  0.7546771E-02  0.1065041E+00
        -11   -1    0    0    0    0  0.00000000000E+00  0.00000000000E+00  0.18250000000E+03  0.18250000000E+03  0.00000000000E+00 0. -1.
         11   -1    0    0    0    0 -0.00000000000E+00 -0.00000000000E+00 -0.18250000000E+03  0.18250000000E+03  0.00000000000E+00 0. -1.
        -11    1    1    2    0    0  0.27558863845E+01 -0.25588628576E+01  0.17724451887E+03  0.17728441036E+03  0.00000000000E+00 0. -1.
         11    1    1    2    0    0 -0.22684699238E+01  0.21392489162E+01 -0.17811934581E+03  0.17814663537E+03  0.00000000000E+00 0. -1.
        -15    1    1    2    0    0 -0.24408770740E+01  0.23440400376E+01  0.36475912615E+01  0.52834700339E+01  0.17770000000E+01 0.  1.
         15    1    1    2    0    0  0.19534606133E+01 -0.19244260962E+01 -0.27727643197E+01  0.42854842364E+01  0.17770000000E+01 0.  1.
</event>
<event>
 6    1  0.8353910E-003  0.1832923E+03  0.7546771E-02  0.1067826E+00
        -11   -1    0    0    0    0  0.00000000000E+00  0.00000000000E+00  0.18250000000E+03  0.18250000000E+03  0.00000000000E+00 0. -1.
         11   -1    0    0    0    0 -0.00000000000E+00 -0.00000000000E+00 -0.18250000000E+03  0.18250000000E+03  0.00000000000E+00 0. -1.
        -11    1    1    2    0    0 -0.20975268749E+01  0.18499124464E+01  0.18168619429E+03  0.18170771857E+03  0.00000000000E+00 0. -1.
         11    1    1    2    0    0 -0.17250170020E+01  0.16197858144E+01 -0.98029170014E+02  0.98057725669E+02  0.00000000000E+00 0. -1.
        -15    1    1    2    0    0  0.14147341034E+00 -0.84944002442E+00 -0.76839261505E+02  0.76864630362E+02  0.17770000000E+01 0.  1.
         15    1    1    2    0    0  0.36810704666E+01 -0.26202582363E+01 -0.68177627659E+01  0.83699253961E+01  0.17770000000E+01 0.  1.
</event>
<event>
 6    1  0.8353910E-003  0.1712654E+03  0.7546771E-02  0.1077767E+00
        -11   -1    0    0    0    0  0.00000000000E+00  0.00000000000E+00  0.18250000000E+03  0.18250000000E+03  0.00000000000E+00 0. -1.
         11   -1    0    0    0    0 -0.00000000000E+00 -0.00000000000E+00 -0.18250000000E+03  0.18250000000E+03  0.00000000000E+00 0.  1.
        -11    1    1    2    0    0 -0.29445857749E+01  0.48867292670E+01  0.17787104451E+03  0.17796252185E+03  0.00000000000E+00 0. -1.
         11    1    1    2    0    0  0.22848749584E+01  0.57387754912E+01 -0.92538974846E+01  0.11126042260E+02  0.00000000000E+00 0.  1.
        -15    1    1    2    0    0 -0.90452760714E+01 -0.85527533425E+01 -0.16456681040E+03  0.16504653715E+03  0.17770000000E+01 0.  1.
         15    1    1    2    0    0  0.97049868879E+01 -0.20727514157E+01 -0.40503366201E+01  0.10864898741E+02  0.17770000000E+01 0. -1.
</event>
<event>
 6    1  0.8353910E-003  0.1767587E+03  0.7546771E-02  0.1073119E+00
        -11   -1    0    0    0    0  0.00000000000E+00  0.00000000000E+00  0.18250000000E+03  0.18250000000E+03  0.00000000000E+00 0.  1.
         11   -1    0    0    0    0 -0.00000000000E+00 -0.00000000000E+00 -0.18250000000E+03  0.18250000000E+03  0.00000000000E+00 0.  1.
        -11    1    1    2    0    0  0.68107082343E-01  0.41756699795E+01  0.17650091313E+03  0.17655031349E+03  0.00000000000E+00 0.  1.
         11    1    1    2    0    0  0.16496226508E+01  0.25778800773E+01 -0.17700966138E+03  0.17703611762E+03  0.00000000000E+00 0.  1.
        -15    1    1    2    0    0 -0.49438930535E+00 -0.54193723907E+01 -0.34705796777E+01  0.66945253897E+01  0.17770000000E+01 0.  1.
         15    1    1    2    0    0 -0.12233404278E+01 -0.13341776660E+01  0.39793279245E+01  0.47190435024E+01  0.17770000000E+01 0. -1.
</event>
<event>
 6    1  0.8353910E-003  0.1840905E+03  0.7546771E-02  0.1067196E+00
        -11   -1    0    0    0    0  0.00000000000E+00  0.00000000000E+00  0.18250000000E+03  0.18250000000E+03  0.00000000000E+00 0. -1.
         11   -1    0    0    0    0 -0.00000000000E+00 -0.00000000000E+00 -0.18250000000E+03  0.18250000000E+03  0.00000000000E+00 0.  1.
        -11    1    1    2    0    0  0.28694375805E+01 -0.29266427840E+01  0.17399377773E+03  0.17404204549E+03  0.00000000000E+00 0. -1.
         11    1    1    2    0    0 -0.24851795325E+01 -0.19350494636E+01 -0.18088205151E+03  0.18090947209E+03  0.00000000000E+00 0.  1.
        -15    1    1    2    0    0  0.87126323030E+00  0.45619308366E+01  0.56518082964E+01  0.75280129246E+01  0.17770000000E+01 0.  1.
         15    1    1    2    0    0 -0.12555212783E+01  0.29976141108E+00  0.12364654780E+01  0.25204694924E+01  0.17770000000E+01 0.  1.
</event>
<event>
 6    1  0.8353910E-003  0.1883265E+03  0.7546771E-02  0.1063909E+00
        -11   -1    0    0    0    0  0.00000000000E+00  0.00000000000E+00  0.18250000000E+03  0.18250000000E+03  0.00000000000E+00 0.  1.
         11   -1    0    0    0    0 -0.00000000000E+00 -0.00000000000E+00 -0.18250000000E+03  0.18250000000E+03  0.00000000000E+00 0. -1.
        -11    1    1    2    0    0 -0.23946122417E+00  0.57683107448E+01  0.17657911064E+03  0.17667346452E+03  0.00000000000E+00 0.  1.
         11    1    1    2    0    0  0.61714679360E+00  0.27738027558E+01 -0.13995838022E+03  0.13998722458E+03  0.00000000000E+00 0. -1.
        -15    1    1    2    0    0 -0.91300483652E+01 -0.16911813386E+02 -0.21741428249E+02  0.29072575505E+02  0.17770000000E+01 0.  1.
         15    1    1    2    0    0  0.87523627957E+01  0.83696998854E+01 -0.14879302167E+02  0.19266735392E+02  0.17770000000E+01 0.  1.
</event>
<event>
 6    1  0.8353910E-003  0.1826375E+03  0.7546771E-02  0.1068345E+00
        -11   -1    0    0    0    0  0.00000000000E+00  0.00000000000E+00  0.18250000000E+03  0.18250000000E+03  0.00000000000E+00 0. -1.
         11   -1    0    0    0    0 -0.00000000000E+00 -0.00000000000E+00 -0.18250000000E+03  0.18250000000E+03  0.00000000000E+00 0. -1.
        -11    1    1    2    0    0 -0.34941636644E+00  0.41431610563E+00  0.27828289079E+02  0.27833566474E+02  0.00000000000E+00 0. -1.
         11    1    1    2    0    0  0.13662373520E+01 -0.24144426539E+01 -0.18234135688E+03  0.18236245932E+03  0.00000000000E+00 0. -1.
        -15    1    1    2    0    0  0.43307450750E+00  0.35106371205E+01  0.29929683535E+02  0.30190326464E+02  0.17770000000E+01 0. -1.
         15    1    1    2    0    0 -0.14498954931E+01 -0.15105105722E+01  0.12458338427E+03  0.12461364775E+03  0.17770000000E+01 0. -1.
</event>
<event>
 6    1  0.8353910E-003  0.1831587E+03  0.7546771E-02  0.1067932E+00
        -11   -1    0    0    0    0  0.00000000000E+00  0.00000000000E+00  0.18250000000E+03  0.18250000000E+03  0.00000000000E+00 0. -1.
         11   -1    0    0    0    0 -0.00000000000E+00 -0.00000000000E+00 -0.18250000000E+03  0.18250000000E+03  0.00000000000E+00 0. -1.
        -11    1    1    2    0    0 -0.37309152130E+00  0.29672026246E+01  0.18181667427E+03  0.18184126741E+03  0.00000000000E+00 0. -1.
         11    1    1    2    0    0 -0.75615022388E+00  0.17876317191E+01 -0.10500843904E+03  0.10502637602E+03  0.00000000000E+00 0. -1.
        -15    1    1    2    0    0  0.62331339701E+00 -0.19013995293E+01 -0.22489508575E+01  0.34956185032E+01  0.17770000000E+01 0.  1.
         15    1    1    2    0    0  0.50592834817E+00 -0.28534348143E+01 -0.74559284376E+02  0.74636738067E+02  0.17770000000E+01 0. -1.
</event>
<event>
 6    1  0.8353910E-003  0.1850795E+03  0.7546771E-02  0.1066420E+00
        -11   -1    0    0    0    0  0.00000000000E+00  0.00000000000E+00  0.18250000000E+03  0.18250000000E+03  0.00000000000E+00 0.  1.
         11   -1    0    0    0    0 -0.00000000000E+00 -0.00000000000E+00 -0.18250000000E+03  0.18250000000E+03  0.00000000000E+00 0. -1.
        -11    1    1    2    0    0 -0.10631110194E+01  0.38285246938E+01  0.16679151776E+03  0.16683883902E+03  0.00000000000E+00 0.  1.
         11    1    1    2    0    0  0.62537959645E+00 -0.35620863569E+01 -0.17988416477E+03  0.17992051660E+03  0.00000000000E+00 0. -1.
        -15    1    1    2    0    0 -0.37194958089E+01 -0.17364110671E+01  0.17549173978E+00  0.44764158450E+01  0.17770000000E+01 0. -1.
         15    1    1    2    0    0  0.41572272318E+01  0.14699727303E+01  0.12917155266E+02  0.13764228538E+02  0.17770000000E+01 0.  1.
</event>
<event>
 6    1  0.8353910E-003  0.1882063E+03  0.7546771E-02  0.1064001E+00
        -11   -1    0    0    0    0  0.00000000000E+00  0.00000000000E+00  0.18250000000E+03  0.18250000000E+03  0.00000000000E+00 0.  1.
         11   -1    0    0    0    0 -0.00000000000E+00 -0.00000000000E+00 -0.18250000000E+03  0.18250000000E+03  0.00000000000E+00 0.  1.
        -11    1    1    2    0    0  0.20720851184E+01  0.15998906678E+01  0.17230945577E+03  0.17232934090E+03  0.00000000000E+00 0.  1.
         11    1    1    2    0    0  0.36431262370E+01 -0.46718315776E+01 -0.17669442436E+03  0.17679371589E+03  0.00000000000E+00 0.  1.
        -15    1    1    2    0    0  0.14619594029E+00 -0.42717468941E+01  0.42939925746E+01  0.63138970542E+01  0.17770000000E+01 0. -1.
         15    1    1    2    0    0 -0.58614072957E+01  0.73436878039E+01  0.90976010637E-01  0.95630461508E+01  0.17770000000E+01 0.  1.
</event>
<event>
 6    1  0.8353910E-003  0.1827808E+03  0.7546771E-02  0.1068232E+00
        -11   -1    0    0    0    0  0.00000000000E+00  0.00000000000E+00  0.18250000000E+03  0.18250000000E+03  0.00000000000E+00 0. -1.
         11   -1    0    0    0    0 -0.00000000000E+00 -0.00000000000E+00 -0.18250000000E+03  0.18250000000E+03  0.00000000000E+00 0.  1.
        -11    1    1    2    0    0  0.53612238792E+00  0.12593444078E+00  0.22559376847E+02  0.22566097811E+02  0.00000000000E+00 0. -1.
         11    1    1    2    0    0  0.26432830015E+00  0.58590392908E+01 -0.18212477736E+03  0.18221918873E+03  0.00000000000E+00 0.  1.
        -15    1    1    2    0    0 -0.56102319278E+01  0.63657940199E+00  0.56317650144E+02  0.56627867542E+02  0.17770000000E+01 0. -1.
         15    1    1    2    0    0  0.48097812397E+01 -0.66215531336E+01  0.10324775037E+03  0.10358684592E+03  0.17770000000E+01 0. -1.
</event>
<event>
 6    1  0.8353910E-003  0.1874096E+03  0.7546771E-02  0.1064613E+00
        -11   -1    0    0    0    0  0.00000000000E+00  0.00000000000E+00  0.18250000000E+03  0.18250000000E+03  0.00000000000E+00 0. -1.
         11   -1    0    0    0    0 -0.00000000000E+00 -0.00000000000E+00 -0.18250000000E+03  0.18250000000E+03  0.00000000000E+00 0. -1.
        -11    1    1    2    0    0  0.13175895293E+02  0.87010454418E+01  0.17688707926E+03  0.17759040295E+03  0.00000000000E+00 0. -1.
         11    1    1    2    0    0  0.77276519548E+00 -0.15773620860E+01 -0.12677572964E+03  0.12678789714E+03  0.00000000000E+00 0. -1.
        -15    1    1    2    0    0 -0.14983153709E+02  0.69153975059E+01 -0.13625195115E+02  0.21473734856E+02  0.17770000000E+01 0.  1.
         15    1    1    2    0    0  0.10344932209E+01 -0.14039080862E+02 -0.36486154511E+02  0.39147965051E+02  0.17770000000E+01 0. -1.
</event>
<event>
 6    1  0.8353910E-003  0.1827838E+03  0.7546771E-02  0.1068229E+00
        -11   -1    0    0    0    0  0.00000000000E+00  0.00000000000E+00  0.18250000000E+03  0.18250000000E+03  0.00000000000E+00 0.  1.
         11   -1    0    0    0    0 -0.00000000000E+00 -0.00000000000E+00 -0.18250000000E+03  0.18250000000E+03  0.00000000000E+00 0. -1.
        -11    1    1    2    0    0 -0.17819227173E+01 -0.36709738944E+01  0.18217049236E+03  0.18221618914E+03  0.00000000000E+00 0.  1.
         11    1    1    2    0    0  0.30336253871E+01  0.20638550512E+01 -0.14362461857E+03  0.14367147747E+03  0.00000000000E+00 0. -1.
        -15    1    1    2    0    0 -0.18281698642E+01 -0.36649311348E+00 -0.71630273911E+01  0.76120439213E+01  0.17770000000E+01 0.  1.
         15    1    1    2    0    0  0.57646719445E+00  0.19736119567E+01 -0.31382846406E+02  0.31500289461E+02  0.17770000000E+01 0. -1.
</event>
<event>
 6    1  0.8353910E-003  0.1838894E+03  0.7546771E-02  0.1067354E+00
        -11   -1    0    0    0    0  0.00000000000E+00  0.00000000000E+00  0.18250000000E+03  0.18250000000E+03  0.00000000000E+00 0. -1.
         11   -1    0    0    0    0 -0.00000000000E+00 -0.00000000000E+00 -0.18250000000E+03  0.18250000000E+03  0.00000000000E+00 0.  1.
        -11    1    1    2    0    0  0.15027264002E+01 -0.19233609117E+01  0.15817403205E+03  0.15819286305E+03  0.00000000000E+00 0. -1.
         11    1    1    2    0    0 -0.32736776589E+01  0.35306183648E+01 -0.18104662732E+03  0.18111063882E+03  0.00000000000E+00 0.  1.
        -15    1    1    2    0    0  0.21082370940E+00 -0.60376544080E+01  0.93629039686E+01  0.11283590613E+02  0.17770000000E+01 0.  1.
         15    1    1    2    0    0  0.15601275494E+01  0.44303969548E+01  0.13509691298E+02  0.14412907518E+02  0.17770000000E+01 0. -1.
</event>
<event>
 6    1  0.8353910E-003  0.1844314E+03  0.7546771E-02  0.1066928E+00
        -11   -1    0    0    0    0  0.00000000000E+00  0.00000000000E+00  0.18250000000E+03  0.18250000000E+03  0.00000000000E+00 0. -1.
         11   -1    0    0    0    0 -0.00000000000E+00 -0.00000000000E+00 -0.18250000000E+03  0.18250000000E+03  0.00000000000E+00 0.  1.
        -11    1    1    2    0    0 -0.16835654179E+01 -0.26687551641E+00  0.10397792155E+03  0.10399189288E+03  0.00000000000E+00 0. -1.
         11    1    1    2    0    0  0.44719576142E+01  0.92094096016E+01 -0.18027815262E+03  0.18056861284E+03  0.00000000000E+00 0.  1.
        -15    1    1    2    0    0 -0.47297732021E+01 -0.12440067602E+02  0.74510440662E+02  0.75710564211E+02  0.17770000000E+01 0.  1.
         15    1    1    2    0    0  0.19413810058E+01  0.34975335170E+01  0.17897904064E+01  0.47289300704E+01  0.17770000000E+01 0.  1.
</event>
<event>
 6    1  0.8353910E-003  0.1835543E+03  0.7546771E-02  0.1067619E+00
        -11   -1    0    0    0    0  0.00000000000E+00  0.00000000000E+00  0.18250000000E+03  0.18250000000E+03  0.00000000000E+00 0.  1.
         11   -1    0    0    0    0 -0.00000000000E+00 -0.00000000000E+00 -0.18250000000E+03  0.18250000000E+03  0.00000000000E+00 0. -1.
        -11    1    1    2    0    0 -0.27547642301E+01 -0.36394889694E+01  0.18138831355E+03  0.18144573541E+03  0.00000000000E+00 0.  1.
         11    1    1    2    0    0 -0.12923581293E+01  0.31369907041E+01 -0.11061705300E+03  0.11066907118E+03  0.00000000000E+00 0. -1.
        -15    1    1    2    0    0  0.70596930888E+00 -0.33087319435E+01 -0.64563471107E+02  0.64676468906E+02  0.17770000000E+01 0. -1.
         15    1    1    2    0    0  0.33411530505E+01  0.38112302088E+01 -0.62077894348E+01  0.82087245098E+01  0.17770000000E+01 0. -1.
</event>
<event>
 6    1  0.8353910E-003  0.1830411E+03  0.7546771E-02  0.1068025E+00
        -11   -1    0    0    0    0  0.00000000000E+00  0.00000000000E+00  0.18250000000E+03  0.18250000000E+03  0.00000000000E+00 0.  1.
         11   -1    0    0    0    0 -0.00000000000E+00 -0.00000000000E+00 -0.18250000000E+03  0.18250000000E+03  0.00000000000E+00 0. -1.
        -11    1    1    2    0    0 -0.56700700531E+01 -0.22487945147E+01  0.18185659545E+03  0.18195886370E+03  0.00000000000E+00 0.  1.
         11    1    1    2    0    0 -0.76724034242E+00  0.15827837582E+01 -0.71188132881E+02  0.71209859747E+02  0.00000000000E+00 0. -1.
        -15    1    1    2    0    0 -0.22637684554E+01  0.34216336755E+01 -0.68688930563E+02  0.68834287499E+02  0.17770000000E+01 0. -1.
         15    1    1    2    0    0  0.87010788509E+01 -0.27556229190E+01 -0.41979532008E+02  0.42996989051E+02  0.17770000000E+01 0.  1.
</event>
<event>
 6    1  0.1039248E-002  0.1850572E+03  0.7546771E-02  0.1066437E+00
        -11   -1    0    0    0    0  0.00000000000E+00  0.00000000000E+00  0.18250000000E+03  0.18250000000E+03  0.00000000000E+00 0.  1.
         11   -1    0    0    0    0 -0.00000000000E+00 -0.00000000000E+00 -0.18250000000E+03  0.18250000000E+03  0.00000000000E+00 0.  1.
        -11    1    1    2    0    0  0.39615437892E+01  0.61295868589E+01  0.17979470970E+03  0.17994277785E+03  0.00000000000E+00 0.  1.
         11    1    1    2    0    0 -0.97747154678E-01  0.22282882542E+01 -0.14767631043E+03  0.14769315314E+03  0.00000000000E+00 0.  1.
        -15    1    1    2    0    0 -0.47152196648E+00 -0.26256869350E+01 -0.29973475688E+02  0.30144378227E+02  0.17770000000E+01 0. -1.
         15    1    1    2    0    0 -0.33922746680E+01 -0.57321881780E+01 -0.21449235894E+01  0.72196907784E+01  0.17770000000E+01 0. -1.
</event>
<event>
 6    1  0.8353910E-003  0.1842618E+03  0.7546771E-02  0.1067061E+00
        -11   -1    0    0    0    0  0.00000000000E+00  0.00000000000E+00  0.18250000000E+03  0.18250000000E+03  0.00000000000E+00 0.  1.
         11   -1    0    0    0    0 -0.00000000000E+00 -0.00000000000E+00 -0.18250000000E+03  0.18250000000E+03  0.00000000000E+00 0.  1.
        -11    1    1    2    0    0 -0.20052315144E+01 -0.26710637404E+01  0.18070737740E+03  0.18073824106E+03  0.00000000000E+00 0.  1.
         11    1    1    2    0    0  0.30555425831E+01 -0.27687119100E+01 -0.17478593408E+03  0.17483456426E+03  0.00000000000E+00 0.  1.
        -15    1    1    2    0    0 -0.11168628566E+01  0.40648051878E+01 -0.54764088915E+01  0.71357415313E+01  0.17770000000E+01 0.  1.
         15    1    1    2    0    0  0.66551787835E-01  0.13749704626E+01 -0.44503442444E+00  0.22914531530E+01  0.17770000000E+01 0. -1.
</event>
<event>
 6    1  0.8353910E-003  0.1832041E+03  0.7546771E-02  0.1067896E+00
        -11   -1    0    0    0    0  0.00000000000E+00  0.00000000000E+00  0.18250000000E+03  0.18250000000E+03  0.00000000000E+00 0. -1.
         11   -1    0    0    0    0 -0.00000000000E+00 -0.00000000000E+00 -0.18250000000E+03  0.18250000000E+03  0.00000000000E+00 0. -1.
        -11    1    1    2    0    0  0.20464868525E+01  0.71129086446E+00  0.15290862040E+03  0.15292396881E+03  0.00000000000E+00 0. -1.
         11    1    1    2    0    0 -0.41621667091E+01 -0.14958918240E+01 -0.18174212177E+03  0.18179592996E+03  0.00000000000E+00 0. -1.
        -15    1    1    2    0    0 -0.23921249537E+01 -0.32643402929E+00  0.19269633399E+02  0.19501418443E+02  0.17770000000E+01 0.  1.
         15    1    1    2    0    0  0.45078048103E+01  0.11110349888E+01  0.95638679753E+01  0.10778682786E+02  0.17770000000E+01 0.  1.
</event>
<event>
 6    1  0.8353910E-003  0.1955490E+03  0.7546771E-02  0.1058518E+00
        -11   -1    0    0    0    0  0.00000000000E+00  0.00000000000E+00  0.18250000000E+03  0.18250000000E+03  0.00000000000E+00 0. -1.
         11   -1    0    0    0    0 -0.00000000000E+00 -0.00000000000E+00 -0.18250000000E+03  0.18250000000E+03  0.00000000000E+00 0. -1.
        -11    1    1    2    0    0  0.21081215573E+02 -0.36931413551E+01  0.16809401472E+03  0.16945103933E+03  0.00000000000E+00 0. -1.
         11    1    1    2    0    0 -0.51966024295E+00  0.11538244951E+02 -0.99436717239E+02  0.10010525400E+03  0.00000000000E+00 0. -1.
        -15    1    1    2    0    0 -0.52115654084E+01 -0.16695807929E+02  0.60893556621E+01  0.18605063767E+02  0.17770000000E+01 0. -1.
         15    1    1    2    0    0 -0.15349989922E+02  0.88507043329E+01 -0.74746653147E+02  0.76838642905E+02  0.17770000000E+01 0.  1.
</event>
<event>
 6    1  0.8353910E-003  0.1714131E+03  0.7546771E-02  0.1077639E+00
        -11   -1    0    0    0    0  0.00000000000E+00  0.00000000000E+00  0.18250000000E+03  0.18250000000E+03  0.00000000000E+00 0. -1.
         11   -1    0    0    0    0 -0.00000000000E+00 -0.00000000000E+00 -0.18250000000E+03  0.18250000000E+03  0.00000000000E+00 0. -1.
        -11    1    1    2    0    0 -0.61986094778E+01 -0.34329890226E+01  0.16843148621E+03  0.16858046660E+03  0.00000000000E+00 0. -1.
         11    1    1    2    0    0 -0.79440294703E+01 -0.27243463866E+01 -0.17444309484E+03  0.17464513450E+03  0.00000000000E+00 0. -1.
        -15    1    1    2    0    0  0.81531441401E+00 -0.32930274494E+01  0.34250460430E+01  0.51378435917E+01  0.17770000000E+01 0. -1.
         15    1    1    2    0    0  0.13327324534E+02  0.94503628586E+01  0.25865625834E+01  0.16636555304E+02  0.17770000000E+01 0.  1.
</event>
<event>
 6    1  0.8353910E-003  0.1870813E+03  0.7546771E-02  0.1064865E+00
        -11   -1    0    0    0    0  0.00000000000E+00  0.00000000000E+00  0.18250000000E+03  0.18250000000E+03  0.00000000000E+00 0. -1.
         11   -1    0    0    0    0 -0.00000000000E+00 -0.00000000000E+00 -0.18250000000E+03  0.18250000000E+03  0.00000000000E+00 0. -1.
        -11    1    1    2    0    0  0.15149854607E+01 -0.18684191142E+01  0.17260355264E+03  0.17262031328E+03  0.00000000000E+00 0. -1.
         11    1    1    2    0    0  0.57295241088E+00 -0.25796629099E+01 -0.17789904612E+03  0.17791867115E+03  0.00000000000E+00 0. -1.
        -15    1    1    2    0    0  0.67151296530E+00  0.11785330659E+01  0.85253101752E+01  0.88135414241E+01  0.17770000000E+01 0.  1.
         15    1    1    2    0    0 -0.27594508368E+01  0.32695489582E+01 -0.32298167010E+01  0.56474741463E+01  0.17770000000E+01 0. -1.
</event>
<event>
 6    1  0.8353910E-003  0.1969249E+03  0.7546771E-02  0.1057519E+00
        -11   -1    0    0    0    0  0.00000000000E+00  0.00000000000E+00  0.18250000000E+03  0.18250000000E+03  0.00000000000E+00 0. -1.
         11   -1    0    0    0    0 -0.00000000000E+00 -0.00000000000E+00 -0.18250000000E+03  0.18250000000E+03  0.00000000000E+00 0.  1.
        -11    1    1    2    0    0 -0.30427418124E+01  0.14309900940E+02  0.16743715906E+03  0.16807508374E+03  0.00000000000E+00 0. -1.
         11    1    1    2    0    0  0.18094898133E+01 -0.20305081637E+01 -0.34438911502E+02  0.34546140772E+02  0.00000000000E+00 0.  1.
        -15    1    1    2    0    0  0.66322105633E+01 -0.11255595739E+02  0.11662702741E+02  0.17602585510E+02  0.17770000000E+01 0. -1.
         15    1    1    2    0    0 -0.53989585642E+01 -0.10237970372E+01 -0.14466095030E+03  0.14477618997E+03  0.17770000000E+01 0.  1.
</event>
<event>
 6    1  0.8353910E-003  0.2169340E+03  0.7546771E-02  0.1043934E+00
        -11   -1    0    0    0    0  0.00000000000E+00  0.00000000000E+00  0.18250000000E+03  0.18250000000E+03  0.00000000000E+00 0. -1.
         11   -1    0    0    0    0 -0.00000000000E+00 -0.00000000000E+00 -0.18250000000E+03  0.18250000000E+03  0.00000000000E+00 0.  1.
        -11    1    1    2    0    0 -0.95590137851E+01 -0.11474353876E+02  0.11806289379E+03  0.11900370764E+03  0.00000000000E+00 0. -1.
         11    1    1    2    0    0  0.24120656993E+01  0.13338685106E+01 -0.14804035064E+03  0.14806600786E+03  0.00000000000E+00 0.  1.
        -15    1    1    2    0    0  0.10794035555E+02  0.12904680169E+02  0.62648496643E+02  0.64892479029E+02  0.17770000000E+01 0. -1.
         15    1    1    2    0    0 -0.36470874695E+01 -0.27641948040E+01 -0.32671039798E+02  0.33037805472E+02  0.17770000000E+01 0.  1.
</event>
<event>
 6    1  0.8353910E-003  0.1832969E+03  0.7546771E-02  0.1067822E+00
        -11   -1    0    0    0    0  0.00000000000E+00  0.00000000000E+00  0.18250000000E+03  0.18250000000E+03  0.00000000000E+00 0.  1.
         11   -1    0    0    0    0 -0.00000000000E+00 -0.00000000000E+00 -0.18250000000E+03  0.18250000000E+03  0.00000000000E+00 0. -1.
        -11    1    1    2    0    0  0.23298944817E+01  0.49831281772E+00  0.16400972196E+03  0.16402702711E+03  0.00000000000E+00 0.  1.
         11    1    1    2    0    0 -0.23877086934E+01  0.24679058147E+01 -0.18167060966E+03  0.18170306031E+03  0.00000000000E+00 0. -1.
        -15    1    1    2    0    0  0.30224274934E+01 -0.20666233473E+01  0.10663114376E+02  0.11413401649E+02  0.17770000000E+01 0. -1.
         15    1    1    2    0    0 -0.29646132817E+01 -0.89959528507E+00  0.69977733200E+01  0.78565109321E+01  0.17770000000E+01 0. -1.
</event>
<event>
 6    1  0.8353910E-003  0.1840455E+03  0.7546771E-02  0.1067231E+00
        -11   -1    0    0    0    0  0.00000000000E+00  0.00000000000E+00  0.18250000000E+03  0.18250000000E+03  0.00000000000E+00 0.  1.
         11   -1    0    0    0    0 -0.00000000000E+00 -0.00000000000E+00 -0.18250000000E+03  0.18250000000E+03  0.00000000000E+00 0.  1.
        -11    1    1    2    0    0  0.21089012787E+01  0.18504509241E+00  0.14638475500E+03  0.14640006216E+03  0.00000000000E+00 0.  1.
         11    1    1    2    0    0 -0.17523533150E+01 -0.17246413121E+01 -0.18093784417E+03  0.18095454839E+03  0.00000000000E+00 0.  1.
        -15    1    1    2    0    0  0.64673888688E+01  0.18260226272E+01  0.23709556157E+02  0.24707534470E+02  0.17770000000E+01 0.  1.
         15    1    1    2    0    0 -0.68239368326E+01 -0.28642640746E+00  0.10843533019E+02  0.12937854974E+02  0.17770000000E+01 0. -1.
</event>
<event>
 6    1  0.8353910E-003  0.1920337E+03  0.7546771E-02  0.1061109E+00
        -11   -1    0    0    0    0  0.00000000000E+00  0.00000000000E+00  0.18250000000E+03  0.18250000000E+03  0.00000000000E+00 0.  1.
         11   -1    0    0    0    0 -0.00000000000E+00 -0.00000000000E+00 -0.18250000000E+03  0.18250000000E+03  0.00000000000E+00 0.  1.
        -11    1    1    2    0    0  0.19151282798E+01 -0.10259918539E+01  0.15125736165E+03  0.15127296463E+03  0.00000000000E+00 0.  1.
         11    1    1    2    0    0 -0.16122873843E+02 -0.15212972979E+01 -0.17220650033E+03  0.17296629777E+03  0.00000000000E+00 0.  1.
        -15    1    1    2    0    0  0.47537166233E+01  0.45178657148E+01 -0.78214778622E+01  0.10360606995E+02  0.17770000000E+01 0.  1.
         15    1    1    2    0    0  0.94540289395E+01 -0.19705765631E+01  0.28770616551E+02  0.30400130607E+02  0.17770000000E+01 0. -1.
</event>
<event>
 6    1  0.8353910E-003  0.1828696E+03  0.7546771E-02  0.1068161E+00
        -11   -1    0    0    0    0  0.00000000000E+00  0.00000000000E+00  0.18250000000E+03  0.18250000000E+03  0.00000000000E+00 0.  1.
         11   -1    0    0    0    0 -0.00000000000E+00 -0.00000000000E+00 -0.18250000000E+03  0.18250000000E+03  0.00000000000E+00 0.  1.
        -11    1    1    2    0    0  0.76798657527E+01 -0.51977865409E+01  0.18189416637E+03  0.18213040681E+03  0.00000000000E+00 0.  1.
         11    1    1    2    0    0 -0.19248443596E+01 -0.74216649288E-01 -0.12850636899E+03  0.12852080533E+03  0.00000000000E+00 0.  1.
        -15    1    1    2    0    0 -0.62481191141E+01  0.45971880214E+01 -0.37158579742E+02  0.38001196134E+02  0.17770000000E+01 0. -1.
         15    1    1    2    0    0  0.49309772099E+00  0.67481516881E+00 -0.16229217645E+02  0.16347591726E+02  0.17770000000E+01 0.  1.
</event>
<event>
 6    1  0.8353910E-003  0.1843047E+03  0.7546771E-02  0.1067027E+00
        -11   -1    0    0    0    0  0.00000000000E+00  0.00000000000E+00  0.18250000000E+03  0.18250000000E+03  0.00000000000E+00 0.  1.
         11   -1    0    0    0    0 -0.00000000000E+00 -0.00000000000E+00 -0.18250000000E+03  0.18250000000E+03  0.00000000000E+00 0. -1.
        -11    1    1    2    0    0  0.39661716085E+01 -0.15803036918E+01  0.18064481602E+03  0.18069526123E+03  0.00000000000E+00 0.  1.
         11    1    1    2    0    0  0.19310612013E+01 -0.14924809795E+01 -0.16755157478E+03  0.16756934895E+03  0.00000000000E+00 0. -1.
        -15    1    1    2    0    0 -0.52562644261E+01  0.38728709658E+01 -0.50731474386E+01  0.84570680007E+01  0.17770000000E+01 0.  1.
         15    1    1    2    0    0 -0.64096838364E+00 -0.80008629447E+00 -0.80200938019E+01  0.82783218190E+01  0.17770000000E+01 0.  1.
</event>
<event>
 6    1  0.8353910E-003  0.1838070E+03  0.7546771E-02  0.1067419E+00
        -11   -1    0    0    0    0  0.00000000000E+00  0.00000000000E+00  0.18250000000E+03  0.18250000000E+03  0.00000000000E+00 0. -1.
         11   -1    0    0    0    0 -0.00000000000E+00 -0.00000000000E+00 -0.18250000000E+03  0.18250000000E+03  0.00000000000E+00 0. -1.
        -11    1    1    2    0    0  0.26470164537E+01  0.12542132953E+01  0.18116931837E+03  0.18119299563E+03  0.00000000000E+00 0. -1.
         11    1    1    2    0    0  0.46240483916E+01 -0.26575824010E+01 -0.13646516361E+03  0.13656934300E+03  0.00000000000E+00 0. -1.
        -15    1    1    2    0    0 -0.69005424931E+01 -0.19591240066E+01 -0.10609889078E+02  0.12929931508E+02  0.17770000000E+01 0. -1.
         15    1    1    2    0    0 -0.37052235227E+00  0.33624931123E+01 -0.34094265686E+02  0.34307729864E+02  0.17770000000E+01 0.  1.
</event>
<event>
 6    1  0.8353910E-003  0.1733424E+03  0.7546771E-02  0.1075987E+00
        -11   -1    0    0    0    0  0.00000000000E+00  0.00000000000E+00  0.18250000000E+03  0.18250000000E+03  0.00000000000E+00 0. -1.
         11   -1    0    0    0    0 -0.00000000000E+00 -0.00000000000E+00 -0.18250000000E+03  0.18250000000E+03  0.00000000000E+00 0. -1.
        -11    1    1    2    0    0  0.27488855425E+01  0.43588735828E+00  0.17572855551E+03  0.17575059485E+03  0.00000000000E+00 0. -1.
         11    1    1    2    0    0  0.70865760209E+01 -0.85153723473E+01 -0.17084337736E+03  0.17120219249E+03  0.00000000000E+00 0. -1.
        -15    1    1    2    0    0 -0.64664739439E+01  0.70643628393E+01 -0.83265991115E+01  0.12814464068E+02  0.17770000000E+01 0. -1.
         15    1    1    2    0    0 -0.33689876195E+01  0.10151221498E+01  0.34414209625E+01  0.52327485895E+01  0.17770000000E+01 0.  1.
</event>
<event>
 6    1  0.8353910E-003  0.1826266E+03  0.7546771E-02  0.1068354E+00
        -11   -1    0    0    0    0  0.00000000000E+00  0.00000000000E+00  0.18250000000E+03  0.18250000000E+03  0.00000000000E+00 0.  1.
         11   -1    0    0    0    0 -0.00000000000E+00 -0.00000000000E+00 -0.18250000000E+03  0.18250000000E+03  0.00000000000E+00 0. -1.
        -11    1    1    2    0    0  0.14316274747E+01 -0.11054081009E+01  0.72476820596E+02  0.72499386259E+02  0.00000000000E+00 0.  1.
         11    1    1    2    0    0  0.20280470279E+01  0.30495388248E+01 -0.18233661475E+03  0.18237339098E+03  0.00000000000E+00 0. -1.
        -15    1    1    2    0    0  0.52372396554E+00 -0.26672064079E+01  0.47545033834E+02  0.47655810224E+02  0.17770000000E+01 0. -1.
         15    1    1    2    0    0 -0.39833984681E+01  0.72307568397E+00  0.62314760316E+02  0.62471412534E+02  0.17770000000E+01 0.  1.
</event>
<event>
 6    1  0.8353910E-003  0.1829624E+03  0.7546771E-02  0.1068087E+00
        -11   -1    0    0    0    0  0.00000000000E+00  0.00000000000E+00  0.18250000000E+03  0.18250000000E+03  0.00000000000E+00 0. -1.
         11   -1    0    0    0    0 -0.00000000000E+00 -0.00000000000E+00 -0.18250000000E+03  0.18250000000E+03  0.00000000000E+00 0.  1.
        -11    1    1    2    0    0 -0.16103205490E+01 -0.82267489580E+00  0.38546327579E+02  0.38588719804E+02  0.00000000000E+00 0. -1.
         11    1    1    2    0    0 -0.33152360910E+01  0.22347963014E+01 -0.18199368273E+03  0.18203759408E+03  0.00000000000E+00 0.  1.
        -15    1    1    2    0    0  0.16675948529E+01 -0.46421613575E+01  0.12909643436E+03  0.12920285457E+03  0.17770000000E+01 0. -1.
         15    1    1    2    0    0  0.32579617872E+01  0.32300399519E+01  0.14350920793E+02  0.15170831543E+02  0.17770000000E+01 0.  1.
</event>
<event>
 6    1  0.8353910E-003  0.1837395E+03  0.7546771E-02  0.1067472E+00
        -11   -1    0    0    0    0  0.00000000000E+00  0.00000000000E+00  0.18250000000E+03  0.18250000000E+03  0.00000000000E+00 0.  1.
         11   -1    0    0    0    0 -0.00000000000E+00 -0.00000000000E+00 -0.18250000000E+03  0.18250000000E+03  0.00000000000E+00 0. -1.
        -11    1    1    2    0    0 -0.36357626316E+01  0.59571124858E+01  0.18112612827E+03  0.18126053155E+03  0.00000000000E+00 0.  1.
         11    1    1    2    0    0 -0.95196817319E+00 -0.29180769199E+00 -0.23974959422E+02  0.23995626151E+02  0.00000000000E+00 0. -1.
        -15    1    1    2    0    0 -0.40659509261E+01 -0.68720663972E+01 -0.13283921085E+02  0.15600562230E+02  0.17770000000E+01 0.  1.
         15    1    1    2    0    0  0.86536817309E+01  0.12067616033E+01 -0.14386724776E+03  0.14414328006E+03  0.17770000000E+01 0. -1.
</event>
<event>
 6    1  0.8353910E-003  0.1853098E+03  0.7546771E-02  0.1066240E+00
        -11   -1    0    0    0    0  0.00000000000E+00  0.00000000000E+00  0.18250000000E+03  0.18250000000E+03  0.00000000000E+00 0.  1.
         11   -1    0    0    0    0 -0.00000000000E+00 -0.00000000000E+00 -0.18250000000E+03  0.18250000000E+03  0.00000000000E+00 0. -1.
        -11    1    1    2    0    0 -0.11303925304E+01 -0.31868550176E+01  0.17965833375E+03  0.17969015198E+03  0.00000000000E+00 0.  1.
         11    1    1    2    0    0  0.54759074560E+01  0.35052875453E+01 -0.15427406787E+03  0.15441101198E+03  0.00000000000E+00 0. -1.
        -15    1    1    2    0    0 -0.61244436409E+01 -0.38569588662E+01 -0.25489471359E+02  0.26556653041E+02  0.17770000000E+01 0. -1.
         15    1    1    2    0    0  0.17789287153E+01  0.35385263384E+01  0.10520548173E+00  0.43421830011E+01  0.17770000000E+01 0. -1.
</event>
<event>
 6    1  0.8353910E-003  0.1842318E+03  0.7546771E-02  0.1067085E+00
        -11   -1    0    0    0    0  0.00000000000E+00  0.00000000000E+00  0.18250000000E+03  0.18250000000E+03  0.00000000000E+00 0.  1.
         11   -1    0    0    0    0 -0.00000000000E+00 -0.00000000000E+00 -0.18250000000E+03  0.18250000000E+03  0.00000000000E+00 0.  1.
        -11    1    1    2    0    0  0.28710467228E+00 -0.27881847354E+01  0.18074642956E+03  0.18076816147E+03  0.00000000000E+00 0.  1.
         11    1    1    2    0    0  0.35561587196E+00 -0.23345522137E+01 -0.17307022809E+03  0.17308633813E+03  0.00000000000E+00 0.  1.
        -15    1    1    2    0    0  0.15566900043E+01  0.11413544738E+01 -0.86093385782E+00  0.27613239419E+01  0.17770000000E+01 0.  1.
         15    1    1    2    0    0 -0.21994105485E+01  0.39813824753E+01 -0.68152676099E+01  0.83841764515E+01  0.17770000000E+01 0. -1.
</event>
<event>
 6    1  0.8353910E-003  0.1826282E+03  0.7546771E-02  0.1068353E+00
        -11   -1    0    0    0    0  0.00000000000E+00  0.00000000000E+00  0.18250000000E+03  0.18250000000E+03  0.00000000000E+00 0.  1.
         11   -1    0    0    0    0 -0.00000000000E+00 -0.00000000000E+00 -0.18250000000E+03  0.18250000000E+03  0.00000000000E+00 0. -1.
        -11    1    1    2    0    0  0.62331382186E+00 -0.28220419186E+01  0.18234893806E+03  0.18237183897E+03  0.00000000000E+00 0.  1.
         11    1    1    2    0    0  0.11132886838E+01 -0.36584574319E-01 -0.62103796166E+02  0.62113784689E+02  0.00000000000E+00 0. -1.
        -15    1    1    2    0    0  0.68299685776E+00  0.30544120881E+01 -0.29406658954E+02  0.29626090491E+02  0.17770000000E+01 0. -1.
         15    1    1    2    0    0 -0.24195993634E+01 -0.19578559521E+00 -0.90838482935E+02  0.90888285846E+02  0.17770000000E+01 0.  1.
</event>
<event>
 6    1  0.8353910E-003  0.1844699E+03  0.7546771E-02  0.1066897E+00
        -11   -1    0    0    0    0  0.00000000000E+00  0.00000000000E+00  0.18250000000E+03  0.18250000000E+03  0.00000000000E+00 0.  1.
         11   -1    0    0    0    0 -0.00000000000E+00 -0.00000000000E+00 -0.18250000000E+03  0.18250000000E+03  0.00000000000E+00 0.  1.
        -11    1    1    2    0    0 -0.31816730101E+01 -0.12363345317E+01  0.18049782325E+03  0.18053009656E+03  0.00000000000E+00 0.  1.
         11    1    1    2    0    0  0.14945972305E+01 -0.16509131004E+01 -0.15863367015E+03  0.15864930079E+03  0.00000000000E+00 0.  1.
        -15    1    1    2    0    0  0.34799670911E+01  0.42270921095E+01 -0.22208197960E+02  0.22942106797E+02  0.17770000000E+01 0. -1.
         15    1    1    2    0    0 -0.17928913116E+01 -0.13398444774E+01  0.34404486116E+00  0.28784958477E+01  0.17770000000E+01 0.  1.
</event>
<event>
 6    1  0.8353910E-003  0.1765772E+03  0.7546771E-02  0.1073270E+00
        -11   -1    0    0    0    0  0.00000000000E+00  0.00000000000E+00  0.18250000000E+03  0.18250000000E+03  0.00000000000E+00 0.  1.
         11   -1    0    0    0    0 -0.00000000000E+00 -0.00000000000E+00 -0.18250000000E+03  0.18250000000E+03  0.00000000000E+00 0. -1.
        -11    1    1    2    0    0  0.10222509415E+01  0.29423369927E+01  0.17561435005E+03  0.17564197188E+03  0.00000000000E+00 0.  1.
         11    1    1    2    0    0  0.31989011024E+01 -0.36448892338E+01 -0.17747696364E+03  0.17754320829E+03  0.00000000000E+00 0. -1.
        -15    1    1    2    0    0 -0.36112953314E+01 -0.14000460704E+01  0.56601334743E+01  0.70849433954E+01  0.17770000000E+01 0.  1.
         15    1    1    2    0    0 -0.60985671249E+00  0.21025983115E+01 -0.37975198789E+01  0.47298764360E+01  0.17770000000E+01 0.  1.
</event>
<event>
 6    1  0.8353910E-003  0.2061296E+03  0.7546771E-02  0.1051061E+00
        -11   -1    0    0    0    0  0.00000000000E+00  0.00000000000E+00  0.18250000000E+03  0.18250000000E+03  0.00000000000E+00 0. -1.
         11   -1    0    0    0    0 -0.00000000000E+00 -0.00000000000E+00 -0.18250000000E+03  0.18250000000E+03  0.00000000000E+00 0. -1.
        -11    1    1    2    0    0 -0.11836097331E+02 -0.41441326607E+00  0.13295290094E+03  0.13347935723E+03  0.00000000000E+00 0. -1.
         11    1    1    2    0    0  0.24552999312E+01  0.59711278681E+01 -0.15873915393E+03  0.15887039326E+03  0.00000000000E+00 0. -1.
        -15    1    1    2    0    0  0.11829213852E+01 -0.63825960301E+01 -0.22576604096E+02  0.23558387393E+02  0.17770000000E+01 0.  1.
         15    1    1    2    0    0  0.81978760144E+01  0.82588142807E+00  0.48362857085E+02  0.49091862113E+02  0.17770000000E+01 0.  1.
</event>
<event>
 6    1  0.8353910E-003  0.1853781E+03  0.7546771E-02  0.1066187E+00
        -11   -1    0    0    0    0  0.00000000000E+00  0.00000000000E+00  0.18250000000E+03  0.18250000000E+03  0.00000000000E+00 0.  1.
         11   -1    0    0    0    0 -0.00000000000E+00 -0.00000000000E+00 -0.18250000000E+03  0.18250000000E+03  0.00000000000E+00 0.  1.
        -11    1    1    2    0    0 -0.35685788498E+00 -0.37244347107E+01  0.17958288412E+03  0.17962185566E+03  0.00000000000E+00 0.  1.
         11    1    1    2    0    0 -0.37255074773E-01 -0.46418149825E+01 -0.14241754982E+03  0.14249317995E+03  0.00000000000E+00 0.  1.
        -15    1    1    2    0    0  0.80833722818E+01 -0.16797432065E+01 -0.17551396643E+02  0.19477466412E+02  0.17770000000E+01 0. -1.
         15    1    1    2    0    0 -0.76892593220E+01  0.10045992900E+02 -0.19613937656E+02  0.23407497979E+02  0.17770000000E+01 0.  1.
</event>
<event>
 6    1  0.8353910E-003  0.1853318E+03  0.7546771E-02  0.1066223E+00
        -11   -1    0    0    0    0  0.00000000000E+00  0.00000000000E+00  0.18250000000E+03  0.18250000000E+03  0.00000000000E+00 0. -1.
         11   -1    0    0    0    0 -0.00000000000E+00 -0.00000000000E+00 -0.18250000000E+03  0.18250000000E+03  0.00000000000E+00 0. -1.
        -11    1    1    2    0    0  0.12259651024E+01  0.91856901925E+00  0.70278892722E+02  0.70295586787E+02  0.00000000000E+00 0. -1.
         11    1    1    2    0    0 -0.24794253815E+01 -0.51523161491E+01 -0.17957718604E+03  0.17966819322E+03  0.00000000000E+00 0. -1.
        -15    1    1    2    0    0  0.21629088217E+01  0.87610920995E+01  0.47142903615E+01  0.10335239328E+02  0.17770000000E+01 0.  1.
         15    1    1    2    0    0 -0.90944854267E+00 -0.45273449697E+01  0.10458400295E+03  0.10470098066E+03  0.17770000000E+01 0. -1.
</event>
<event>
 6    1  0.8353910E-003  0.1827287E+03  0.7546771E-02  0.1068273E+00
        -11   -1    0    0    0    0  0.00000000000E+00  0.00000000000E+00  0.18250000000E+03  0.18250000000E+03  0.00000000000E+00 0. -1.
         11   -1    0    0    0    0 -0.00000000000E+00 -0.00000000000E+00 -0.18250000000E+03  0.18250000000E+03  0.00000000000E+00 0.  1.
        -11    1    1    2    0    0  0.83450397667E-01  0.11024499563E+01  0.13661166258E+02  0.13705831730E+02  0.00000000000E+00 0. -1.
         11    1    1    2    0    0  0.14593063839E+01 -0.34981895762E+01 -0.18223188042E+03  0.18227129545E+03  0.00000000000E+00 0.  1.
        -15    1    1    2    0    0  0.35147974909E+01 -0.27457565124E+01  0.54780149192E+02  0.54990139613E+02  0.17770000000E+01 0. -1.
         15    1    1    2    0    0 -0.50575542725E+01  0.51414961323E+01  0.11379056497E+03  0.11403273321E+03  0.17770000000E+01 0.  1.
</event>
<event>
 6    1  0.8353910E-003  0.1832851E+03  0.7546771E-02  0.1067832E+00
        -11   -1    0    0    0    0  0.00000000000E+00  0.00000000000E+00  0.18250000000E+03  0.18250000000E+03  0.00000000000E+00 0.  1.
         11   -1    0    0    0    0 -0.00000000000E+00 -0.00000000000E+00 -0.18250000000E+03  0.18250000000E+03  0.00000000000E+00 0.  1.
        -11    1    1    2    0    0  0.24393718498E+01 -0.87366366377E+00  0.18169643145E+03  0.18171490589E+03  0.00000000000E+00 0.  1.
         11    1    1    2    0    0 -0.22081952566E+01 -0.82781706273E+00 -0.17128159465E+03  0.17129782857E+03  0.00000000000E+00 0.  1.
        -15    1    1    2    0    0  0.34948863700E+00 -0.99822929353E+00 -0.67818935954E+01  0.70901631695E+01  0.17770000000E+01 0. -1.
         15    1    1    2    0    0 -0.58066523017E+00  0.26997100200E+01 -0.36329431964E+01  0.48971023647E+01  0.17770000000E+01 0.  1.
</event>
<event>
 6    1  0.8353910E-003  0.1852571E+03  0.7546771E-02  0.1066281E+00
        -11   -1    0    0    0    0  0.00000000000E+00  0.00000000000E+00  0.18250000000E+03  0.18250000000E+03  0.00000000000E+00 0. -1.
         11   -1    0    0    0    0 -0.00000000000E+00 -0.00000000000E+00 -0.18250000000E+03  0.18250000000E+03  0.00000000000E+00 0. -1.
        -11    1    1    2    0    0 -0.57981809113E+00 -0.84517883011E+01  0.17954316685E+03  0.17974292108E+03  0.00000000000E+00 0. -1.
         11    1    1    2    0    0 -0.10530726219E+01 -0.30979134201E+01 -0.13378785164E+03  0.13382785688E+03  0.00000000000E+00 0. -1.
        -15    1    1    2    0    0  0.89539488737E+00  0.96406964409E+01 -0.58891528936E+01  0.11471033549E+02  0.17770000000E+01 0. -1.
         15    1    1    2    0    0  0.73749582562E+00  0.19090052803E+01 -0.39866162315E+02  0.39958188497E+02  0.17770000000E+01 0. -1.
</event>
<event>
 6    1  0.8353910E-003  0.1831042E+03  0.7546771E-02  0.1067975E+00
        -11   -1    0    0    0    0  0.00000000000E+00  0.00000000000E+00  0.18250000000E+03  0.18250000000E+03  0.00000000000E+00 0.  1.
         11   -1    0    0    0    0 -0.00000000000E+00 -0.00000000000E+00 -0.18250000000E+03  0.18250000000E+03  0.00000000000E+00 0. -1.
        -11    1    1    2    0    0  0.29875007387E+01  0.19372087415E+01  0.94409585065E+02  0.94476704486E+02  0.00000000000E+00 0.  1.
         11    1    1    2    0    0  0.31282886321E+00  0.44444196366E+01 -0.18184124616E+03  0.18189582055E+03  0.00000000000E+00 0. -1.
        -15    1    1    2    0    0 -0.10800756303E+01 -0.95904927147E+01  0.69552275283E+02  0.70241162005E+02  0.17770000000E+01 0.  1.
         15    1    1    2    0    0 -0.22202539716E+01  0.32088643366E+01  0.17879385815E+02  0.18386312957E+02  0.17770000000E+01 0. -1.
</event>
<event>
 6    1  0.8353910E-003  0.1845248E+03  0.7546771E-02  0.1066854E+00
        -11   -1    0    0    0    0  0.00000000000E+00  0.00000000000E+00  0.18250000000E+03  0.18250000000E+03  0.00000000000E+00 0. -1.
         11   -1    0    0    0    0 -0.00000000000E+00 -0.00000000000E+00 -0.18250000000E+03  0.18250000000E+03  0.00000000000E+00 0.  1.
        -11    1    1    2    0    0  0.39030622214E+01  0.89308125956E+00  0.17435093575E+03  0.17439690446E+03  0.00000000000E+00 0. -1.
         11    1    1    2    0    0 -0.38060850749E+01 -0.29041465296E+01 -0.18041171603E+03  0.18047522719E+03  0.00000000000E+00 0.  1.
        -15    1    1    2    0    0 -0.19764442663E+01 -0.74038810208E+00  0.57021322525E+01  0.63345518946E+01  0.17770000000E+01 0. -1.
         15    1    1    2    0    0  0.18794671198E+01  0.27514533722E+01  0.35864802837E+00  0.37933164542E+01  0.17770000000E+01 0.  1.
</event>
<event>
 6    1  0.8353910E-003  0.1831927E+03  0.7546771E-02  0.1067905E+00
        -11   -1    0    0    0    0  0.00000000000E+00  0.00000000000E+00  0.18250000000E+03  0.18250000000E+03  0.00000000000E+00 0. -1.
         11   -1    0    0    0    0 -0.00000000000E+00 -0.00000000000E+00 -0.18250000000E+03  0.18250000000E+03  0.00000000000E+00 0.  1.
        -11    1    1    2    0    0  0.14843272740E+01 -0.31175082451E+01  0.18177446544E+03  0.18180725610E+03  0.00000000000E+00 0. -1.
         11    1    1    2    0    0 -0.38558577799E+01 -0.13967691101E+01 -0.62637014084E+02  0.62771125022E+02  0.00000000000E+00 0.  1.
        -15    1    1    2    0    0  0.66004554695E+01  0.30237199623E+01 -0.10832045501E+03  0.10857802539E+03  0.17770000000E+01 0.  1.
         15    1    1    2    0    0 -0.42289249636E+01  0.14905573928E+01 -0.10816996344E+02  0.11843593483E+02  0.17770000000E+01 0. -1.
</event>
<event>
 6    1  0.8353910E-003  0.1852077E+03  0.7546771E-02  0.1066320E+00
        -11   -1    0    0    0    0  0.00000000000E+00  0.00000000000E+00  0.18250000000E+03  0.18250000000E+03  0.00000000000E+00 0.  1.
         11   -1    0    0    0    0 -0.00000000000E+00 -0.00000000000E+00 -0.18250000000E+03  0.18250000000E+03  0.00000000000E+00 0. -1.
        -11    1    1    2    0    0 -0.18511640221E+01 -0.29199144962E+01  0.17975904194E+03  0.17979228535E+03  0.00000000000E+00 0.  1.
         11    1    1    2    0    0  0.81090911227E+01  0.21110833931E+00 -0.16400862775E+03  0.16420911029E+03  0.00000000000E+00 0. -1.
        -15    1    1    2    0    0  0.25140916788E+01 -0.20719734697E+01 -0.36261259155E+01  0.51884727217E+01  0.17770000000E+01 0.  1.
         15    1    1    2    0    0 -0.87720187794E+01  0.47807796266E+01 -0.12124288279E+02  0.15810131643E+02  0.17770000000E+01 0. -1.
</event>
<event>
 6    1  0.8353910E-003  0.1826703E+03  0.7546771E-02  0.1068319E+00
        -11   -1    0    0    0    0  0.00000000000E+00  0.00000000000E+00  0.18250000000E+03  0.18250000000E+03  0.00000000000E+00 0.  1.
         11   -1    0    0    0    0 -0.00000000000E+00 -0.00000000000E+00 -0.18250000000E+03  0.18250000000E+03  0.00000000000E+00 0. -1.
        -11    1    1    2    0    0 -0.46043845839E+00  0.10418205278E+01  0.76965843946E+02  0.76974271857E+02  0.00000000000E+00 0.  1.
         11    1    1    2    0    0  0.27835431265E+01  0.27031665096E+00 -0.18230824522E+03  0.18232969439E+03  0.00000000000E+00 0. -1.
        -15    1    1    2    0    0 -0.98427154767E+00 -0.22984873136E+00  0.63136427009E+01  0.66363720566E+01  0.17770000000E+01 0. -1.
         15    1    1    2    0    0 -0.13388331205E+01 -0.10822884474E+01  0.99028758569E+02  0.99059661695E+02  0.17770000000E+01 0.  1.
</event>
<event>
 6    1  0.8353910E-003  0.1826690E+03  0.7546771E-02  0.1068320E+00
        -11   -1    0    0    0    0  0.00000000000E+00  0.00000000000E+00  0.18250000000E+03  0.18250000000E+03  0.00000000000E+00 0. -1.
         11   -1    0    0    0    0 -0.00000000000E+00 -0.00000000000E+00 -0.18250000000E+03  0.18250000000E+03  0.00000000000E+00 0. -1.
        -11    1    1    2    0    0  0.56885578838E+00 -0.11189496373E+01  0.73612679026E+02  0.73623380516E+02  0.00000000000E+00 0. -1.
         11    1    1    2    0    0 -0.63934981149E+01 -0.47465996726E+00 -0.18221826088E+03  0.18233100865E+03  0.00000000000E+00 0. -1.
        -15    1    1    2    0    0 -0.27041829575E+00  0.21906931805E+01  0.18623291794E+02  0.18837648179E+02  0.17770000000E+01 0.  1.
         15    1    1    2    0    0  0.60950606223E+01 -0.59708357587E+00  0.89982290056E+02  0.90207962650E+02  0.17770000000E+01 0. -1.
</event>
<event>
 6    1  0.8353910E-003  0.1833677E+03  0.7546771E-02  0.1067766E+00
        -11   -1    0    0    0    0  0.00000000000E+00  0.00000000000E+00  0.18250000000E+03  0.18250000000E+03  0.00000000000E+00 0. -1.
         11   -1    0    0    0    0 -0.00000000000E+00 -0.00000000000E+00 -0.18250000000E+03  0.18250000000E+03  0.00000000000E+00 0. -1.
        -11    1    1    2    0    0 -0.19717808082E+01  0.14670767793E+01  0.16442203630E+03  0.16444040335E+03  0.00000000000E+00 0. -1.
         11    1    1    2    0    0  0.30069057374E+01 -0.41859977523E+00 -0.18160689555E+03  0.18163226922E+03  0.00000000000E+00 0. -1.
        -15    1    1    2    0    0  0.99854399794E+00 -0.80976539143E+00  0.15667780598E+02  0.15820552708E+02  0.17770000000E+01 0. -1.
         15    1    1    2    0    0 -0.20336689271E+01 -0.23871161266E+00  0.15170786555E+01  0.31067747240E+01  0.17770000000E+01 0. -1.
</event>
<event>
 6    1  0.8353910E-003  0.1966847E+03  0.7546771E-02  0.1057693E+00
        -11   -1    0    0    0    0  0.00000000000E+00  0.00000000000E+00  0.18250000000E+03  0.18250000000E+03  0.00000000000E+00 0. -1.
         11   -1    0    0    0    0 -0.00000000000E+00 -0.00000000000E+00 -0.18250000000E+03  0.18250000000E+03  0.00000000000E+00 0. -1.
        -11    1    1    2    0    0 -0.88457391591E+01 -0.61368350488E+00  0.15909113409E+03  0.15933804522E+03  0.00000000000E+00 0. -1.
         11    1    1    2    0    0  0.21589892270E+01  0.37194019668E+01 -0.16826030064E+03  0.16831525171E+03  0.00000000000E+00 0. -1.
        -15    1    1    2    0    0 -0.32920064856E+01 -0.39977893169E+01 -0.12368705920E+02  0.13526353583E+02  0.17770000000E+01 0. -1.
         15    1    1    2    0    0  0.99787564177E+01  0.89207085497E+00  0.21537872473E+02  0.23820349488E+02  0.17770000000E+01 0. -1.
</event>
<event>
 6    1  0.8353910E-003  0.1832499E+03  0.7546771E-02  0.1067859E+00
        -11   -1    0    0    0    0  0.00000000000E+00  0.00000000000E+00  0.18250000000E+03  0.18250000000E+03  0.00000000000E+00 0.  1.
         11   -1    0    0    0    0 -0.00000000000E+00 -0.00000000000E+00 -0.18250000000E+03  0.18250000000E+03  0.00000000000E+00 0.  1.
        -11    1    1    2    0    0 -0.17956853548E+01  0.47234176123E+01  0.78599662765E+02  0.78761933360E+02  0.00000000000E+00 0.  1.
         11    1    1    2    0    0  0.77826342184E+01  0.24901348113E+01 -0.18156635058E+03  0.18175013021E+03  0.00000000000E+00 0.  1.
        -15    1    1    2    0    0  0.45496370723E+01 -0.46330105701E+01  0.42572183542E+02  0.43101189369E+02  0.17770000000E+01 0. -1.
         15    1    1    2    0    0 -0.10536585936E+02 -0.25805418535E+01  0.60394504275E+02  0.61386747063E+02  0.17770000000E+01 0. -1.
</event>
<event>
 6    1  0.8353910E-003  0.1851772E+03  0.7546771E-02  0.1066344E+00
        -11   -1    0    0    0    0  0.00000000000E+00  0.00000000000E+00  0.18250000000E+03  0.18250000000E+03  0.00000000000E+00 0. -1.
         11   -1    0    0    0    0 -0.00000000000E+00 -0.00000000000E+00 -0.18250000000E+03  0.18250000000E+03  0.00000000000E+00 0.  1.
        -11    1    1    2    0    0 -0.20190520087E+01 -0.38056361441E+01  0.17102855482E+03  0.17108280451E+03  0.00000000000E+00 0. -1.
         11    1    1    2    0    0 -0.13484605604E+01 -0.30814173181E+01 -0.17979135370E+03  0.17982281375E+03  0.00000000000E+00 0.  1.
        -15    1    1    2    0    0  0.70917311065E+00  0.65735236109E+01  0.84365410555E+01  0.10864947913E+02  0.17770000000E+01 0. -1.
         15    1    1    2    0    0  0.26583394584E+01  0.31352985125E+00  0.32625783361E+00  0.32294338231E+01  0.17770000000E+01 0.  1.
</event>
<event>
 6    1  0.8353910E-003  0.1841672E+03  0.7546771E-02  0.1067135E+00
        -11   -1    0    0    0    0  0.00000000000E+00  0.00000000000E+00  0.18250000000E+03  0.18250000000E+03  0.00000000000E+00 0. -1.
         11   -1    0    0    0    0 -0.00000000000E+00 -0.00000000000E+00 -0.18250000000E+03  0.18250000000E+03  0.00000000000E+00 0.  1.
        -11    1    1    2    0    0 -0.82019884215E+00 -0.58835672330E+01  0.10608776536E+03  0.10625395545E+03  0.00000000000E+00 0. -1.
         11    1    1    2    0    0  0.21274006929E+01 -0.54478883126E+01 -0.18073821456E+03  0.18083281650E+03  0.00000000000E+00 0.  1.
        -15    1    1    2    0    0 -0.35811208480E+01  0.60483280803E+01  0.69818500883E+02  0.70193927755E+02  0.17770000000E+01 0. -1.
         15    1    1    2    0    0  0.22739189973E+01  0.52831274653E+01  0.48319483200E+01  0.77193002913E+01  0.17770000000E+01 0.  1.
</event>
<event>
 6    1  0.8353910E-003  0.1854883E+03  0.7546771E-02  0.1066101E+00
        -11   -1    0    0    0    0  0.00000000000E+00  0.00000000000E+00  0.18250000000E+03  0.18250000000E+03  0.00000000000E+00 0. -1.
         11   -1    0    0    0    0 -0.00000000000E+00 -0.00000000000E+00 -0.18250000000E+03  0.18250000000E+03  0.00000000000E+00 0.  1.
        -11    1    1    2    0    0 -0.40317718959E+01 -0.45240249384E+00  0.14921127166E+03  0.14926641766E+03  0.00000000000E+00 0. -1.
         11    1    1    2    0    0 -0.65949712687E+01 -0.24891702088E-01 -0.17939049391E+03  0.17951168088E+03  0.00000000000E+00 0.  1.
        -15    1    1    2    0    0 -0.35795150284E+01 -0.10931818318E+01  0.20563009069E+01  0.46253731499E+01  0.17770000000E+01 0.  1.
         15    1    1    2    0    0  0.14206258193E+02  0.15704760277E+01  0.28122921350E+02  0.31596528307E+02  0.17770000000E+01 0.  1.
</event>
<event>
 6    1  0.8353910E-003  0.1855558E+03  0.7546771E-02  0.1066048E+00
        -11   -1    0    0    0    0  0.00000000000E+00  0.00000000000E+00  0.18250000000E+03  0.18250000000E+03  0.00000000000E+00 0.  1.
         11   -1    0    0    0    0 -0.00000000000E+00 -0.00000000000E+00 -0.18250000000E+03  0.18250000000E+03  0.00000000000E+00 0. -1.
        -11    1    1    2    0    0 -0.50329624465E+01  0.10655942580E+01  0.17937047657E+03  0.17944423665E+03  0.00000000000E+00 0.  1.
         11    1    1    2    0    0 -0.32802606418E+01  0.37045520777E+01 -0.15909470145E+03  0.15917163015E+03  0.00000000000E+00 0. -1.
        -15    1    1    2    0    0 -0.26457360310E+01 -0.10082665026E+01 -0.47867925917E+00  0.33768895924E+01  0.17770000000E+01 0.  1.
         15    1    1    2    0    0  0.10958959119E+02 -0.37618798331E+01 -0.19797095858E+02  0.23007243605E+02  0.17770000000E+01 0. -1.
</event>
<event>
 6    1  0.8353910E-003  0.1836735E+03  0.7546771E-02  0.1067525E+00
        -11   -1    0    0    0    0  0.00000000000E+00  0.00000000000E+00  0.18250000000E+03  0.18250000000E+03  0.00000000000E+00 0. -1.
         11   -1    0    0    0    0 -0.00000000000E+00 -0.00000000000E+00 -0.18250000000E+03  0.18250000000E+03  0.00000000000E+00 0.  1.
        -11    1    1    2    0    0  0.47517396088E+01  0.34724013480E+01  0.18123100879E+03  0.18132654287E+03  0.00000000000E+00 0. -1.
         11    1    1    2    0    0 -0.71592099349E+01 -0.24269968005E+01 -0.13629922280E+03  0.13650869107E+03  0.00000000000E+00 0.  1.
        -15    1    1    2    0    0 -0.40948892010E+01  0.80463558977E-01 -0.52182871540E+01  0.68675207880E+01  0.17770000000E+01 0.  1.
         15    1    1    2    0    0  0.65023595270E+01 -0.11258681065E+01 -0.39713498832E+02  0.40297245277E+02  0.17770000000E+01 0. -1.
</event>
<event>
 6    1  0.8353910E-003  0.1835391E+03  0.7546771E-02  0.1067631E+00
        -11   -1    0    0    0    0  0.00000000000E+00  0.00000000000E+00  0.18250000000E+03  0.18250000000E+03  0.00000000000E+00 0. -1.
         11   -1    0    0    0    0 -0.00000000000E+00 -0.00000000000E+00 -0.18250000000E+03  0.18250000000E+03  0.00000000000E+00 0. -1.
        -11    1    1    2    0    0  0.40775629527E+01 -0.57762941926E+01  0.11941248369E+03  0.11962162578E+03  0.00000000000E+00 0. -1.
         11    1    1    2    0    0 -0.53782619461E+01 -0.47992459854E+00 -0.18138053189E+03  0.18146088663E+03  0.00000000000E+00 0. -1.
        -15    1    1    2    0    0  0.39152313012E+01  0.50741791440E+01  0.11117299286E+02  0.12954860190E+02  0.17770000000E+01 0.  1.
         15    1    1    2    0    0 -0.26145323078E+01  0.11820396471E+01  0.50850748914E+02  0.50962627395E+02  0.17770000000E+01 0. -1.
</event>
<event>
 6    1  0.8353910E-003  0.1858441E+03  0.7546771E-02  0.1065824E+00
        -11   -1    0    0    0    0  0.00000000000E+00  0.00000000000E+00  0.18250000000E+03  0.18250000000E+03  0.00000000000E+00 0. -1.
         11   -1    0    0    0    0 -0.00000000000E+00 -0.00000000000E+00 -0.18250000000E+03  0.18250000000E+03  0.00000000000E+00 0.  1.
        -11    1    1    2    0    0  0.32398271100E+01 -0.33817738575E+01  0.17909466468E+03  0.17915588685E+03  0.00000000000E+00 0. -1.
         11    1    1    2    0    0 -0.42576859751E+01  0.57731194551E+01 -0.17428676018E+03  0.17443431879E+03  0.00000000000E+00 0.  1.
        -15    1    1    2    0    0  0.13709202835E+01  0.17345278725E+01  0.18382419826E+01  0.33800698144E+01  0.17770000000E+01 0.  1.
         15    1    1    2    0    0 -0.35306141835E+00 -0.41258734701E+01 -0.66461464853E+01  0.80297245507E+01  0.17770000000E+01 0. -1.
</event>
<event>
 6    1  0.8353910E-003  0.1836404E+03  0.7546771E-02  0.1067551E+00
        -11   -1    0    0    0    0  0.00000000000E+00  0.00000000000E+00  0.18250000000E+03  0.18250000000E+03  0.00000000000E+00 0. -1.
         11   -1    0    0    0    0 -0.00000000000E+00 -0.00000000000E+00 -0.18250000000E+03  0.18250000000E+03  0.00000000000E+00 0. -1.
        -11    1    1    2    0    0 -0.40794761682E+00 -0.25181800417E+01  0.18134162777E+03  0.18135956996E+03  0.00000000000E+00 0. -1.
         11    1    1    2    0    0 -0.53766533968E+00  0.39198848147E+01 -0.15940024426E+03  0.15944934134E+03  0.00000000000E+00 0. -1.
        -15    1    1    2    0    0  0.11457025864E+01  0.11427444119E+01 -0.41223692680E+00  0.24384764693E+01  0.17770000000E+01 0.  1.
         15    1    1    2    0    0 -0.20008962993E+00 -0.25444491849E+01 -0.21529146583E+02  0.21752612237E+02  0.17770000000E+01 0. -1.
</event>
<event>
 6    1  0.8353910E-003  0.1829816E+03  0.7546771E-02  0.1068072E+00
        -11   -1    0    0    0    0  0.00000000000E+00  0.00000000000E+00  0.18250000000E+03  0.18250000000E+03  0.00000000000E+00 0.  1.
         11   -1    0    0    0    0 -0.00000000000E+00 -0.00000000000E+00 -0.18250000000E+03  0.18250000000E+03  0.00000000000E+00 0.  1.
        -11    1    1    2    0    0 -0.17235500928E+01  0.24560862618E+01  0.73348362194E+02  0.73409707950E+02  0.00000000000E+00 0.  1.
         11    1    1    2    0    0 -0.26131046036E+01 -0.50319249816E+00 -0.18199889631E+03  0.18201835011E+03  0.00000000000E+00 0.  1.
        -15    1    1    2    0    0 -0.17696495555E+01  0.79168062745E+00  0.46590735636E+01  0.53500573115E+01  0.17770000000E+01 0.  1.
         15    1    1    2    0    0  0.61063042519E+01 -0.27445743910E+01  0.10399146055E+03  0.10422188463E+03  0.17770000000E+01 0.  1.
</event>
<event>
 6    1  0.8353910E-003  0.1897978E+03  0.7546771E-02  0.1062790E+00
        -11   -1    0    0    0    0  0.00000000000E+00  0.00000000000E+00  0.18250000000E+03  0.18250000000E+03  0.00000000000E+00 0. -1.
         11   -1    0    0    0    0 -0.00000000000E+00 -0.00000000000E+00 -0.18250000000E+03  0.18250000000E+03  0.00000000000E+00 0. -1.
        -11    1    1    2    0    0 -0.10383262373E+01  0.90101083718E+01  0.17496728270E+03  0.17520219802E+03  0.00000000000E+00 0. -1.
         11    1    1    2    0    0  0.35456309014E+01  0.18795803965E+02 -0.81338684380E+02  0.83557377423E+02  0.00000000000E+00 0. -1.
        -15    1    1    2    0    0  0.15515765241E+02 -0.26676341238E+01 -0.51919503448E+02  0.54283034275E+02  0.17770000000E+01 0.  1.
         15    1    1    2    0    0 -0.18023069905E+02 -0.25138278213E+02 -0.41709094878E+02  0.51957390281E+02  0.17770000000E+01 0. -1.
</event>
<event>
 6    1  0.8353910E-003  0.2021430E+03  0.7546771E-02  0.1053812E+00
        -11   -1    0    0    0    0  0.00000000000E+00  0.00000000000E+00  0.18250000000E+03  0.18250000000E+03  0.00000000000E+00 0.  1.
         11   -1    0    0    0    0 -0.00000000000E+00 -0.00000000000E+00 -0.18250000000E+03  0.18250000000E+03  0.00000000000E+00 0.  1.
        -11    1    1    2    0    0 -0.23967628115E+01  0.25046204197E+01  0.16282006114E+03  0.16285696149E+03  0.00000000000E+00 0.  1.
         11    1    1    2    0    0  0.18084773169E+01  0.10128610800E+01 -0.14403213537E+03  0.14404704959E+03  0.00000000000E+00 0.  1.
        -15    1    1    2    0    0 -0.53005043670E+01 -0.32305509095E+01 -0.37678191274E+02  0.38227419902E+02  0.17770000000E+01 0.  1.
         15    1    1    2    0    0  0.58887898617E+01 -0.28693059015E+00  0.18890265497E+02  0.19868569016E+02  0.17770000000E+01 0. -1.
</event>
<event>
 6    1  0.8353910E-003  0.1852935E+03  0.7546771E-02  0.1066253E+00
        -11   -1    0    0    0    0  0.00000000000E+00  0.00000000000E+00  0.18250000000E+03  0.18250000000E+03  0.00000000000E+00 0.  1.
         11   -1    0    0    0    0 -0.00000000000E+00 -0.00000000000E+00 -0.18250000000E+03  0.18250000000E+03  0.00000000000E+00 0. -1.
        -11    1    1    2    0    0 -0.15631536194E+02  0.57978486080E+01  0.17893148757E+03  0.17970653081E+03  0.00000000000E+00 0.  1.
         11    1    1    2    0    0 -0.22588617014E+01  0.92109419312E+00 -0.11515810562E+03  0.11518394055E+03  0.00000000000E+00 0. -1.
        -15    1    1    2    0    0 -0.64188970956E+00  0.19417920006E+01  0.39322347464E+00  0.27376873952E+01  0.17770000000E+01 0.  1.
         15    1    1    2    0    0  0.18532287605E+02 -0.86607348017E+01 -0.64166605427E+02  0.67371841241E+02  0.17770000000E+01 0. -1.
</event>
<event>
 6    1  0.8353910E-003  0.1871661E+03  0.7546771E-02  0.1064800E+00
        -11   -1    0    0    0    0  0.00000000000E+00  0.00000000000E+00  0.18250000000E+03  0.18250000000E+03  0.00000000000E+00 0.  1.
         11   -1    0    0    0    0 -0.00000000000E+00 -0.00000000000E+00 -0.18250000000E+03  0.18250000000E+03  0.00000000000E+00 0.  1.
        -11    1    1    2    0    0 -0.16590277968E+01 -0.13374317631E+01  0.15388542635E+03  0.15390018044E+03  0.00000000000E+00 0.  1.
         11    1    1    2    0    0  0.21698574787E+01 -0.92545215578E+01 -0.17757967314E+03  0.17783389656E+03  0.00000000000E+00 0.  1.
        -15    1    1    2    0    0 -0.63396106828E+01  0.59477400607E+01  0.55361378924E+00  0.88899095983E+01  0.17770000000E+01 0.  1.
         15    1    1    2    0    0  0.58287810008E+01  0.46442132602E+01  0.23140633002E+02  0.24376013404E+02  0.17770000000E+01 0.  1.
</event>
<event>
 6    1  0.8353910E-003  0.1827069E+03  0.7546771E-02  0.1068290E+00
        -11   -1    0    0    0    0  0.00000000000E+00  0.00000000000E+00  0.18250000000E+03  0.18250000000E+03  0.00000000000E+00 0.  1.
         11   -1    0    0    0    0 -0.00000000000E+00 -0.00000000000E+00 -0.18250000000E+03  0.18250000000E+03  0.00000000000E+00 0.  1.
        -11    1    1    2    0    0  0.13979106966E+01 -0.28609707123E+01  0.18226527133E+03  0.18229308391E+03  0.00000000000E+00 0.  1.
         11    1    1    2    0    0  0.24679445275E-02  0.23183039655E+01 -0.15059305588E+03  0.15061089940E+03  0.00000000000E+00 0.  1.
        -15    1    1    2    0    0  0.77620509223E+00  0.67195160864E+00 -0.80734042743E+01  0.83301619964E+01  0.17770000000E+01 0. -1.
         15    1    1    2    0    0 -0.21765837333E+01 -0.12928486188E+00 -0.23598811177E+02  0.23765854693E+02  0.17770000000E+01 0.  1.
</event>
<event>
 6    1  0.8353910E-003  0.1835703E+03  0.7546771E-02  0.1067606E+00
        -11   -1    0    0    0    0  0.00000000000E+00  0.00000000000E+00  0.18250000000E+03  0.18250000000E+03  0.00000000000E+00 0. -1.
         11   -1    0    0    0    0 -0.00000000000E+00 -0.00000000000E+00 -0.18250000000E+03  0.18250000000E+03  0.00000000000E+00 0. -1.
        -11    1    1    2    0    0  0.87538415696E+00  0.81448355428E+00  0.58292588239E+02  0.58304849922E+02  0.00000000000E+00 0. -1.
         11    1    1    2    0    0 -0.30108089019E+01  0.19110200780E+01 -0.18139461838E+03  0.18142966832E+03  0.00000000000E+00 0. -1.
        -15    1    1    2    0    0 -0.67678995528E+00 -0.62795627764E+01  0.11811255745E+03  0.11829465292E+03  0.17770000000E+01 0. -1.
         15    1    1    2    0    0  0.28122147002E+01  0.35540591441E+01  0.49894726991E+01  0.69708288413E+01  0.17770000000E+01 0.  1.
</event>
<event>
 6    1  0.8353910E-003  0.1871863E+03  0.7546771E-02  0.1064785E+00
        -11   -1    0    0    0    0  0.00000000000E+00  0.00000000000E+00  0.18250000000E+03  0.18250000000E+03  0.00000000000E+00 0.  1.
         11   -1    0    0    0    0 -0.00000000000E+00 -0.00000000000E+00 -0.18250000000E+03  0.18250000000E+03  0.00000000000E+00 0.  1.
        -11    1    1    2    0    0  0.11500111987E+01 -0.10686266334E+02  0.11491975113E+03  0.11542126326E+03  0.00000000000E+00 0.  1.
         11    1    1    2    0    0  0.29260768991E+01 -0.20098632045E+01 -0.17777828405E+03  0.17781372207E+03  0.00000000000E+00 0.  1.
        -15    1    1    2    0    0  0.12199142528E+02  0.16894763160E+01  0.12310530058E+02  0.17503722117E+02  0.17770000000E+01 0. -1.
         15    1    1    2    0    0 -0.16275230625E+02  0.11006653223E+02  0.50548002862E+02  0.54261292552E+02  0.17770000000E+01 0.  1.
</event>
<event>
 6    1  0.8353910E-003  0.1850858E+03  0.7546771E-02  0.1066415E+00
        -11   -1    0    0    0    0  0.00000000000E+00  0.00000000000E+00  0.18250000000E+03  0.18250000000E+03  0.00000000000E+00 0. -1.
         11   -1    0    0    0    0 -0.00000000000E+00 -0.00000000000E+00 -0.18250000000E+03  0.18250000000E+03  0.00000000000E+00 0.  1.
        -11    1    1    2    0    0  0.17391613521E+01  0.23000258506E+01  0.11167286977E+03  0.11171009195E+03  0.00000000000E+00 0. -1.
         11    1    1    2    0    0 -0.50189014106E+01 -0.80097538247E+00 -0.17984240383E+03  0.17991420497E+03  0.00000000000E+00 0.  1.
        -15    1    1    2    0    0 -0.45182032753E+01  0.67052771626E+00  0.63836448628E+02  0.64024320931E+02  0.17770000000E+01 0. -1.
         15    1    1    2    0    0  0.77979433338E+01 -0.21695781844E+01  0.43330854324E+01  0.93513821492E+01  0.17770000000E+01 0.  1.
</event>
<event>
 6    1  0.8353910E-003  0.1851261E+03  0.7546771E-02  0.1066383E+00
        -11   -1    0    0    0    0  0.00000000000E+00  0.00000000000E+00  0.18250000000E+03  0.18250000000E+03  0.00000000000E+00 0.  1.
         11   -1    0    0    0    0 -0.00000000000E+00 -0.00000000000E+00 -0.18250000000E+03  0.18250000000E+03  0.00000000000E+00 0.  1.
        -11    1    1    2    0    0 -0.14765199556E+01  0.25333141511E+01  0.17984995660E+03  0.17987385770E+03  0.00000000000E+00 0.  1.
         11    1    1    2    0    0  0.83675820697E+01  0.75311923892E+00 -0.15895736443E+03  0.15917923019E+03  0.00000000000E+00 0.  1.
        -15    1    1    2    0    0 -0.21933157813E+00  0.29192867839E+01 -0.13924294674E+02  0.14339248685E+02  0.17770000000E+01 0. -1.
         15    1    1    2    0    0 -0.66717305360E+01 -0.62057201739E+01 -0.69682975046E+01  0.11607663431E+02  0.17770000000E+01 0.  1.
</event>
<event>
 6    1  0.8353910E-003  0.1826623E+03  0.7546771E-02  0.1068326E+00
        -11   -1    0    0    0    0  0.00000000000E+00  0.00000000000E+00  0.18250000000E+03  0.18250000000E+03  0.00000000000E+00 0. -1.
         11   -1    0    0    0    0 -0.00000000000E+00 -0.00000000000E+00 -0.18250000000E+03  0.18250000000E+03  0.00000000000E+00 0.  1.
        -11    1    1    2    0    0  0.16614851216E+01  0.17452667438E+00  0.43106728780E+02  0.43139089681E+02  0.00000000000E+00 0. -1.
         11    1    1    2    0    0 -0.20382644357E+01  0.43331129598E+01 -0.18227483048E+03  0.18233772022E+03  0.00000000000E+00 0.  1.
        -15    1    1    2    0    0 -0.10630605810E+00 -0.28844493446E+01  0.17222277873E+02  0.17552661710E+02  0.17770000000E+01 0. -1.
         15    1    1    2    0    0  0.48308537218E+00 -0.16231902896E+01  0.12194582382E+03  0.12197052839E+03  0.17770000000E+01 0.  1.
</event>
<event>
 6    1  0.8353910E-003  0.1839733E+03  0.7546771E-02  0.1067288E+00
        -11   -1    0    0    0    0  0.00000000000E+00  0.00000000000E+00  0.18250000000E+03  0.18250000000E+03  0.00000000000E+00 0.  1.
         11   -1    0    0    0    0 -0.00000000000E+00 -0.00000000000E+00 -0.18250000000E+03  0.18250000000E+03  0.00000000000E+00 0.  1.
        -11    1    1    2    0    0  0.22514935887E+01 -0.30242241119E+01  0.18098742043E+03  0.18102668729E+03  0.00000000000E+00 0.  1.
         11    1    1    2    0    0 -0.25958658837E+01  0.16557225299E+01 -0.16351225374E+03  0.16354123963E+03  0.00000000000E+00 0.  1.
        -15    1    1    2    0    0 -0.47516824876E+01  0.55455519675E+00 -0.91584696564E+01  0.10484336573E+02  0.17770000000E+01 0. -1.
         15    1    1    2    0    0  0.50960547826E+01  0.81394638531E+00 -0.83166970402E+01  0.99477365125E+01  0.17770000000E+01 0.  1.
</event>
<event>
 6    1  0.8353910E-003  0.1875937E+03  0.7546771E-02  0.1064471E+00
        -11   -1    0    0    0    0  0.00000000000E+00  0.00000000000E+00  0.18250000000E+03  0.18250000000E+03  0.00000000000E+00 0. -1.
         11   -1    0    0    0    0 -0.00000000000E+00 -0.00000000000E+00 -0.18250000000E+03  0.18250000000E+03  0.00000000000E+00 0.  1.
        -11    1    1    2    0    0 -0.24284614884E+01 -0.13337975972E+01  0.17738470047E+03  0.17740633698E+03  0.00000000000E+00 0. -1.
         11    1    1    2    0    0  0.28828558925E+00 -0.41762238800E+00 -0.21362963765E+02  0.21368990099E+02  0.00000000000E+00 0.  1.
        -15    1    1    2    0    0  0.30039235812E+01 -0.10005639680E+02 -0.15371723409E+03  0.15408206309E+03  0.17770000000E+01 0.  1.
         15    1    1    2    0    0 -0.86374768200E+00  0.11757059665E+02 -0.23045026184E+01  0.12142609824E+02  0.17770000000E+01 0. -1.
</event>
<event>
 6    1  0.8353910E-003  0.1833854E+03  0.7546771E-02  0.1067752E+00
        -11   -1    0    0    0    0  0.00000000000E+00  0.00000000000E+00  0.18250000000E+03  0.18250000000E+03  0.00000000000E+00 0.  1.
         11   -1    0    0    0    0 -0.00000000000E+00 -0.00000000000E+00 -0.18250000000E+03  0.18250000000E+03  0.00000000000E+00 0. -1.
        -11    1    1    2    0    0 -0.22939239130E+01  0.99967659429E+00  0.14447991859E+03  0.14450158586E+03  0.00000000000E+00 0.  1.
         11    1    1    2    0    0  0.45241822316E+01  0.22644989114E+01 -0.18154409491E+03  0.18161457699E+03  0.00000000000E+00 0. -1.
        -15    1    1    2    0    0 -0.61598179300E+00 -0.13519837066E+01  0.35234662226E+02  0.35310712889E+02  0.17770000000E+01 0.  1.
         15    1    1    2    0    0 -0.16142765256E+01 -0.19121917991E+01  0.18295140961E+01  0.35731242639E+01  0.17770000000E+01 0. -1.
</event>
<event>
 6    1  0.8353910E-003  0.1834258E+03  0.7546771E-02  0.1067720E+00
        -11   -1    0    0    0    0  0.00000000000E+00  0.00000000000E+00  0.18250000000E+03  0.18250000000E+03  0.00000000000E+00 0.  1.
         11   -1    0    0    0    0 -0.00000000000E+00 -0.00000000000E+00 -0.18250000000E+03  0.18250000000E+03  0.00000000000E+00 0.  1.
        -11    1    1    2    0    0  0.11942168397E+01  0.25454400016E+01  0.18155237997E+03  0.18157415039E+03  0.00000000000E+00 0.  1.
         11    1    1    2    0    0 -0.12043524450E+01 -0.63547629127E+00 -0.39610829209E+02  0.39634228711E+02  0.00000000000E+00 0.  1.
        -15    1    1    2    0    0 -0.10922897280E+02 -0.20681549007E+01 -0.88564834907E+02  0.89277514866E+02  0.17770000000E+01 0.  1.
         15    1    1    2    0    0  0.10933032885E+02  0.15819119029E+00 -0.53376715851E+02  0.54514106032E+02  0.17770000000E+01 0. -1.
</event>
<event>
 6    1  0.8353910E-003  0.1880228E+03  0.7546771E-02  0.1064142E+00
        -11   -1    0    0    0    0  0.00000000000E+00  0.00000000000E+00  0.18250000000E+03  0.18250000000E+03  0.00000000000E+00 0. -1.
         11   -1    0    0    0    0 -0.00000000000E+00 -0.00000000000E+00 -0.18250000000E+03  0.18250000000E+03  0.00000000000E+00 0.  1.
        -11    1    1    2    0    0  0.72665323341E+01  0.19957029797E+01  0.10367642253E+03  0.10394992021E+03  0.00000000000E+00 0. -1.
         11    1    1    2    0    0  0.89107434244E+01 -0.76823990877E+01 -0.17658572163E+03  0.17697722364E+03  0.00000000000E+00 0.  1.
        -15    1    1    2    0    0 -0.65522530251E+01  0.49627788418E+01 -0.19009010697E+01  0.86216209274E+01  0.17770000000E+01 0.  1.
         15    1    1    2    0    0 -0.96250227333E+01  0.72391726611E+00  0.74810200169E+02  0.75451235226E+02  0.17770000000E+01 0. -1.
</event>
<event>
 6    1  0.8353910E-003  0.1738010E+03  0.7546771E-02  0.1075598E+00
        -11   -1    0    0    0    0  0.00000000000E+00  0.00000000000E+00  0.18250000000E+03  0.18250000000E+03  0.00000000000E+00 0. -1.
         11   -1    0    0    0    0 -0.00000000000E+00 -0.00000000000E+00 -0.18250000000E+03  0.18250000000E+03  0.00000000000E+00 0.  1.
        -11    1    1    2    0    0 -0.13445739204E+01  0.41605025375E+01  0.17412052290E+03  0.17417541203E+03  0.00000000000E+00 0. -1.
         11    1    1    2    0    0  0.57658193727E+00  0.42820655262E+01 -0.17347678382E+03  0.17353058248E+03  0.00000000000E+00 0.  1.
        -15    1    1    2    0    0 -0.18385207322E+01 -0.91488409403E+01  0.50412016853E+01  0.10754203479E+02  0.17770000000E+01 0. -1.
         15    1    1    2    0    0  0.26065127153E+01  0.70627287666E+00 -0.56849407599E+01  0.65398020119E+01  0.17770000000E+01 0.  1.
</event>
<event>
 6    1  0.8353910E-003  0.1826978E+03  0.7546771E-02  0.1068297E+00
        -11   -1    0    0    0    0  0.00000000000E+00  0.00000000000E+00  0.18250000000E+03  0.18250000000E+03  0.00000000000E+00 0. -1.
         11   -1    0    0    0    0 -0.00000000000E+00 -0.00000000000E+00 -0.18250000000E+03  0.18250000000E+03  0.00000000000E+00 0.  1.
        -11    1    1    2    0    0 -0.12573013986E+01  0.15457283523E+01  0.10315839763E+03  0.10317763850E+03  0.00000000000E+00 0. -1.
         11    1    1    2    0    0  0.18532459561E+01 -0.41121399858E+01 -0.18224643065E+03  0.18230223724E+03  0.00000000000E+00 0.  1.
        -15    1    1    2    0    0  0.17830698602E+01 -0.13573672188E+01  0.17140572252E+02  0.17377535211E+02  0.17770000000E+01 0. -1.
         15    1    1    2    0    0 -0.23790144176E+01  0.39237788522E+01  0.61947460767E+02  0.62142589056E+02  0.17770000000E+01 0.  1.
</event>
<event>
 6    1  0.8353910E-003  0.1995777E+03  0.7546771E-02  0.1055619E+00
        -11   -1    0    0    0    0  0.00000000000E+00  0.00000000000E+00  0.18250000000E+03  0.18250000000E+03  0.00000000000E+00 0.  1.
         11   -1    0    0    0    0 -0.00000000000E+00 -0.00000000000E+00 -0.18250000000E+03  0.18250000000E+03  0.00000000000E+00 0.  1.
        -11    1    1    2    0    0  0.17034303438E+01 -0.21967631944E+01  0.16539891415E+03  0.16542227252E+03  0.00000000000E+00 0.  1.
         11    1    1    2    0    0 -0.10343801785E+02  0.19862166995E+02 -0.13546051519E+03  0.13729912996E+03  0.00000000000E+00 0.  1.
        -15    1    1    2    0    0  0.29681769762E+02 -0.11103028364E+02 -0.12482908186E+02  0.34106677071E+02  0.17770000000E+01 0.  1.
         15    1    1    2    0    0 -0.21041398321E+02 -0.65623754368E+01 -0.17455490772E+02  0.28171920448E+02  0.17770000000E+01 0. -1.
</event>
<event>
 6    1  0.8353910E-003  0.1907923E+03  0.7546771E-02  0.1062039E+00
        -11   -1    0    0    0    0  0.00000000000E+00  0.00000000000E+00  0.18250000000E+03  0.18250000000E+03  0.00000000000E+00 0.  1.
         11   -1    0    0    0    0 -0.00000000000E+00 -0.00000000000E+00 -0.18250000000E+03  0.18250000000E+03  0.00000000000E+00 0.  1.
        -11    1    1    2    0    0 -0.46450533895E+01  0.70027312088E+00  0.17414440212E+03  0.17420774866E+03  0.00000000000E+00 0.  1.
         11    1    1    2    0    0 -0.27225410620E+01  0.17370792740E+01 -0.16155678615E+03  0.16158906159E+03  0.00000000000E+00 0.  1.
        -15    1    1    2    0    0  0.64157868730E+01  0.60787640792E+00 -0.19919928391E+02  0.21011737459E+02  0.17770000000E+01 0. -1.
         15    1    1    2    0    0  0.95180757853E+00 -0.30452288028E+01  0.73323124274E+01  0.81914522925E+01  0.17770000000E+01 0.  1.
</event>
<event>
 6    1  0.8353910E-003  0.1826853E+03  0.7546771E-02  0.1068307E+00
        -11   -1    0    0    0    0  0.00000000000E+00  0.00000000000E+00  0.18250000000E+03  0.18250000000E+03  0.00000000000E+00 0.  1.
         11   -1    0    0    0    0 -0.00000000000E+00 -0.00000000000E+00 -0.18250000000E+03  0.18250000000E+03  0.00000000000E+00 0. -1.
        -11    1    1    2    0    0 -0.33562979221E+00  0.52938711826E+01  0.18223752243E+03  0.18231470676E+03  0.00000000000E+00 0.  1.
         11    1    1    2    0    0  0.14932888531E+01 -0.14478693483E+00 -0.41644505368E+02  0.41671521477E+02  0.00000000000E+00 0. -1.
        -15    1    1    2    0    0  0.15787650469E+01 -0.43768577109E+01 -0.33495328363E+02  0.33863610759E+02  0.17770000000E+01 0. -1.
         15    1    1    2    0    0 -0.27364241078E+01 -0.77222653689E+00 -0.10709768870E+03  0.10715016101E+03  0.17770000000E+01 0. -1.
</event>
<event>
 6    1  0.8353910E-003  0.1831567E+03  0.7546771E-02  0.1067933E+00
        -11   -1    0    0    0    0  0.00000000000E+00  0.00000000000E+00  0.18250000000E+03  0.18250000000E+03  0.00000000000E+00 0. -1.
         11   -1    0    0    0    0 -0.00000000000E+00 -0.00000000000E+00 -0.18250000000E+03  0.18250000000E+03  0.00000000000E+00 0.  1.
        -11    1    1    2    0    0 -0.14473395974E+01 -0.20968709578E+01  0.18182540271E+03  0.18184325319E+03  0.00000000000E+00 0. -1.
         11    1    1    2    0    0  0.30961926630E+01  0.88726946521E+00 -0.17145101953E+03  0.17148126939E+03  0.00000000000E+00 0.  1.
        -15    1    1    2    0    0  0.80334639042E-01  0.13212679048E+01 -0.77617618155E+01  0.80718571600E+01  0.17770000000E+01 0.  1.
         15    1    1    2    0    0 -0.17291877046E+01 -0.11166641222E+00 -0.26126213722E+01  0.36036202547E+01  0.17770000000E+01 0. -1.
</event>
<event>
 6    1  0.8353910E-003  0.1842018E+03  0.7546771E-02  0.1067108E+00
        -11   -1    0    0    0    0  0.00000000000E+00  0.00000000000E+00  0.18250000000E+03  0.18250000000E+03  0.00000000000E+00 0. -1.
         11   -1    0    0    0    0 -0.00000000000E+00 -0.00000000000E+00 -0.18250000000E+03  0.18250000000E+03  0.00000000000E+00 0.  1.
        -11    1    1    2    0    0 -0.33950944607E+01  0.46814869788E+00  0.18076571813E+03  0.18079820431E+03  0.00000000000E+00 0. -1.
         11    1    1    2    0    0  0.28361475253E+01 -0.18530933769E+01 -0.17497379044E+03  0.17500658567E+03  0.00000000000E+00 0.  1.
        -15    1    1    2    0    0 -0.25384851157E+01  0.11634402352E+01 -0.40058198775E+01  0.51963277181E+01  0.17770000000E+01 0. -1.
         15    1    1    2    0    0  0.30974320511E+01  0.22150444381E+00 -0.17861078189E+01  0.39988823026E+01  0.17770000000E+01 0.  1.
</event>
<event>
 6    1  0.8353910E-003  0.1701829E+03  0.7546771E-02  0.1078705E+00
        -11   -1    0    0    0    0  0.00000000000E+00  0.00000000000E+00  0.18250000000E+03  0.18250000000E+03  0.00000000000E+00 0. -1.
         11   -1    0    0    0    0 -0.00000000000E+00 -0.00000000000E+00 -0.18250000000E+03  0.18250000000E+03  0.00000000000E+00 0.  1.
        -11    1    1    2    0    0 -0.10881942683E+02  0.15131774285E+02  0.16381627185E+03  0.16487315789E+03  0.00000000000E+00 0. -1.
         11    1    1    2    0    0 -0.20944905601E+01 -0.45222695754E+01 -0.17605428401E+03  0.17612481010E+03  0.00000000000E+00 0.  1.
        -15    1    1    2    0    0  0.14796608051E+02 -0.10098897763E+02  0.10113564650E+02  0.20648710971E+02  0.17770000000E+01 0. -1.
         15    1    1    2    0    0 -0.18201748084E+01 -0.51060694621E+00  0.21244475115E+01  0.33533210427E+01  0.17770000000E+01 0.  1.
</event>
<event>
 6    1  0.8353910E-003  0.1780430E+03  0.7546771E-02  0.1072059E+00
        -11   -1    0    0    0    0  0.00000000000E+00  0.00000000000E+00  0.18250000000E+03  0.18250000000E+03  0.00000000000E+00 0. -1.
         11   -1    0    0    0    0 -0.00000000000E+00 -0.00000000000E+00 -0.18250000000E+03  0.18250000000E+03  0.00000000000E+00 0. -1.
        -11    1    1    2    0    0  0.30219893262E+01  0.10460175872E+01  0.17887542937E+03  0.17890401282E+03  0.00000000000E+00 0. -1.
         11    1    1    2    0    0  0.54844468684E+00  0.27468835558E+01 -0.17720195553E+03  0.17722409319E+03  0.00000000000E+00 0. -1.
        -15    1    1    2    0    0 -0.21778396246E+01 -0.63783945676E+00  0.20165454011E+01  0.35176709565E+01  0.17770000000E+01 0.  1.
         15    1    1    2    0    0 -0.13925943884E+01 -0.31550616863E+01 -0.36900192331E+01  0.53542230357E+01  0.17770000000E+01 0. -1.
</event>
<event>
 6    1  0.8353910E-003  0.1905151E+03  0.7546771E-02  0.1062248E+00
        -11   -1    0    0    0    0  0.00000000000E+00  0.00000000000E+00  0.18250000000E+03  0.18250000000E+03  0.00000000000E+00 0. -1.
         11   -1    0    0    0    0 -0.00000000000E+00 -0.00000000000E+00 -0.18250000000E+03  0.18250000000E+03  0.00000000000E+00 0. -1.
        -11    1    1    2    0    0  0.55952384581E+01 -0.14117479409E+01  0.17438942534E+03  0.17448487440E+03  0.00000000000E+00 0. -1.
         11    1    1    2    0    0 -0.19978100704E+01 -0.30806264215E+01 -0.16780486029E+03  0.16784502567E+03  0.00000000000E+00 0. -1.
        -15    1    1    2    0    0  0.12325561610E+01  0.13782094719E+01 -0.13363349438E+02  0.13607185353E+02  0.17770000000E+01 0. -1.
         15    1    1    2    0    0 -0.48299845487E+01  0.31141648904E+01  0.67787843933E+01  0.90629145729E+01  0.17770000000E+01 0.  1.
</event>
<event>
 6    1  0.8353910E-003  0.1827257E+03  0.7546771E-02  0.1068275E+00
        -11   -1    0    0    0    0  0.00000000000E+00  0.00000000000E+00  0.18250000000E+03  0.18250000000E+03  0.00000000000E+00 0.  1.
         11   -1    0    0    0    0 -0.00000000000E+00 -0.00000000000E+00 -0.18250000000E+03  0.18250000000E+03  0.00000000000E+00 0.  1.
        -11    1    1    2    0    0 -0.20091337066E+01  0.66729163378E+00  0.13219135512E+03  0.13220830634E+03  0.00000000000E+00 0.  1.
         11    1    1    2    0    0 -0.14735721996E+01  0.24584423140E+01 -0.18225178860E+03  0.18227432568E+03  0.00000000000E+00 0.  1.
        -15    1    1    2    0    0  0.28053139043E+01 -0.34676987284E+01  0.32900327295E+02  0.33248819312E+02  0.17770000000E+01 0. -1.
         15    1    1    2    0    0  0.67739200191E+00  0.34196478058E+00  0.17160106189E+02  0.17268548672E+02  0.17770000000E+01 0. -1.
</event>
<event>
 6    1  0.8353910E-003  0.1826174E+03  0.7546771E-02  0.1068361E+00
        -11   -1    0    0    0    0  0.00000000000E+00  0.00000000000E+00  0.18250000000E+03  0.18250000000E+03  0.00000000000E+00 0.  1.
         11   -1    0    0    0    0 -0.00000000000E+00 -0.00000000000E+00 -0.18250000000E+03  0.18250000000E+03  0.00000000000E+00 0.  1.
        -11    1    1    2    0    0  0.25399203989E+01  0.37013328604E+00  0.18236458405E+03  0.18238264641E+03  0.00000000000E+00 0.  1.
         11    1    1    2    0    0 -0.10119549912E+01 -0.36932326356E+00 -0.37470952676E+02  0.37486434173E+02  0.00000000000E+00 0.  1.
        -15    1    1    2    0    0  0.16590801527E+01 -0.22133242591E+01 -0.34893197901E+02  0.35047743721E+02  0.17770000000E+01 0.  1.
         15    1    1    2    0    0 -0.31870455604E+01  0.22125142366E+01 -0.11000043347E+03  0.11008317570E+03  0.17770000000E+01 0.  1.
</event>
<event>
 6    1  0.8353910E-003  0.1610496E+03  0.7546771E-02  0.1086940E+00
        -11   -1    0    0    0    0  0.00000000000E+00  0.00000000000E+00  0.18250000000E+03  0.18250000000E+03  0.00000000000E+00 0.  1.
         11   -1    0    0    0    0 -0.00000000000E+00 -0.00000000000E+00 -0.18250000000E+03  0.18250000000E+03  0.00000000000E+00 0.  1.
        -11    1    1    2    0    0 -0.10103380304E+01 -0.16653120710E+02  0.15904867159E+03  0.15992131549E+03  0.00000000000E+00 0.  1.
         11    1    1    2    0    0 -0.16350077850E+02  0.26632146618E+01 -0.16211898923E+03  0.16296313825E+03  0.00000000000E+00 0.  1.
        -15    1    1    2    0    0  0.10938853598E+02  0.75565384858E+01  0.19256013327E+02  0.23467244623E+02  0.17770000000E+01 0.  1.
         15    1    1    2    0    0  0.64215622819E+01  0.64333675627E+01 -0.16185695686E+02  0.18648301643E+02  0.17770000000E+01 0. -1.
</event>
<event>
 6    1  0.8353910E-003  0.1780284E+03  0.7546771E-02  0.1072071E+00
        -11   -1    0    0    0    0  0.00000000000E+00  0.00000000000E+00  0.18250000000E+03  0.18250000000E+03  0.00000000000E+00 0.  1.
         11   -1    0    0    0    0 -0.00000000000E+00 -0.00000000000E+00 -0.18250000000E+03  0.18250000000E+03  0.00000000000E+00 0.  1.
        -11    1    1    2    0    0  0.15630551028E+01 -0.20598789907E+01  0.17898913968E+03  0.17900781649E+03  0.00000000000E+00 0.  1.
         11    1    1    2    0    0  0.28428358061E+01  0.16564661853E+01 -0.17705111697E+03  0.17708168628E+03  0.00000000000E+00 0.  1.
        -15    1    1    2    0    0 -0.35366952715E+01  0.93336928336E+00  0.19546629882E+01  0.45119649888E+01  0.17770000000E+01 0. -1.
         15    1    1    2    0    0 -0.86919563736E+00 -0.52995647795E+00 -0.38926856984E+01  0.43985322405E+01  0.17770000000E+01 0. -1.
</event>
<event>
 6    1  0.8353910E-003  0.1832019E+03  0.7546771E-02  0.1067897E+00
        -11   -1    0    0    0    0  0.00000000000E+00  0.00000000000E+00  0.18250000000E+03  0.18250000000E+03  0.00000000000E+00 0.  1.
         11   -1    0    0    0    0 -0.00000000000E+00 -0.00000000000E+00 -0.18250000000E+03  0.18250000000E+03  0.00000000000E+00 0.  1.
        -11    1    1    2    0    0  0.38160900713E+01 -0.38921826996E+00  0.18175762598E+03  0.18179809855E+03  0.00000000000E+00 0.  1.
         11    1    1    2    0    0  0.48332784520E+01  0.41252740129E+01 -0.11256177791E+03  0.11274099659E+03  0.00000000000E+00 0.  1.
        -15    1    1    2    0    0 -0.87429500389E+01 -0.53634326690E+01 -0.47258163527E+02  0.48391087344E+02  0.17770000000E+01 0. -1.
         15    1    1    2    0    0  0.93581515658E-01  0.16273769261E+01 -0.21937684544E+02  0.22069817519E+02  0.17770000000E+01 0.  1.
</event>
<event>
 6    1  0.8353910E-003  0.1847614E+03  0.7546771E-02  0.1066669E+00
        -11   -1    0    0    0    0  0.00000000000E+00  0.00000000000E+00  0.18250000000E+03  0.18250000000E+03  0.00000000000E+00 0.  1.
         11   -1    0    0    0    0 -0.00000000000E+00 -0.00000000000E+00 -0.18250000000E+03  0.18250000000E+03  0.00000000000E+00 0.  1.
        -11    1    1    2    0    0 -0.18784958030E+01  0.22501253643E+01  0.17526850377E+03  0.17529301248E+03  0.00000000000E+00 0.  1.
         11    1    1    2    0    0  0.73357186260E+00  0.25175498492E+01 -0.18021952688E+03  0.18023860312E+03  0.00000000000E+00 0.  1.
        -15    1    1    2    0    0  0.10015350764E+01 -0.34788349801E+01  0.58388302923E+01  0.70961280647E+01  0.17770000000E+01 0.  1.
         15    1    1    2    0    0  0.14338886405E+00 -0.12888402334E+01 -0.88780717980E+00  0.23722563314E+01  0.17770000000E+01 0. -1.
</event>
<event>
 6    1  0.8353910E-003  0.1827798E+03  0.7546771E-02  0.1068232E+00
        -11   -1    0    0    0    0  0.00000000000E+00  0.00000000000E+00  0.18250000000E+03  0.18250000000E+03  0.00000000000E+00 0. -1.
         11   -1    0    0    0    0 -0.00000000000E+00 -0.00000000000E+00 -0.18250000000E+03  0.18250000000E+03  0.00000000000E+00 0.  1.
        -11    1    1    2    0    0  0.16077531293E+01 -0.22652962777E+01  0.18219899909E+03  0.18222017371E+03  0.00000000000E+00 0. -1.
         11    1    1    2    0    0  0.25989849502E-01 -0.91867215628E+00 -0.52143567279E+02  0.52151665770E+02  0.00000000000E+00 0.  1.
        -15    1    1    2    0    0 -0.33896336017E+01  0.13017305312E+01 -0.15146960035E+02  0.15677124916E+02  0.17770000000E+01 0.  1.
         15    1    1    2    0    0  0.17558906229E+01  0.18822379027E+01 -0.11490847178E+03  0.11495103560E+03  0.17770000000E+01 0.  1.
</event>
<event>
 6    1  0.8353910E-003  0.1829609E+03  0.7546771E-02  0.1068089E+00
        -11   -1    0    0    0    0  0.00000000000E+00  0.00000000000E+00  0.18250000000E+03  0.18250000000E+03  0.00000000000E+00 0. -1.
         11   -1    0    0    0    0 -0.00000000000E+00 -0.00000000000E+00 -0.18250000000E+03  0.18250000000E+03  0.00000000000E+00 0. -1.
        -11    1    1    2    0    0 -0.28541429924E+01 -0.31420016806E+00  0.17330020298E+03  0.17332398913E+03  0.00000000000E+00 0. -1.
         11    1    1    2    0    0  0.19968867037E+01  0.16181604007E+01 -0.18202094973E+03  0.18203909509E+03  0.00000000000E+00 0. -1.
        -15    1    1    2    0    0  0.90923599397E+00 -0.46779601729E+00  0.34664585535E+01  0.40273573358E+01  0.17770000000E+01 0.  1.
         15    1    1    2    0    0 -0.51979705259E-01 -0.83616421537E+00  0.52542881947E+01  0.56095584423E+01  0.17770000000E+01 0. -1.
</event>
<event>
 6    1  0.8353910E-003  0.1840050E+03  0.7546771E-02  0.1067263E+00
        -11   -1    0    0    0    0  0.00000000000E+00  0.00000000000E+00  0.18250000000E+03  0.18250000000E+03  0.00000000000E+00 0.  1.
         11   -1    0    0    0    0 -0.00000000000E+00 -0.00000000000E+00 -0.18250000000E+03  0.18250000000E+03  0.00000000000E+00 0.  1.
        -11    1    1    2    0    0 -0.74110524775E+01  0.20226910601E+01  0.18083188936E+03  0.18099499216E+03  0.00000000000E+00 0.  1.
         11    1    1    2    0    0  0.20647851802E+01 -0.17246802548E+01 -0.16338517729E+03  0.16340732547E+03  0.00000000000E+00 0.  1.
        -15    1    1    2    0    0  0.58865964133E+01 -0.36245372028E+01 -0.11519128205E+02  0.13551285211E+02  0.17770000000E+01 0.  1.
         15    1    1    2    0    0 -0.54032911600E+00  0.33265263975E+01 -0.59275838630E+01  0.70463971560E+01  0.17770000000E+01 0.  1.
</event>
<event>
 6    1  0.8353910E-003  0.1843108E+03  0.7546771E-02  0.1067023E+00
        -11   -1    0    0    0    0  0.00000000000E+00  0.00000000000E+00  0.18250000000E+03  0.18250000000E+03  0.00000000000E+00 0. -1.
         11   -1    0    0    0    0 -0.00000000000E+00 -0.00000000000E+00 -0.18250000000E+03  0.18250000000E+03  0.00000000000E+00 0. -1.
        -11    1    1    2    0    0  0.12174352816E+01 -0.45256682790E+01  0.13985303825E+03  0.13993154087E+03  0.00000000000E+00 0. -1.
         11    1    1    2    0    0  0.20636199728E+00 -0.53360819345E+01 -0.18061032225E+03  0.18068924943E+03  0.00000000000E+00 0. -1.
        -15    1    1    2    0    0  0.34669096932E+01  0.84133389969E+01  0.36022059885E+02  0.37196105485E+02  0.17770000000E+01 0.  1.
         15    1    1    2    0    0 -0.48907069721E+01  0.14484112166E+01  0.47352241117E+01  0.71831042125E+01  0.17770000000E+01 0. -1.
</event>
<event>
 6    1  0.8353910E-003  0.1848735E+03  0.7546771E-02  0.1066581E+00
        -11   -1    0    0    0    0  0.00000000000E+00  0.00000000000E+00  0.18250000000E+03  0.18250000000E+03  0.00000000000E+00 0. -1.
         11   -1    0    0    0    0 -0.00000000000E+00 -0.00000000000E+00 -0.18250000000E+03  0.18250000000E+03  0.00000000000E+00 0.  1.
        -11    1    1    2    0    0 -0.21753069032E+00  0.76314452377E+01  0.17996465495E+03  0.18012652028E+03  0.00000000000E+00 0. -1.
         11    1    1    2    0    0  0.23480938995E+01  0.59599126755E+01 -0.15771058068E+03  0.15784062013E+03  0.00000000000E+00 0.  1.
        -15    1    1    2    0    0 -0.15729787806E+01 -0.12265830447E+02 -0.15533819812E+02  0.19934446211E+02  0.17770000000E+01 0.  1.
         15    1    1    2    0    0 -0.55758442856E+00 -0.13255274660E+01 -0.67202544581E+01  0.70984133748E+01  0.17770000000E+01 0.  1.
</event>
<event>
 6    1  0.8353910E-003  0.1879575E+03  0.7546771E-02  0.1064192E+00
        -11   -1    0    0    0    0  0.00000000000E+00  0.00000000000E+00  0.18250000000E+03  0.18250000000E+03  0.00000000000E+00 0. -1.
         11   -1    0    0    0    0 -0.00000000000E+00 -0.00000000000E+00 -0.18250000000E+03  0.18250000000E+03  0.00000000000E+00 0.  1.
        -11    1    1    2    0    0 -0.24255059121E+01 -0.51058393400E+01  0.17695226496E+03  0.17704252808E+03  0.00000000000E+00 0. -1.
         11    1    1    2    0    0 -0.36363245536E+00  0.23343037476E+01 -0.15146505128E+03  0.15148347422E+03  0.00000000000E+00 0.  1.
        -15    1    1    2    0    0  0.64485751202E+01  0.70143025635E+01  0.62103016158E+00  0.97122586969E+01  0.17770000000E+01 0.  1.
         15    1    1    2    0    0 -0.36594367528E+01 -0.42427669710E+01 -0.26108243839E+02  0.26761739000E+02  0.17770000000E+01 0. -1.
</event>
<event>
 6    1  0.8353910E-003  0.1826321E+03  0.7546771E-02  0.1068350E+00
        -11   -1    0    0    0    0  0.00000000000E+00  0.00000000000E+00  0.18250000000E+03  0.18250000000E+03  0.00000000000E+00 0.  1.
         11   -1    0    0    0    0 -0.00000000000E+00 -0.00000000000E+00 -0.18250000000E+03  0.18250000000E+03  0.00000000000E+00 0.  1.
        -11    1    1    2    0    0 -0.17622461253E+01 -0.19607575215E+01  0.10772293543E+03  0.10775518967E+03  0.00000000000E+00 0.  1.
         11    1    1    2    0    0  0.18983953315E+01  0.23336913126E+01 -0.18234305646E+03  0.18236787068E+03  0.00000000000E+00 0.  1.
        -15    1    1    2    0    0  0.20604403219E+01  0.11638246086E+01  0.38820556025E+02  0.38933188941E+02  0.17770000000E+01 0.  1.
         15    1    1    2    0    0 -0.21965895281E+01 -0.15367583997E+01  0.35799564997E+02  0.35943750707E+02  0.17770000000E+01 0.  1.
</event>
<event>
 6    1  0.8353910E-003  0.1832702E+03  0.7546771E-02  0.1067843E+00
        -11   -1    0    0    0    0  0.00000000000E+00  0.00000000000E+00  0.18250000000E+03  0.18250000000E+03  0.00000000000E+00 0.  1.
         11   -1    0    0    0    0 -0.00000000000E+00 -0.00000000000E+00 -0.18250000000E+03  0.18250000000E+03  0.00000000000E+00 0. -1.
        -11    1    1    2    0    0  0.13638600187E+01  0.24204105820E+01  0.14663080862E+03  0.14665712577E+03  0.00000000000E+00 0.  1.
         11    1    1    2    0    0  0.27117899675E+01 -0.50401801318E+01 -0.18163969555E+03  0.18172984405E+03  0.00000000000E+00 0. -1.
        -15    1    1    2    0    0 -0.23651321314E+01 -0.29351926737E+01  0.19816780284E+02  0.20250227551E+02  0.17770000000E+01 0.  1.
         15    1    1    2    0    0 -0.17105178549E+01  0.55549622234E+01  0.15192106645E+02  0.16362802631E+02  0.17770000000E+01 0. -1.
</event>
<event>
 6    1  0.8361044E-003  0.1877025E+03  0.7546771E-02  0.1064387E+00
        -11   -1    0    0    0    0  0.00000000000E+00  0.00000000000E+00  0.18250000000E+03  0.18250000000E+03  0.00000000000E+00 0.  1.
         11   -1    0    0    0    0 -0.00000000000E+00 -0.00000000000E+00 -0.18250000000E+03  0.18250000000E+03  0.00000000000E+00 0.  1.
        -11    1    1    2    0    0 -0.15523222913E+01 -0.23922683398E+01  0.17727458270E+03  0.17729751923E+03  0.00000000000E+00 0.  1.
         11    1    1    2    0    0  0.20686613301E+01  0.34437500594E+01 -0.15066512449E+03  0.15071867340E+03  0.00000000000E+00 0.  1.
        -15    1    1    2    0    0  0.28328452250E+01 -0.19714168585E+00  0.45125731526E+01  0.56200464741E+01  0.17770000000E+01 0. -1.
         15    1    1    2    0    0 -0.33491842638E+01 -0.85434003380E+00 -0.31122031364E+02  0.31363760893E+02  0.17770000000E+01 0.  1.
</event>
<event>
 6    1  0.8353910E-003  0.1851756E+03  0.7546771E-02  0.1066345E+00
        -11   -1    0    0    0    0  0.00000000000E+00  0.00000000000E+00  0.18250000000E+03  0.18250000000E+03  0.00000000000E+00 0.  1.
         11   -1    0    0    0    0 -0.00000000000E+00 -0.00000000000E+00 -0.18250000000E+03  0.18250000000E+03  0.00000000000E+00 0. -1.
        -11    1    1    2    0    0  0.29061719643E+01  0.44760992629E+01  0.17059694799E+03  0.17068040299E+03  0.00000000000E+00 0.  1.
         11    1    1    2    0    0 -0.26725211706E+01  0.23680145223E+01 -0.17978891130E+03  0.17982436567E+03  0.00000000000E+00 0. -1.
        -15    1    1    2    0    0  0.33651620165E+01 -0.38149580364E+01  0.20600017025E+01  0.57688435783E+01  0.17770000000E+01 0. -1.
         15    1    1    2    0    0 -0.35988128103E+01 -0.30291557488E+01  0.71319615978E+01  0.87263877651E+01  0.17770000000E+01 0. -1.
</event>
<event>
 6    1  0.8353910E-003  0.1875060E+03  0.7546771E-02  0.1064538E+00
        -11   -1    0    0    0    0  0.00000000000E+00  0.00000000000E+00  0.18250000000E+03  0.18250000000E+03  0.00000000000E+00 0. -1.
         11   -1    0    0    0    0 -0.00000000000E+00 -0.00000000000E+00 -0.18250000000E+03  0.18250000000E+03  0.00000000000E+00 0. -1.
        -11    1    1    2    0    0  0.35011662909E+01 -0.53198634635E+01  0.17737971196E+03  0.17749400364E+03  0.00000000000E+00 0. -1.
         11    1    1    2    0    0 -0.67921472141E+01  0.14961181809E+01 -0.11158829312E+03  0.11180482456E+03  0.00000000000E+00 0. -1.
        -15    1    1    2    0    0 -0.26458017958E+01 -0.15979458011E+02 -0.23537807818E+02  0.28627425161E+02  0.17770000000E+01 0.  1.
         15    1    1    2    0    0  0.59367827189E+01  0.19803203293E+02 -0.42253611018E+02  0.47073746641E+02  0.17770000000E+01 0. -1.
</event>
<event>
 6    1  0.8353910E-003  0.1885610E+03  0.7546771E-02  0.1063730E+00
        -11   -1    0    0    0    0  0.00000000000E+00  0.00000000000E+00  0.18250000000E+03  0.18250000000E+03  0.00000000000E+00 0. -1.
         11   -1    0    0    0    0 -0.00000000000E+00 -0.00000000000E+00 -0.18250000000E+03  0.18250000000E+03  0.00000000000E+00 0. -1.
        -11    1    1    2    0    0  0.24645458023E+01 -0.18306467558E+01  0.17641225476E+03  0.17643896646E+03  0.00000000000E+00 0. -1.
         11    1    1    2    0    0 -0.82006126841E+01  0.29029437275E+01 -0.13597578557E+03  0.13625377570E+03  0.00000000000E+00 0. -1.
        -15    1    1    2    0    0  0.42768057300E+01 -0.16426565734E+02 -0.26037426465E+02  0.31132433811E+02  0.17770000000E+01 0.  1.
         15    1    1    2    0    0  0.14592611517E+01  0.15354268762E+02 -0.14399042733E+02  0.21174824036E+02  0.17770000000E+01 0. -1.
</event>
<event>
 6    1  0.8353910E-003  0.1826524E+03  0.7546771E-02  0.1068334E+00
        -11   -1    0    0    0    0  0.00000000000E+00  0.00000000000E+00  0.18250000000E+03  0.18250000000E+03  0.00000000000E+00 0. -1.
         11   -1    0    0    0    0 -0.00000000000E+00 -0.00000000000E+00 -0.18250000000E+03  0.18250000000E+03  0.00000000000E+00 0.  1.
        -11    1    1    2    0    0  0.21008648320E+01 -0.22246834902E+01  0.18232195074E+03  0.18234762563E+03  0.00000000000E+00 0. -1.
         11    1    1    2    0    0  0.14996366251E+01  0.15871922614E+01 -0.11069765220E+03  0.11071918665E+03  0.00000000000E+00 0.  1.
        -15    1    1    2    0    0 -0.65033144556E+00  0.21213353168E+01 -0.25963476109E+02  0.26118629657E+02  0.17770000000E+01 0. -1.
         15    1    1    2    0    0 -0.29501700115E+01 -0.14838440880E+01 -0.45660822434E+02  0.45814558065E+02  0.17770000000E+01 0.  1.
</event>
<event>
 6    1  0.8353910E-003  0.1842187E+03  0.7546771E-02  0.1067095E+00
        -11   -1    0    0    0    0  0.00000000000E+00  0.00000000000E+00  0.18250000000E+03  0.18250000000E+03  0.00000000000E+00 0. -1.
         11   -1    0    0    0    0 -0.00000000000E+00 -0.00000000000E+00 -0.18250000000E+03  0.18250000000E+03  0.00000000000E+00 0.  1.
        -11    1    1    2    0    0 -0.10229572196E+02  0.27833444829E+01  0.15838166662E+03  0.15873608120E+03  0.00000000000E+00 0. -1.
         11    1    1    2    0    0  0.24633877588E+01 -0.28915971757E+01 -0.18074142703E+03  0.18078134046E+03  0.00000000000E+00 0.  1.
        -15    1    1    2    0    0 -0.13359366462E+01  0.15005989557E+01  0.34025650281E+01  0.43326321929E+01  0.17770000000E+01 0.  1.
         15    1    1    2    0    0  0.91021210836E+01 -0.13923462629E+01  0.18957195384E+02  0.21149946151E+02  0.17770000000E+01 0. -1.
</event>
<event>
 6    1  0.8353910E-003  0.1717810E+03  0.7546771E-02  0.1077322E+00
        -11   -1    0    0    0    0  0.00000000000E+00  0.00000000000E+00  0.18250000000E+03  0.18250000000E+03  0.00000000000E+00 0. -1.
         11   -1    0    0    0    0 -0.00000000000E+00 -0.00000000000E+00 -0.18250000000E+03  0.18250000000E+03  0.00000000000E+00 0.  1.
        -11    1    1    2    0    0  0.76811077521E+01 -0.60295864561E+01  0.17080893418E+03  0.17108783511E+03  0.00000000000E+00 0. -1.
         11    1    1    2    0    0 -0.41448046011E+01  0.42217318804E+01 -0.17239930914E+03  0.17250079483E+03  0.00000000000E+00 0.  1.
        -15    1    1    2    0    0 -0.91010881030E+01  0.31307005866E+01  0.79985710655E+01  0.12639855969E+02  0.17770000000E+01 0. -1.
         15    1    1    2    0    0  0.55647849520E+01 -0.13228460109E+01 -0.64081961007E+01  0.87715140879E+01  0.17770000000E+01 0.  1.
</event>
<event>
 6    1  0.8353910E-003  0.1850951E+03  0.7546771E-02  0.1066408E+00
        -11   -1    0    0    0    0  0.00000000000E+00  0.00000000000E+00  0.18250000000E+03  0.18250000000E+03  0.00000000000E+00 0.  1.
         11   -1    0    0    0    0 -0.00000000000E+00 -0.00000000000E+00 -0.18250000000E+03  0.18250000000E+03  0.00000000000E+00 0. -1.
        -11    1    1    2    0    0 -0.29771519313E+01  0.12005081261E+01  0.17987625598E+03  0.17990489743E+03  0.00000000000E+00 0.  1.
         11    1    1    2    0    0  0.67280939911E+00 -0.23598658368E+01 -0.17788868132E+03  0.17790560581E+03  0.00000000000E+00 0. -1.
        -15    1    1    2    0    0  0.29877853663E+01 -0.12743477001E+01 -0.42467690669E+00  0.37267818464E+01  0.17770000000E+01 0.  1.
         15    1    1    2    0    0 -0.68344283409E+00  0.24337054108E+01 -0.15628977574E+01  0.34627149080E+01  0.17770000000E+01 0.  1.
</event>
<event>
 6    1  0.8353910E-003  0.1836925E+03  0.7546771E-02  0.1067510E+00
        -11   -1    0    0    0    0  0.00000000000E+00  0.00000000000E+00  0.18250000000E+03  0.18250000000E+03  0.00000000000E+00 0. -1.
         11   -1    0    0    0    0 -0.00000000000E+00 -0.00000000000E+00 -0.18250000000E+03  0.18250000000E+03  0.00000000000E+00 0. -1.
        -11    1    1    2    0    0  0.36716098054E+01  0.46848497833E+01  0.16395883303E+03  0.16406683840E+03  0.00000000000E+00 0. -1.
         11    1    1    2    0    0 -0.66142762216E+01 -0.64813045387E+01 -0.18107083175E+03  0.18130747935E+03  0.00000000000E+00 0. -1.
        -15    1    1    2    0    0  0.97540662595E+00 -0.31705717640E+01  0.89620706950E+01  0.97201020334E+01  0.17770000000E+01 0. -1.
         15    1    1    2    0    0  0.19672597902E+01  0.49670265194E+01  0.81499280259E+01  0.99055802129E+01  0.17770000000E+01 0.  1.
</event>
<event>
 6    1  0.8353910E-003  0.1842646E+03  0.7546771E-02  0.1067059E+00
        -11   -1    0    0    0    0  0.00000000000E+00  0.00000000000E+00  0.18250000000E+03  0.18250000000E+03  0.00000000000E+00 0. -1.
         11   -1    0    0    0    0 -0.00000000000E+00 -0.00000000000E+00 -0.18250000000E+03  0.18250000000E+03  0.00000000000E+00 0.  1.
        -11    1    1    2    0    0  0.32477350467E+01  0.82453470596E+00  0.18070429076E+03  0.18073535443E+03  0.00000000000E+00 0. -1.
         11    1    1    2    0    0 -0.27658247161E+01  0.20968179014E+01 -0.14299558202E+03  0.14303769751E+03  0.00000000000E+00 0.  1.
        -15    1    1    2    0    0 -0.33551053308E+01 -0.93462475261E+00 -0.37046428537E+02  0.37252192574E+02  0.17770000000E+01 0. -1.
         15    1    1    2    0    0  0.28731950002E+01 -0.19867278548E+01 -0.66228020455E+00  0.39747554827E+01  0.17770000000E+01 0.  1.
</event>
<event>
 6    1  0.8353910E-003  0.1833127E+03  0.7546771E-02  0.1067810E+00
        -11   -1    0    0    0    0  0.00000000000E+00  0.00000000000E+00  0.18250000000E+03  0.18250000000E+03  0.00000000000E+00 0. -1.
         11   -1    0    0    0    0 -0.00000000000E+00 -0.00000000000E+00 -0.18250000000E+03  0.18250000000E+03  0.00000000000E+00 0.  1.
        -11    1    1    2    0    0  0.32023904414E+01 -0.15366205698E+01  0.18165254291E+03  0.18168726663E+03  0.00000000000E+00 0. -1.
         11    1    1    2    0    0  0.11025291507E+01  0.12942634148E+01 -0.11899816145E+03  0.11901030677E+03  0.00000000000E+00 0.  1.
        -15    1    1    2    0    0  0.18829268306E+01 -0.40060839433E+01 -0.41728055675E+02  0.41999791445E+02  0.17770000000E+01 0. -1.
         15    1    1    2    0    0 -0.61878464227E+01  0.42484410984E+01 -0.20926325786E+02  0.22302635159E+02  0.17770000000E+01 0.  1.
</event>
<event>
 6    1  0.8353910E-003  0.1849654E+03  0.7546771E-02  0.1066509E+00
        -11   -1    0    0    0    0  0.00000000000E+00  0.00000000000E+00  0.18250000000E+03  0.18250000000E+03  0.00000000000E+00 0.  1.
         11   -1    0    0    0    0 -0.00000000000E+00 -0.00000000000E+00 -0.18250000000E+03  0.18250000000E+03  0.00000000000E+00 0. -1.
        -11    1    1    2    0    0  0.10350337918E+01  0.22359997222E+01  0.18001778845E+03  0.18003464986E+03  0.00000000000E+00 0.  1.
         11    1    1    2    0    0 -0.25456261236E+01  0.24517407865E+01 -0.17192506459E+03  0.17196138834E+03  0.00000000000E+00 0. -1.
        -15    1    1    2    0    0  0.38744741329E+01  0.40978744954E+00 -0.32380534130E+01  0.53686305950E+01  0.17770000000E+01 0.  1.
         15    1    1    2    0    0 -0.23638818011E+01 -0.50975279583E+01 -0.48546704520E+01  0.76353312078E+01  0.17770000000E+01 0. -1.
</event>
<event>
 6    1  0.8353910E-003  0.1826001E+03  0.7546771E-02  0.1068375E+00
        -11   -1    0    0    0    0  0.00000000000E+00  0.00000000000E+00  0.18250000000E+03  0.18250000000E+03  0.00000000000E+00 0. -1.
         11   -1    0    0    0    0 -0.00000000000E+00 -0.00000000000E+00 -0.18250000000E+03  0.18250000000E+03  0.00000000000E+00 0. -1.
        -11    1    1    2    0    0  0.12511589281E+01 -0.31607677740E+01  0.18236817785E+03  0.18239985785E+03  0.00000000000E+00 0. -1.
         11    1    1    2    0    0 -0.18913636446E+00  0.95723413069E+00 -0.58480829387E+02  0.58488968837E+02  0.00000000000E+00 0. -1.
        -15    1    1    2    0    0 -0.13589440522E+01  0.82516685919E+00 -0.14085162340E+02  0.14285557617E+02  0.17770000000E+01 0.  1.
         15    1    1    2    0    0  0.29692148861E+00  0.13783667841E+01 -0.10980218612E+03  0.10982561570E+03  0.17770000000E+01 0. -1.
</event>
<event>
 6    1  0.8353910E-003  0.1922633E+03  0.7546771E-02  0.1060938E+00
        -11   -1    0    0    0    0  0.00000000000E+00  0.00000000000E+00  0.18250000000E+03  0.18250000000E+03  0.00000000000E+00 0. -1.
         11   -1    0    0    0    0 -0.00000000000E+00 -0.00000000000E+00 -0.18250000000E+03  0.18250000000E+03  0.00000000000E+00 0. -1.
        -11    1    1    2    0    0 -0.23606945439E+01 -0.23564392398E+01  0.14446774098E+03  0.14450624162E+03  0.00000000000E+00 0. -1.
         11    1    1    2    0    0  0.10483398066E+02  0.45048058654E+01 -0.17235941364E+03  0.17273668511E+03  0.00000000000E+00 0. -1.
        -15    1    1    2    0    0  0.13625679035E+01 -0.36633761128E+01  0.35260496715E+02  0.35520941336E+02  0.17770000000E+01 0.  1.
         15    1    1    2    0    0 -0.94852714255E+01  0.15150094872E+01 -0.73688240518E+01  0.12236131932E+02  0.17770000000E+01 0. -1.
</event>
<event>
 6    1  0.8353910E-003  0.1652788E+03  0.7546771E-02  0.1083054E+00
        -11   -1    0    0    0    0  0.00000000000E+00  0.00000000000E+00  0.18250000000E+03  0.18250000000E+03  0.00000000000E+00 0. -1.
         11   -1    0    0    0    0 -0.00000000000E+00 -0.00000000000E+00 -0.18250000000E+03  0.18250000000E+03  0.00000000000E+00 0. -1.
        -11    1    1    2    0    0  0.45367006556E+01 -0.13904330280E+01  0.17003432255E+03  0.17010051676E+03  0.00000000000E+00 0. -1.
         11    1    1    2    0    0  0.11667655456E+02 -0.41470322312E+01 -0.16055921877E+03  0.16103600465E+03  0.00000000000E+00 0. -1.
        -15    1    1    2    0    0 -0.55107264365E+01 -0.51511897862E+01  0.76916215643E+01  0.10918865937E+02  0.17770000000E+01 0. -1.
         15    1    1    2    0    0 -0.10693629675E+02  0.10688655045E+02 -0.17166725340E+02  0.22944612662E+02  0.17770000000E+01 0.  1.
</event>
<event>
 6    1  0.8353910E-003  0.1843148E+03  0.7546771E-02  0.1067019E+00
        -11   -1    0    0    0    0  0.00000000000E+00  0.00000000000E+00  0.18250000000E+03  0.18250000000E+03  0.00000000000E+00 0.  1.
         11   -1    0    0    0    0 -0.00000000000E+00 -0.00000000000E+00 -0.18250000000E+03  0.18250000000E+03  0.00000000000E+00 0. -1.
        -11    1    1    2    0    0  0.17215072742E+01 -0.60671263995E+00  0.10481559284E+03  0.10483148473E+03  0.00000000000E+00 0.  1.
         11    1    1    2    0    0  0.15022041555E+01 -0.27114337809E+01 -0.18065860187E+03  0.18068519287E+03  0.00000000000E+00 0. -1.
        -15    1    1    2    0    0 -0.77313344422E+01 -0.13702695075E+01  0.70287751661E+02  0.70747275095E+02  0.17770000000E+01 0.  1.
         15    1    1    2    0    0  0.45076230126E+01  0.46884159284E+01  0.55552573706E+01  0.87360473095E+01  0.17770000000E+01 0. -1.
</event>
<event>
 6    1  0.8353910E-003  0.1836418E+03  0.7546771E-02  0.1067550E+00
        -11   -1    0    0    0    0  0.00000000000E+00  0.00000000000E+00  0.18250000000E+03  0.18250000000E+03  0.00000000000E+00 0.  1.
         11   -1    0    0    0    0 -0.00000000000E+00 -0.00000000000E+00 -0.18250000000E+03  0.18250000000E+03  0.00000000000E+00 0. -1.
        -11    1    1    2    0    0  0.21049270117E+01  0.10648913013E+00  0.62511019113E+02  0.62546539218E+02  0.00000000000E+00 0.  1.
         11    1    1    2    0    0  0.38791041718E+01  0.24229751233E+01 -0.18130048284E+03  0.18135816313E+03  0.00000000000E+00 0. -1.
        -15    1    1    2    0    0 -0.65008127215E+01 -0.21968615843E+01  0.98274671725E+01  0.12117079140E+02  0.17770000000E+01 0.  1.
         15    1    1    2    0    0  0.51678153802E+00 -0.33260266912E+00  0.10896199655E+03  0.10897821851E+03  0.17770000000E+01 0.  1.
</event>
<event>
 6    1  0.8353910E-003  0.1857492E+03  0.7546771E-02  0.1065897E+00
        -11   -1    0    0    0    0  0.00000000000E+00  0.00000000000E+00  0.18250000000E+03  0.18250000000E+03  0.00000000000E+00 0.  1.
         11   -1    0    0    0    0 -0.00000000000E+00 -0.00000000000E+00 -0.18250000000E+03  0.18250000000E+03  0.00000000000E+00 0. -1.
        -11    1    1    2    0    0  0.24338819012E+01  0.20536347145E+01  0.17922251108E+03  0.17925080104E+03  0.00000000000E+00 0.  1.
         11    1    1    2    0    0 -0.13159806598E+01 -0.51603298087E+01 -0.30749066332E+02  0.31206824400E+02  0.00000000000E+00 0. -1.
        -15    1    1    2    0    0 -0.70054084764E+01  0.17207463361E+02 -0.31902751035E+02  0.36961003718E+02  0.17770000000E+01 0.  1.
         15    1    1    2    0    0  0.58875072350E+01 -0.14100768266E+02 -0.11657069371E+03  0.11758137084E+03  0.17770000000E+01 0. -1.
</event>
<event>
 6    1  0.8353910E-003  0.1872016E+03  0.7546771E-02  0.1064773E+00
        -11   -1    0    0    0    0  0.00000000000E+00  0.00000000000E+00  0.18250000000E+03  0.18250000000E+03  0.00000000000E+00 0. -1.
         11   -1    0    0    0    0 -0.00000000000E+00 -0.00000000000E+00 -0.18250000000E+03  0.18250000000E+03  0.00000000000E+00 0.  1.
        -11    1    1    2    0    0 -0.40945812417E+01  0.27575033337E+01  0.17001130234E+03  0.17008295724E+03  0.00000000000E+00 0. -1.
         11    1    1    2    0    0 -0.11295364427E+01 -0.66607238912E+01 -0.17767000056E+03  0.17779839761E+03  0.00000000000E+00 0.  1.
        -15    1    1    2    0    0  0.51543538921E+01  0.83205646691E+01  0.28425999616E+01  0.10345881499E+02  0.17770000000E+01 0. -1.
         15    1    1    2    0    0  0.69763792307E-01 -0.44173441116E+01  0.48160982581E+01  0.67727636470E+01  0.17770000000E+01 0.  1.
</event>
<event>
 6    1  0.8353910E-003  0.1937654E+03  0.7546771E-02  0.1059825E+00
        -11   -1    0    0    0    0  0.00000000000E+00  0.00000000000E+00  0.18250000000E+03  0.18250000000E+03  0.00000000000E+00 0. -1.
         11   -1    0    0    0    0 -0.00000000000E+00 -0.00000000000E+00 -0.18250000000E+03  0.18250000000E+03  0.00000000000E+00 0. -1.
        -11    1    1    2    0    0 -0.20922942078E+02 -0.22195337817E+01  0.16993700388E+03  0.17123457923E+03  0.00000000000E+00 0. -1.
         11    1    1    2    0    0  0.77257145781E+00  0.40417122541E+01 -0.15604348621E+03  0.15609773186E+03  0.00000000000E+00 0. -1.
        -15    1    1    2    0    0  0.51018079864E+01 -0.49800571525E+01 -0.19785332659E+02  0.21105604265E+02  0.17770000000E+01 0. -1.
         15    1    1    2    0    0  0.15048562634E+02  0.31578786801E+01  0.58918149860E+01  0.16562084649E+02  0.17770000000E+01 0.  1.
</event>
<event>
 6    1  0.8353910E-003  0.1869111E+03  0.7546771E-02  0.1064997E+00
        -11   -1    0    0    0    0  0.00000000000E+00  0.00000000000E+00  0.18250000000E+03  0.18250000000E+03  0.00000000000E+00 0.  1.
         11   -1    0    0    0    0 -0.00000000000E+00 -0.00000000000E+00 -0.18250000000E+03  0.18250000000E+03  0.00000000000E+00 0. -1.
        -11    1    1    2    0    0  0.16490997950E+01 -0.32720472775E+01  0.16940903219E+03  0.16944865302E+03  0.00000000000E+00 0.  1.
         11    1    1    2    0    0 -0.27065060142E+01 -0.20229200973E+01 -0.17805680109E+03  0.17808885927E+03  0.00000000000E+00 0. -1.
        -15    1    1    2    0    0  0.46060800326E+01 -0.13762035597E-01 -0.16590956069E+01  0.52083096963E+01  0.17770000000E+01 0. -1.
         15    1    1    2    0    0 -0.35486738134E+01  0.53087294105E+01  0.10306864511E+02  0.12254178016E+02  0.17770000000E+01 0.  1.
</event>
<event>
 6    1  0.8353910E-003  0.1838814E+03  0.7546771E-02  0.1067361E+00
        -11   -1    0    0    0    0  0.00000000000E+00  0.00000000000E+00  0.18250000000E+03  0.18250000000E+03  0.00000000000E+00 0. -1.
         11   -1    0    0    0    0 -0.00000000000E+00 -0.00000000000E+00 -0.18250000000E+03  0.18250000000E+03  0.00000000000E+00 0. -1.
        -11    1    1    2    0    0  0.61315116756E+01 -0.21905483204E+01  0.10803030627E+03  0.10822634157E+03  0.00000000000E+00 0. -1.
         11    1    1    2    0    0  0.10433688351E+02  0.11370134081E+01 -0.18081426583E+03  0.18111861687E+03  0.00000000000E+00 0. -1.
        -15    1    1    2    0    0 -0.18496843155E+01 -0.41554339147E+01  0.15115513566E+02  0.15884755033E+02  0.17770000000E+01 0. -1.
         15    1    1    2    0    0 -0.14715515711E+02  0.52089688269E+01  0.57668445990E+02  0.59770286521E+02  0.17770000000E+01 0. -1.
</event>
<event>
 6    1  0.8353910E-003  0.1832114E+03  0.7546771E-02  0.1067890E+00
        -11   -1    0    0    0    0  0.00000000000E+00  0.00000000000E+00  0.18250000000E+03  0.18250000000E+03  0.00000000000E+00 0.  1.
         11   -1    0    0    0    0 -0.00000000000E+00 -0.00000000000E+00 -0.18250000000E+03  0.18250000000E+03  0.00000000000E+00 0. -1.
        -11    1    1    2    0    0  0.76076506765E+00 -0.27189309992E+01  0.18176671834E+03  0.18178864444E+03  0.00000000000E+00 0.  1.
         11    1    1    2    0    0 -0.26349504653E+01  0.15249082671E+00 -0.17342711907E+03  0.17344720190E+03  0.00000000000E+00 0. -1.
        -15    1    1    2    0    0  0.99335723606E+00  0.18716274775E+01 -0.60743384678E+01  0.66742089295E+01  0.17770000000E+01 0. -1.
         15    1    1    2    0    0  0.88082816156E+00  0.69481269501E+00 -0.22652608052E+01  0.30899447320E+01  0.17770000000E+01 0. -1.
</event>
<event>
 6    1  0.8353910E-003  0.1827026E+03  0.7546771E-02  0.1068294E+00
        -11   -1    0    0    0    0  0.00000000000E+00  0.00000000000E+00  0.18250000000E+03  0.18250000000E+03  0.00000000000E+00 0.  1.
         11   -1    0    0    0    0 -0.00000000000E+00 -0.00000000000E+00 -0.18250000000E+03  0.18250000000E+03  0.00000000000E+00 0.  1.
        -11    1    1    2    0    0 -0.95188691253E+00  0.13758136609E+01  0.10136041329E+03  0.10137421927E+03  0.00000000000E+00 0.  1.
         11    1    1    2    0    0 -0.27856087299E+01  0.23362384679E+01 -0.18226114878E+03  0.18229740530E+03  0.00000000000E+00 0.  1.
        -15    1    1    2    0    0  0.27783981681E+01  0.68761557791E+00  0.26654822387E+02  0.26866886627E+02  0.17770000000E+01 0. -1.
         15    1    1    2    0    0  0.95909747436E+00 -0.43996677067E+01  0.54245913106E+02  0.54461488794E+02  0.17770000000E+01 0.  1.
</event>
<event>
 6    1  0.8353910E-003  0.1838081E+03  0.7546771E-02  0.1067418E+00
        -11   -1    0    0    0    0  0.00000000000E+00  0.00000000000E+00  0.18250000000E+03  0.18250000000E+03  0.00000000000E+00 0. -1.
         11   -1    0    0    0    0 -0.00000000000E+00 -0.00000000000E+00 -0.18250000000E+03  0.18250000000E+03  0.00000000000E+00 0. -1.
        -11    1    1    2    0    0  0.42627827593E+01 -0.35296289500E+01  0.18110734854E+03  0.18119189080E+03  0.00000000000E+00 0. -1.
         11    1    1    2    0    0  0.16814902558E+01 -0.27550458371E+01 -0.13713112072E+03  0.13716909986E+03  0.00000000000E+00 0. -1.
        -15    1    1    2    0    0 -0.74842986874E+01  0.19930690614E+01 -0.12692064741E+02  0.14974421108E+02  0.17770000000E+01 0.  1.
         15    1    1    2    0    0  0.15400256723E+01  0.42916057257E+01 -0.31284163082E+02  0.31664588225E+02  0.17770000000E+01 0. -1.
</event>
<event>
 6    1  0.8353910E-003  0.1876976E+03  0.7546771E-02  0.1064391E+00
        -11   -1    0    0    0    0  0.00000000000E+00  0.00000000000E+00  0.18250000000E+03  0.18250000000E+03  0.00000000000E+00 0. -1.
         11   -1    0    0    0    0 -0.00000000000E+00 -0.00000000000E+00 -0.18250000000E+03  0.18250000000E+03  0.00000000000E+00 0.  1.
        -11    1    1    2    0    0  0.35155158623E+01 -0.15823344312E+01  0.16216769702E+03  0.16221351544E+03  0.00000000000E+00 0. -1.
         11    1    1    2    0    0 -0.16528367677E+00 -0.35044656275E+01 -0.17726773095E+03  0.17730244509E+03  0.00000000000E+00 0.  1.
        -15    1    1    2    0    0 -0.10926382748E+02  0.55237871145E+01  0.68780684073E+01  0.14154985625E+02  0.17770000000E+01 0. -1.
         15    1    1    2    0    0  0.75761505620E+01 -0.43698705578E+00  0.82219655176E+01  0.11329053844E+02  0.17770000000E+01 0.  1.
</event>
<event>
 6    1  0.8353910E-003  0.1834823E+03  0.7546771E-02  0.1067676E+00
        -11   -1    0    0    0    0  0.00000000000E+00  0.00000000000E+00  0.18250000000E+03  0.18250000000E+03  0.00000000000E+00 0. -1.
         11   -1    0    0    0    0 -0.00000000000E+00 -0.00000000000E+00 -0.18250000000E+03  0.18250000000E+03  0.00000000000E+00 0.  1.
        -11    1    1    2    0    0  0.27201330404E+01 -0.42323763860E+00  0.18149684323E+03  0.18151771912E+03  0.00000000000E+00 0. -1.
         11    1    1    2    0    0  0.78131028623E+00 -0.25518735136E+01 -0.17075675697E+03  0.17077761140E+03  0.00000000000E+00 0.  1.
        -15    1    1    2    0    0 -0.15471578530E+01 -0.51295801134E+00 -0.38036071920E+01  0.45035519332E+01  0.17770000000E+01 0.  1.
         15    1    1    2    0    0 -0.19542854736E+01  0.34880691635E+01 -0.69364790610E+01  0.82011175437E+01  0.17770000000E+01 0. -1.
</event>
<event>
 6    1  0.8353910E-003  0.1832293E+03  0.7546771E-02  0.1067876E+00
        -11   -1    0    0    0    0  0.00000000000E+00  0.00000000000E+00  0.18250000000E+03  0.18250000000E+03  0.00000000000E+00 0. -1.
         11   -1    0    0    0    0 -0.00000000000E+00 -0.00000000000E+00 -0.18250000000E+03  0.18250000000E+03  0.00000000000E+00 0.  1.
        -11    1    1    2    0    0 -0.22329644274E+01 -0.11657986609E+01  0.13580604361E+03  0.13582940292E+03  0.00000000000E+00 0. -1.
         11    1    1    2    0    0 -0.27613435617E+01  0.30885873255E+01 -0.18172350852E+03  0.18177072904E+03  0.00000000000E+00 0.  1.
        -15    1    1    2    0    0  0.43014915788E+01 -0.10136340583E+00  0.43719781742E+02  0.43966921076E+02  0.17770000000E+01 0. -1.
         15    1    1    2    0    0  0.69281641036E+00 -0.18214252588E+01  0.21976831687E+01  0.34329469646E+01  0.17770000000E+01 0.  1.
</event>
<event>
 6    1  0.8353910E-003  0.1973534E+03  0.7546771E-02  0.1057210E+00
        -11   -1    0    0    0    0  0.00000000000E+00  0.00000000000E+00  0.18250000000E+03  0.18250000000E+03  0.00000000000E+00 0. -1.
         11   -1    0    0    0    0 -0.00000000000E+00 -0.00000000000E+00 -0.18250000000E+03  0.18250000000E+03  0.00000000000E+00 0. -1.
        -11    1    1    2    0    0  0.33765488207E+00  0.11091879637E+02  0.16727894049E+03  0.16764661564E+03  0.00000000000E+00 0. -1.
         11    1    1    2    0    0  0.85651241992E+01  0.71004196527E+01 -0.15174384434E+03  0.15215114724E+03  0.00000000000E+00 0. -1.
        -15    1    1    2    0    0  0.11491789805E+02  0.25449432363E+01  0.55266408321E+00  0.11916422936E+02  0.17770000000E+01 0.  1.
         15    1    1    2    0    0 -0.20394568886E+02 -0.20737242526E+02 -0.16087760226E+02  0.33285814182E+02  0.17770000000E+01 0. -1.
</event>
<event>
 6    1  0.8353910E-003  0.1887278E+03  0.7546771E-02  0.1063603E+00
        -11   -1    0    0    0    0  0.00000000000E+00  0.00000000000E+00  0.18250000000E+03  0.18250000000E+03  0.00000000000E+00 0. -1.
         11   -1    0    0    0    0 -0.00000000000E+00 -0.00000000000E+00 -0.18250000000E+03  0.18250000000E+03  0.00000000000E+00 0. -1.
        -11    1    1    2    0    0 -0.56573782699E+01 -0.13845834139E+01  0.17617599888E+03  0.17627224848E+03  0.00000000000E+00 0. -1.
         11    1    1    2    0    0 -0.27153335878E+01  0.18165617843E+01 -0.16863724128E+03  0.16866888297E+03  0.00000000000E+00 0. -1.
        -15    1    1    2    0    0  0.73485985821E+01 -0.56361420362E+01  0.13806121150E+01  0.95305727522E+01  0.17770000000E+01 0. -1.
         15    1    1    2    0    0  0.10241132756E+01  0.52041636658E+01 -0.89193697145E+01  0.10528295805E+02  0.17770000000E+01 0.  1.
</event>
<event>
 6    1  0.8353910E-003  0.1832998E+03  0.7546771E-02  0.1067820E+00
        -11   -1    0    0    0    0  0.00000000000E+00  0.00000000000E+00  0.18250000000E+03  0.18250000000E+03  0.00000000000E+00 0.  1.
         11   -1    0    0    0    0 -0.00000000000E+00 -0.00000000000E+00 -0.18250000000E+03  0.18250000000E+03  0.00000000000E+00 0. -1.
        -11    1    1    2    0    0 -0.26414833654E+01 -0.26221592689E+01  0.12069284497E+03  0.12075022145E+03  0.00000000000E+00 0.  1.
         11    1    1    2    0    0 -0.52844050914E+01  0.16830437589E+01 -0.18161549217E+03  0.18170015016E+03  0.00000000000E+00 0. -1.
        -15    1    1    2    0    0  0.76435275041E+01  0.26351802029E+01  0.21332345352E+02  0.22882184656E+02  0.17770000000E+01 0. -1.
         15    1    1    2    0    0  0.28236095273E+00 -0.16960646928E+01  0.39590301846E+02  0.39667443735E+02  0.17770000000E+01 0.  1.
</event>
<event>
 6    1  0.8353910E-003  0.1919925E+03  0.7546771E-02  0.1061140E+00
        -11   -1    0    0    0    0  0.00000000000E+00  0.00000000000E+00  0.18250000000E+03  0.18250000000E+03  0.00000000000E+00 0.  1.
         11   -1    0    0    0    0 -0.00000000000E+00 -0.00000000000E+00 -0.18250000000E+03  0.18250000000E+03  0.00000000000E+00 0.  1.
        -11    1    1    2    0    0 -0.27758008381E+01  0.28802296379E+01  0.17296128971E+03  0.17300753895E+03  0.00000000000E+00 0.  1.
         11    1    1    2    0    0 -0.22912906970E+01  0.84212988996E+01 -0.10818137054E+03  0.10853283937E+03  0.00000000000E+00 0.  1.
        -15    1    1    2    0    0  0.14115373088E+02 -0.26625162561E+01  0.27713615039E+01  0.14736720253E+02  0.17770000000E+01 0. -1.
         15    1    1    2    0    0 -0.90482815531E+01 -0.86390122814E+01 -0.67551280673E+02  0.68722901437E+02  0.17770000000E+01 0.  1.
</event>
<event>
 6    1  0.8353910E-003  0.1829827E+03  0.7546771E-02  0.1068071E+00
        -11   -1    0    0    0    0  0.00000000000E+00  0.00000000000E+00  0.18250000000E+03  0.18250000000E+03  0.00000000000E+00 0. -1.
         11   -1    0    0    0    0 -0.00000000000E+00 -0.00000000000E+00 -0.18250000000E+03  0.18250000000E+03  0.00000000000E+00 0. -1.
        -11    1    1    2    0    0  0.64643264557E+01  0.11129743338E+01  0.10332404314E+03  0.10353204392E+03  0.00000000000E+00 0. -1.
         11    1    1    2    0    0  0.12833537009E+01 -0.40974145430E+01 -0.18196667967E+03  0.18201732970E+03  0.00000000000E+00 0. -1.
        -15    1    1    2    0    0 -0.75366934279E+01  0.17366753581E+01  0.72482207572E+02  0.72915334002E+02  0.17770000000E+01 0. -1.
         15    1    1    2    0    0 -0.21098672871E+00  0.12477648511E+01  0.61604289540E+01  0.65352923745E+01  0.17770000000E+01 0.  1.
</event>
<event>
 6    1  0.8353910E-003  0.1829851E+03  0.7546771E-02  0.1068069E+00
        -11   -1    0    0    0    0  0.00000000000E+00  0.00000000000E+00  0.18250000000E+03  0.18250000000E+03  0.00000000000E+00 0.  1.
         11   -1    0    0    0    0 -0.00000000000E+00 -0.00000000000E+00 -0.18250000000E+03  0.18250000000E+03  0.00000000000E+00 0. -1.
        -11    1    1    2    0    0 -0.29639676360E+01 -0.20321745156E+01  0.18197945145E+03  0.18201493232E+03  0.00000000000E+00 0.  1.
         11    1    1    2    0    0 -0.77757445962E+00 -0.24097309689E+01 -0.14843642768E+03  0.14845802264E+03  0.00000000000E+00 0. -1.
        -15    1    1    2    0    0 -0.81748162936E+00  0.14441394342E+01 -0.90661715974E+01  0.93865335110E+01  0.17770000000E+01 0.  1.
         15    1    1    2    0    0  0.45590237250E+01  0.29977660503E+01 -0.24476852172E+02  0.25140511527E+02  0.17770000000E+01 0. -1.
</event>
<event>
 6    1  0.8353910E-003  0.1832763E+03  0.7546771E-02  0.1067839E+00
        -11   -1    0    0    0    0  0.00000000000E+00  0.00000000000E+00  0.18250000000E+03  0.18250000000E+03  0.00000000000E+00 0.  1.
         11   -1    0    0    0    0 -0.00000000000E+00 -0.00000000000E+00 -0.18250000000E+03  0.18250000000E+03  0.00000000000E+00 0. -1.
        -11    1    1    2    0    0 -0.14762449505E+01 -0.19421957037E+01  0.10520273032E+03  0.10523101202E+03  0.00000000000E+00 0.  1.
         11    1    1    2    0    0  0.15478096590E+01  0.57496904939E+01 -0.18162616407E+03  0.18172374124E+03  0.00000000000E+00 0. -1.
        -15    1    1    2    0    0 -0.43968904553E+01 -0.54913779187E+01  0.66997700852E+02  0.67389446693E+02  0.17770000000E+01 0.  1.
         15    1    1    2    0    0  0.43253257468E+01  0.16838831285E+01  0.94257328932E+01  0.10655800053E+02  0.17770000000E+01 0. -1.
</event>
<event>
 6    1  0.8353910E-003  0.1841749E+03  0.7546771E-02  0.1067129E+00
        -11   -1    0    0    0    0  0.00000000000E+00  0.00000000000E+00  0.18250000000E+03  0.18250000000E+03  0.00000000000E+00 0.  1.
         11   -1    0    0    0    0 -0.00000000000E+00 -0.00000000000E+00 -0.18250000000E+03  0.18250000000E+03  0.00000000000E+00 0.  1.
        -11    1    1    2    0    0  0.43263177471E+01  0.21862872055E+01  0.15438807972E+03  0.15446415778E+03  0.00000000000E+00 0.  1.
         11    1    1    2    0    0  0.47155630549E+01  0.33851383452E+00 -0.18076330882E+03  0.18082512254E+03  0.00000000000E+00 0.  1.
        -15    1    1    2    0    0 -0.90122935770E+01 -0.44399392852E+01  0.15725873192E+02  0.18745541150E+02  0.17770000000E+01 0.  1.
         15    1    1    2    0    0 -0.29587224981E-01  0.19151382452E+01  0.10649355909E+02  0.10965178529E+02  0.17770000000E+01 0. -1.
</event>
<event>
 6    1  0.8353910E-003  0.1948133E+03  0.7546771E-02  0.1059055E+00
        -11   -1    0    0    0    0  0.00000000000E+00  0.00000000000E+00  0.18250000000E+03  0.18250000000E+03  0.00000000000E+00 0.  1.
         11   -1    0    0    0    0 -0.00000000000E+00 -0.00000000000E+00 -0.18250000000E+03  0.18250000000E+03  0.00000000000E+00 0.  1.
        -11    1    1    2    0    0 -0.19258791134E+01 -0.47690818048E+01  0.17010901386E+03  0.17018674962E+03  0.00000000000E+00 0.  1.
         11    1    1    2    0    0  0.45083509152E+01 -0.42862335754E+01 -0.15362641571E+03  0.15375230935E+03  0.00000000000E+00 0.  1.
        -15    1    1    2    0    0  0.41136240071E+00  0.88416465278E+01  0.10503648450E+02  0.13850209100E+02  0.17770000000E+01 0.  1.
         15    1    1    2    0    0 -0.29938342025E+01  0.21366885239E+00 -0.26986246600E+02  0.27210731930E+02  0.17770000000E+01 0. -1.
</event>
<event>
 6    1  0.8353910E-003  0.1858587E+03  0.7546771E-02  0.1065812E+00
        -11   -1    0    0    0    0  0.00000000000E+00  0.00000000000E+00  0.18250000000E+03  0.18250000000E+03  0.00000000000E+00 0.  1.
         11   -1    0    0    0    0 -0.00000000000E+00 -0.00000000000E+00 -0.18250000000E+03  0.18250000000E+03  0.00000000000E+00 0. -1.
        -11    1    1    2    0    0 -0.14895455363E+01 -0.32142543884E+01  0.17910628127E+03  0.17914131341E+03  0.00000000000E+00 0.  1.
         11    1    1    2    0    0  0.42155686878E+01 -0.58005881327E+01 -0.13540018135E+03  0.13558992201E+03  0.00000000000E+00 0. -1.
        -15    1    1    2    0    0 -0.30624777244E+01 -0.42092347498E+01 -0.32140576485E+02  0.32607833611E+02  0.17770000000E+01 0.  1.
         15    1    1    2    0    0  0.33645457286E+00  0.13224077271E+02 -0.11565523440E+02  0.17660930972E+02  0.17770000000E+01 0. -1.
</event>
<event>
 6    1  0.8353910E-003  0.1854870E+03  0.7546771E-02  0.1066102E+00
        -11   -1    0    0    0    0  0.00000000000E+00  0.00000000000E+00  0.18250000000E+03  0.18250000000E+03  0.00000000000E+00 0.  1.
         11   -1    0    0    0    0 -0.00000000000E+00 -0.00000000000E+00 -0.18250000000E+03  0.18250000000E+03  0.00000000000E+00 0. -1.
        -11    1    1    2    0    0  0.34121552944E+01 -0.12745897190E+02  0.17902739861E+03  0.17951298045E+03  0.00000000000E+00 0.  1.
         11    1    1    2    0    0 -0.19293233128E+01  0.20203767676E+01 -0.13151310195E+03  0.13154276945E+03  0.00000000000E+00 0. -1.
        -15    1    1    2    0    0 -0.16622763724E+01  0.13442871899E+02 -0.11711800933E+02  0.17994387395E+02  0.17770000000E+01 0. -1.
         15    1    1    2    0    0  0.17944439070E+00 -0.27173514759E+01 -0.35802495722E+02  0.35949862702E+02  0.17770000000E+01 0. -1.
</event>
<event>
 6    1  0.8353910E-003  0.1849745E+03  0.7546771E-02  0.1066502E+00
        -11   -1    0    0    0    0  0.00000000000E+00  0.00000000000E+00  0.18250000000E+03  0.18250000000E+03  0.00000000000E+00 0. -1.
         11   -1    0    0    0    0 -0.00000000000E+00 -0.00000000000E+00 -0.18250000000E+03  0.18250000000E+03  0.00000000000E+00 0.  1.
        -11    1    1    2    0    0 -0.20831533688E+01 -0.18512757886E+01  0.14602097992E+03  0.14604757214E+03  0.00000000000E+00 0. -1.
         11    1    1    2    0    0  0.25928785353E+01 -0.64246398682E+00 -0.18000565188E+03  0.18002547178E+03  0.00000000000E+00 0.  1.
        -15    1    1    2    0    0  0.64285735957E+01  0.32131020773E+01  0.46967640072E+01  0.87674343210E+01  0.17770000000E+01 0.  1.
         15    1    1    2    0    0 -0.69382987622E+01 -0.71936230186E+00  0.29287907954E+02  0.30159521766E+02  0.17770000000E+01 0. -1.
</event>
<event>
 6    1  0.8353910E-003  0.1731305E+03  0.7546771E-02  0.1076168E+00
        -11   -1    0    0    0    0  0.00000000000E+00  0.00000000000E+00  0.18250000000E+03  0.18250000000E+03  0.00000000000E+00 0. -1.
         11   -1    0    0    0    0 -0.00000000000E+00 -0.00000000000E+00 -0.18250000000E+03  0.18250000000E+03  0.00000000000E+00 0. -1.
        -11    1    1    2    0    0 -0.50184868087E+01  0.20058548751E+01  0.17209755414E+03  0.17218239400E+03  0.00000000000E+00 0. -1.
         11    1    1    2    0    0 -0.57737742250E+01  0.20064090313E+01 -0.17416892404E+03  0.17427614940E+03  0.00000000000E+00 0. -1.
        -15    1    1    2    0    0  0.52347967801E+01 -0.91235960606E+01  0.12838197969E+01  0.10744720782E+02  0.17770000000E+01 0. -1.
         15    1    1    2    0    0  0.55574642535E+01  0.51113321542E+01  0.78755011016E+00  0.77967358232E+01  0.17770000000E+01 0.  1.
</event>
<event>
 6    1  0.8353910E-003  0.1916231E+03  0.7546771E-02  0.1061416E+00
        -11   -1    0    0    0    0  0.00000000000E+00  0.00000000000E+00  0.18250000000E+03  0.18250000000E+03  0.00000000000E+00 0. -1.
         11   -1    0    0    0    0 -0.00000000000E+00 -0.00000000000E+00 -0.18250000000E+03  0.18250000000E+03  0.00000000000E+00 0.  1.
        -11    1    1    2    0    0  0.21935913604E+01  0.14974801499E+01  0.11045676849E+03  0.11048869623E+03  0.00000000000E+00 0. -1.
         11    1    1    2    0    0 -0.34987377605E+02  0.18028313300E+02 -0.16885031074E+03  0.17337694226E+03  0.00000000000E+00 0.  1.
        -15    1    1    2    0    0  0.21595002877E+02 -0.22804752393E+02  0.12671811469E+02  0.33913616969E+02  0.17770000000E+01 0.  1.
         15    1    1    2    0    0  0.11198783367E+02  0.32789589438E+01  0.45721730775E+02  0.47220744538E+02  0.17770000000E+01 0. -1.
</event>
<event>
 6    1  0.8353910E-003  0.1826510E+03  0.7546771E-02  0.1068335E+00
        -11   -1    0    0    0    0  0.00000000000E+00  0.00000000000E+00  0.18250000000E+03  0.18250000000E+03  0.00000000000E+00 0.  1.
         11   -1    0    0    0    0 -0.00000000000E+00 -0.00000000000E+00 -0.18250000000E+03  0.18250000000E+03  0.00000000000E+00 0. -1.
        -11    1    1    2    0    0 -0.15409782646E+01 -0.27747485865E+01  0.18232137535E+03  0.18234899987E+03  0.00000000000E+00 0.  1.
         11    1    1    2    0    0 -0.19163219288E+01  0.59881601470E+00 -0.12449617486E+03  0.12451236254E+03  0.00000000000E+00 0. -1.
        -15    1    1    2    0    0  0.10890837976E+00  0.80709390527E+00 -0.15745237886E+02  0.15866111896E+02  0.17770000000E+01 0. -1.
         15    1    1    2    0    0  0.33483918136E+01  0.13688386665E+01 -0.42079962604E+02  0.42272525697E+02  0.17770000000E+01 0. -1.
</event>
<event>
 6    1  0.8353910E-003  0.1835988E+03  0.7546771E-02  0.1067584E+00
        -11   -1    0    0    0    0  0.00000000000E+00  0.00000000000E+00  0.18250000000E+03  0.18250000000E+03  0.00000000000E+00 0. -1.
         11   -1    0    0    0    0 -0.00000000000E+00 -0.00000000000E+00 -0.18250000000E+03  0.18250000000E+03  0.00000000000E+00 0. -1.
        -11    1    1    2    0    0 -0.28474296277E+01  0.17351181671E+01  0.16191532895E+03  0.16194965959E+03  0.00000000000E+00 0. -1.
         11    1    1    2    0    0  0.51964612827E+00  0.35723128789E+01 -0.18136528190E+03  0.18140120432E+03  0.00000000000E+00 0. -1.
        -15    1    1    2    0    0 -0.21685787585E+01 -0.28321800387E+01  0.67882612739E+01  0.78716070612E+01  0.17770000000E+01 0. -1.
         15    1    1    2    0    0  0.44963622579E+01 -0.24752510073E+01  0.12661691671E+02  0.13777529027E+02  0.17770000000E+01 0.  1.
</event>
<event>
 6    1  0.8353910E-003  0.1862194E+03  0.7546771E-02  0.1065532E+00
        -11   -1    0    0    0    0  0.00000000000E+00  0.00000000000E+00  0.18250000000E+03  0.18250000000E+03  0.00000000000E+00 0.  1.
         11   -1    0    0    0    0 -0.00000000000E+00 -0.00000000000E+00 -0.18250000000E+03  0.18250000000E+03  0.00000000000E+00 0.  1.
        -11    1    1    2    0    0 -0.11712235934E+01 -0.36675998381E+01  0.92931178142E+02  0.93010896803E+02  0.00000000000E+00 0.  1.
         11    1    1    2    0    0  0.11892478379E+01  0.22645604604E+01 -0.17876228253E+03  0.17878058116E+03  0.00000000000E+00 0.  1.
        -15    1    1    2    0    0 -0.14950725735E+01 -0.38061616645E+00 -0.32870410022E+01  0.40425831118E+01  0.17770000000E+01 0.  1.
         15    1    1    2    0    0  0.14770483290E+01  0.17836555442E+01  0.89118145387E+02  0.89165938929E+02  0.17770000000E+01 0.  1.
</event>
<event>
 6    1  0.8353910E-003  0.1901856E+03  0.7546771E-02  0.1062496E+00
        -11   -1    0    0    0    0  0.00000000000E+00  0.00000000000E+00  0.18250000000E+03  0.18250000000E+03  0.00000000000E+00 0.  1.
         11   -1    0    0    0    0 -0.00000000000E+00 -0.00000000000E+00 -0.18250000000E+03  0.18250000000E+03  0.00000000000E+00 0. -1.
        -11    1    1    2    0    0  0.40728802596E+01 -0.61635940437E+00  0.17476582353E+03  0.17481436247E+03  0.00000000000E+00 0.  1.
         11    1    1    2    0    0 -0.20771646266E+01  0.23414091638E+01 -0.13098837393E+03  0.13102576431E+03  0.00000000000E+00 0. -1.
        -15    1    1    2    0    0 -0.33333692460E+01 -0.23309440881E+01 -0.51197715669E+02  0.51389770087E+02  0.17770000000E+01 0. -1.
         15    1    1    2    0    0  0.13376536129E+01  0.60589432864E+00  0.74202660669E+01  0.77701031286E+01  0.17770000000E+01 0.  1.
</event>
<event>
 6    1  0.8353910E-003  0.1844154E+03  0.7546771E-02  0.1066940E+00
        -11   -1    0    0    0    0  0.00000000000E+00  0.00000000000E+00  0.18250000000E+03  0.18250000000E+03  0.00000000000E+00 0. -1.
         11   -1    0    0    0    0 -0.00000000000E+00 -0.00000000000E+00 -0.18250000000E+03  0.18250000000E+03  0.00000000000E+00 0.  1.
        -11    1    1    2    0    0  0.49986152929E+01  0.87554483983E-01  0.18051539815E+03  0.18058461393E+03  0.00000000000E+00 0. -1.
         11    1    1    2    0    0  0.38700105645E+01 -0.26505517858E+01 -0.13581981560E+03  0.13590078998E+03  0.00000000000E+00 0.  1.
        -15    1    1    2    0    0  0.25512556215E+00 -0.17811033476E+01 -0.32408292729E+02  0.32506808284E+02  0.17770000000E+01 0. -1.
         15    1    1    2    0    0 -0.91237514195E+01  0.43441006494E+01 -0.12287289819E+02  0.16007787808E+02  0.17770000000E+01 0.  1.
</event>
<event>
 6    1  0.8353910E-003  0.2033830E+03  0.7546771E-02  0.1052949E+00
        -11   -1    0    0    0    0  0.00000000000E+00  0.00000000000E+00  0.18250000000E+03  0.18250000000E+03  0.00000000000E+00 0.  1.
         11   -1    0    0    0    0 -0.00000000000E+00 -0.00000000000E+00 -0.18250000000E+03  0.18250000000E+03  0.00000000000E+00 0. -1.
        -11    1    1    2    0    0 -0.28085997242E+00 -0.18053221387E+01  0.55147442985E+02  0.55177699646E+02  0.00000000000E+00 0.  1.
         11    1    1    2    0    0  0.10304503834E+02 -0.11429578973E+02 -0.16088269103E+03  0.16161701132E+03  0.00000000000E+00 0. -1.
        -15    1    1    2    0    0 -0.16912201247E+02  0.15840401850E+02 -0.14721590806E+02  0.27510431598E+02  0.17770000000E+01 0. -1.
         15    1    1    2    0    0  0.68885573856E+01 -0.26055007383E+01  0.12045683885E+03  0.12069485744E+03  0.17770000000E+01 0.  1.
</event>
<event>
 6    1  0.8353910E-003  0.1831762E+03  0.7546771E-02  0.1067918E+00
        -11   -1    0    0    0    0  0.00000000000E+00  0.00000000000E+00  0.18250000000E+03  0.18250000000E+03  0.00000000000E+00 0.  1.
         11   -1    0    0    0    0 -0.00000000000E+00 -0.00000000000E+00 -0.18250000000E+03  0.18250000000E+03  0.00000000000E+00 0. -1.
        -11    1    1    2    0    0  0.36103269476E+01 -0.66892822329E+01  0.18166488038E+03  0.18182384255E+03  0.00000000000E+00 0.  1.
         11    1    1    2    0    0 -0.54446391547E+01 -0.10314785035E+01 -0.12700214906E+03  0.12712298734E+03  0.00000000000E+00 0. -1.
        -15    1    1    2    0    0  0.47363104015E+01  0.66978967346E+01 -0.44563863155E+02  0.45347437471E+02  0.17770000000E+01 0.  1.
         15    1    1    2    0    0 -0.29019981944E+01  0.10228640018E+01 -0.10098868160E+02  0.10705732642E+02  0.17770000000E+01 0. -1.
</event>
<event>
 6    1  0.8353910E-003  0.1832989E+03  0.7546771E-02  0.1067821E+00
        -11   -1    0    0    0    0  0.00000000000E+00  0.00000000000E+00  0.18250000000E+03  0.18250000000E+03  0.00000000000E+00 0.  1.
         11   -1    0    0    0    0 -0.00000000000E+00 -0.00000000000E+00 -0.18250000000E+03  0.18250000000E+03  0.00000000000E+00 0. -1.
        -11    1    1    2    0    0  0.26171823893E+01 -0.48371074754E+00  0.18168164144E+03  0.18170113499E+03  0.00000000000E+00 0.  1.
         11    1    1    2    0    0 -0.31233559778E+00 -0.25096403108E+01 -0.16028051319E+03  0.16030046400E+03  0.00000000000E+00 0. -1.
        -15    1    1    2    0    0 -0.30235249752E+01  0.12160078697E+01 -0.42226680977E+01  0.56221911456E+01  0.17770000000E+01 0. -1.
         15    1    1    2    0    0  0.71867818367E+00  0.17773431886E+01 -0.17178460152E+02  0.17376209867E+02  0.17770000000E+01 0.  1.
</event>
<event>
 6    1  0.8353910E-003  0.1506925E+03  0.7546771E-02  0.1097035E+00
        -11   -1    0    0    0    0  0.00000000000E+00  0.00000000000E+00  0.18250000000E+03  0.18250000000E+03  0.00000000000E+00 0. -1.
         11   -1    0    0    0    0 -0.00000000000E+00 -0.00000000000E+00 -0.18250000000E+03  0.18250000000E+03  0.00000000000E+00 0.  1.
        -11    1    1    2    0    0 -0.19063925662E+01 -0.43652381531E+01  0.15429210560E+03  0.15436561628E+03  0.00000000000E+00 0. -1.
         11    1    1    2    0    0  0.15209630621E+02 -0.62485034773E+01 -0.14667680301E+03  0.14759560021E+03  0.00000000000E+00 0.  1.
        -15    1    1    2    0    0 -0.56720522269E+01  0.35753493020E+02 -0.42957023251E+01  0.36497879761E+02  0.17770000000E+01 0. -1.
         15    1    1    2    0    0 -0.76311858279E+01 -0.25139751390E+02 -0.33196002663E+01  0.26540903752E+02  0.17770000000E+01 0.  1.
</event>
<event>
 6    1  0.9667025E-003  0.1833544E+03  0.7546771E-02  0.1067777E+00
        -11   -1    0    0    0    0  0.00000000000E+00  0.00000000000E+00  0.18250000000E+03  0.18250000000E+03  0.00000000000E+00 0.  1.
         11   -1    0    0    0    0 -0.00000000000E+00 -0.00000000000E+00 -0.18250000000E+03  0.18250000000E+03  0.00000000000E+00 0.  1.
        -11    1    1    2    0    0 -0.23254938510E+01 -0.10614158838E+01  0.18162764186E+03  0.18164562977E+03  0.00000000000E+00 0.  1.
         11    1    1    2    0    0  0.33705315322E+01  0.14116573105E+01 -0.12175385618E+03  0.12180868095E+03  0.00000000000E+00 0.  1.
        -15    1    1    2    0    0  0.69027601689E+00 -0.46943535777E+00 -0.37973317663E+00  0.19996941816E+01  0.17770000000E+01 0. -1.
         15    1    1    2    0    0 -0.17353136981E+01  0.11919393115E+00 -0.59494052500E+02  0.59545995102E+02  0.17770000000E+01 0.  1.
</event>
<event>
 6    1  0.8353910E-003  0.1882083E+03  0.7546771E-02  0.1064000E+00
        -11   -1    0    0    0    0  0.00000000000E+00  0.00000000000E+00  0.18250000000E+03  0.18250000000E+03  0.00000000000E+00 0. -1.
         11   -1    0    0    0    0 -0.00000000000E+00 -0.00000000000E+00 -0.18250000000E+03  0.18250000000E+03  0.00000000000E+00 0.  1.
        -11    1    1    2    0    0  0.55329389548E+00  0.27398271855E+01  0.16084699954E+03  0.16087128410E+03  0.00000000000E+00 0. -1.
         11    1    1    2    0    0  0.63126240384E+01  0.58993180090E+01 -0.17658040688E+03  0.17679166063E+03  0.00000000000E+00 0.  1.
        -15    1    1    2    0    0 -0.30516804145E+01  0.96986328793E+00  0.16421182881E+02  0.16824576202E+02  0.17770000000E+01 0.  1.
         15    1    1    2    0    0 -0.38142375193E+01 -0.96090084824E+01 -0.68777554608E+00  0.10512479064E+02  0.17770000000E+01 0. -1.
</event>
<event>
 6    1  0.1238715E-002  0.1839206E+03  0.7546771E-02  0.1067330E+00
        -11   -1    0    0    0    0  0.00000000000E+00  0.00000000000E+00  0.18250000000E+03  0.18250000000E+03  0.00000000000E+00 0.  1.
         11   -1    0    0    0    0 -0.00000000000E+00 -0.00000000000E+00 -0.18250000000E+03  0.18250000000E+03  0.00000000000E+00 0.  1.
        -11    1    1    2    0    0  0.11549930769E+01  0.30267231192E+01  0.18105041691E+03  0.18107939840E+03  0.00000000000E+00 0.  1.
         11    1    1    2    0    0  0.15430139200E+01  0.61395072116E+01 -0.13500241664E+03  0.13515075634E+03  0.00000000000E+00 0.  1.
        -15    1    1    2    0    0 -0.35147040039E+00 -0.86249349543E+01 -0.44568112413E+02  0.45431128177E+02  0.17770000000E+01 0. -1.
         15    1    1    2    0    0 -0.23465365965E+01 -0.54129537651E+00 -0.14798878626E+01  0.33387170843E+01  0.17770000000E+01 0.  1.
</event>
<event>
 6    1  0.8353910E-003  0.1828659E+03  0.7546771E-02  0.1068164E+00
        -11   -1    0    0    0    0  0.00000000000E+00  0.00000000000E+00  0.18250000000E+03  0.18250000000E+03  0.00000000000E+00 0.  1.
         11   -1    0    0    0    0 -0.00000000000E+00 -0.00000000000E+00 -0.18250000000E+03  0.18250000000E+03  0.00000000000E+00 0.  1.
        -11    1    1    2    0    0  0.12090956576E+01 -0.13781392363E+01  0.10032341913E+03  0.10034016945E+03  0.00000000000E+00 0.  1.
         11    1    1    2    0    0  0.29684480116E+01  0.13198972829E+01 -0.18210512907E+03  0.18213410402E+03  0.00000000000E+00 0.  1.
        -15    1    1    2    0    0 -0.25732336206E+01  0.23662546145E+01  0.11217671038E+02  0.11883373456E+02  0.17770000000E+01 0. -1.
         15    1    1    2    0    0 -0.16043100486E+01 -0.23080126611E+01  0.70564038899E+02  0.70642353074E+02  0.17770000000E+01 0.  1.
</event>
<event>
 6    1  0.8353910E-003  0.1835003E+03  0.7546771E-02  0.1067661E+00
        -11   -1    0    0    0    0  0.00000000000E+00  0.00000000000E+00  0.18250000000E+03  0.18250000000E+03  0.00000000000E+00 0.  1.
         11   -1    0    0    0    0 -0.00000000000E+00 -0.00000000000E+00 -0.18250000000E+03  0.18250000000E+03  0.00000000000E+00 0.  1.
        -11    1    1    2    0    0 -0.25600606534E+01 -0.79074350920E+00  0.14683078683E+03  0.14685523194E+03  0.00000000000E+00 0.  1.
         11    1    1    2    0    0  0.23926890859E+01  0.22454971349E+01 -0.18147006632E+03  0.18149973054E+03  0.00000000000E+00 0.  1.
        -15    1    1    2    0    0  0.84771157508E+00  0.30608377415E+01  0.28769440679E+02  0.28998720464E+02  0.17770000000E+01 0.  1.
         15    1    1    2    0    0 -0.68034000758E+00 -0.45155913671E+01  0.58698388062E+01  0.76463170567E+01  0.17770000000E+01 0.  1.
</event>
<event>
 6    1  0.8353910E-003  0.1825639E+03  0.7546771E-02  0.1068404E+00
        -11   -1    0    0    0    0  0.00000000000E+00  0.00000000000E+00  0.18250000000E+03  0.18250000000E+03  0.00000000000E+00 0.  1.
         11   -1    0    0    0    0 -0.00000000000E+00 -0.00000000000E+00 -0.18250000000E+03  0.18250000000E+03  0.00000000000E+00 0.  1.
        -11    1    1    2    0    0 -0.88449771021E+00  0.96375178501E+00  0.92236142357E+02  0.92245417829E+02  0.00000000000E+00 0.  1.
         11    1    1    2    0    0  0.44514571279E+01 -0.24662350164E+00 -0.18238157531E+03  0.18243605814E+03  0.00000000000E+00 0.  1.
        -15    1    1    2    0    0 -0.15408058252E+01 -0.13816481745E+01  0.52559888456E+02  0.52630624524E+02  0.17770000000E+01 0. -1.
         15    1    1    2    0    0 -0.20261535925E+01  0.66451989112E+00  0.37585544502E+02  0.37687899512E+02  0.17770000000E+01 0.  1.
</event>
<event>
 6    1  0.8353910E-003  0.1832738E+03  0.7546771E-02  0.1067840E+00
        -11   -1    0    0    0    0  0.00000000000E+00  0.00000000000E+00  0.18250000000E+03  0.18250000000E+03  0.00000000000E+00 0. -1.
         11   -1    0    0    0    0 -0.00000000000E+00 -0.00000000000E+00 -0.18250000000E+03  0.18250000000E+03  0.00000000000E+00 0.  1.
        -11    1    1    2    0    0  0.38950745354E+01 -0.34341579090E+00  0.11780588502E+03  0.11787076010E+03  0.00000000000E+00 0. -1.
         11    1    1    2    0    0 -0.35856347817E+01 -0.20539858151E+01 -0.18167917208E+03  0.18172615993E+03  0.00000000000E+00 0.  1.
        -15    1    1    2    0    0 -0.66261527685E+01  0.52140377666E+00  0.24726835659E+02  0.25666162415E+02  0.17770000000E+01 0.  1.
         15    1    1    2    0    0  0.63167130147E+01  0.18759978293E+01  0.39146451399E+02  0.39736917562E+02  0.17770000000E+01 0.  1.
</event>
<event>
 6    1  0.8353910E-003  0.1856956E+03  0.7546771E-02  0.1065939E+00
        -11   -1    0    0    0    0  0.00000000000E+00  0.00000000000E+00  0.18250000000E+03  0.18250000000E+03  0.00000000000E+00 0. -1.
         11   -1    0    0    0    0 -0.00000000000E+00 -0.00000000000E+00 -0.18250000000E+03  0.18250000000E+03  0.00000000000E+00 0. -1.
        -11    1    1    2    0    0  0.47822771169E+01  0.25302766954E+00  0.17924041166E+03  0.17930437632E+03  0.00000000000E+00 0. -1.
         11    1    1    2    0    0  0.11510467686E+02  0.24976087078E+01 -0.14681502480E+03  0.14728672861E+03  0.00000000000E+00 0. -1.
        -15    1    1    2    0    0 -0.23633909553E+01 -0.23638532122E+01 -0.89385675693E+00  0.38897464851E+01  0.17770000000E+01 0.  1.
         15    1    1    2    0    0 -0.13929353848E+02 -0.38678316511E+00 -0.31531530096E+02  0.34519148585E+02  0.17770000000E+01 0. -1.
</event>
<event>
 6    1  0.8353910E-003  0.1829144E+03  0.7546771E-02  0.1068125E+00
        -11   -1    0    0    0    0  0.00000000000E+00  0.00000000000E+00  0.18250000000E+03  0.18250000000E+03  0.00000000000E+00 0. -1.
         11   -1    0    0    0    0 -0.00000000000E+00 -0.00000000000E+00 -0.18250000000E+03  0.18250000000E+03  0.00000000000E+00 0. -1.
        -11    1    1    2    0    0  0.37425406738E+01 -0.37656436970E+00  0.18204676888E+03  0.18208562401E+03  0.00000000000E+00 0. -1.
         11    1    1    2    0    0 -0.60012431839E+00  0.96817910672E+00 -0.34014164427E+02  0.34033232313E+02  0.00000000000E+00 0. -1.
        -15    1    1    2    0    0  0.26467244283E+00 -0.57174580707E+01 -0.26052751770E+02  0.26733181294E+02  0.17770000000E+01 0.  1.
         15    1    1    2    0    0 -0.34070887982E+01  0.51258433337E+01 -0.12197985268E+03  0.12214796238E+03  0.17770000000E+01 0. -1.
</event>
<event>
 6    1  0.8353910E-003  0.1643379E+03  0.7546771E-02  0.1083908E+00
        -11   -1    0    0    0    0  0.00000000000E+00  0.00000000000E+00  0.18250000000E+03  0.18250000000E+03  0.00000000000E+00 0.  1.
         11   -1    0    0    0    0 -0.00000000000E+00 -0.00000000000E+00 -0.18250000000E+03  0.18250000000E+03  0.00000000000E+00 0. -1.
        -11    1    1    2    0    0 -0.81533596822E+01  0.66225012967E+01  0.16597242523E+03  0.16630448200E+03  0.00000000000E+00 0.  1.
         11    1    1    2    0    0 -0.11548909779E+02 -0.68853372182E+01 -0.16242496324E+03  0.16298053218E+03  0.00000000000E+00 0. -1.
        -15    1    1    2    0    0  0.87962775153E+01 -0.64331187058E+01  0.11458788360E+02  0.15912921607E+02  0.17770000000E+01 0. -1.
         15    1    1    2    0    0  0.10905991946E+02  0.66959546273E+01 -0.15006250343E+02  0.19802064212E+02  0.17770000000E+01 0. -1.
</event>
<event>
 6    1  0.8353910E-003  0.1832235E+03  0.7546771E-02  0.1067880E+00
        -11   -1    0    0    0    0  0.00000000000E+00  0.00000000000E+00  0.18250000000E+03  0.18250000000E+03  0.00000000000E+00 0.  1.
         11   -1    0    0    0    0 -0.00000000000E+00 -0.00000000000E+00 -0.18250000000E+03  0.18250000000E+03  0.00000000000E+00 0. -1.
        -11    1    1    2    0    0 -0.50999166054E+01  0.61206041651E+01  0.18160182484E+03  0.18177649388E+03  0.00000000000E+00 0.  1.
         11    1    1    2    0    0  0.21261338432E+01  0.65882256700E+00 -0.58361092986E+02  0.58403524438E+02  0.00000000000E+00 0. -1.
        -15    1    1    2    0    0  0.17344300069E+01 -0.79223769496E+01 -0.21463796953E+02  0.23013574529E+02  0.17770000000E+01 0.  1.
         15    1    1    2    0    0  0.12393527553E+01  0.11429502175E+01 -0.10177693490E+03  0.10180640715E+03  0.17770000000E+01 0. -1.
</event>
<event>
 6    1  0.8353910E-003  0.1867795E+03  0.7546771E-02  0.1065098E+00
        -11   -1    0    0    0    0  0.00000000000E+00  0.00000000000E+00  0.18250000000E+03  0.18250000000E+03  0.00000000000E+00 0. -1.
         11   -1    0    0    0    0 -0.00000000000E+00 -0.00000000000E+00 -0.18250000000E+03  0.18250000000E+03  0.00000000000E+00 0. -1.
        -11    1    1    2    0    0 -0.87410146611E+01 -0.16155419879E+02  0.17727142795E+03  0.17822054342E+03  0.00000000000E+00 0. -1.
         11    1    1    2    0    0 -0.34855582276E+01 -0.45774419164E+00 -0.12593187749E+03  0.12598093670E+03  0.00000000000E+00 0. -1.
        -15    1    1    2    0    0  0.11831471533E+02  0.56325043166E+01 -0.47045085553E+02  0.48868257870E+02  0.17770000000E+01 0. -1.
         15    1    1    2    0    0  0.39510135603E+00  0.10980659754E+02 -0.42944649109E+01  0.11930262009E+02  0.17770000000E+01 0.  1.
</event>
<event>
 6    1  0.8353910E-003  0.1826236E+03  0.7546771E-02  0.1068356E+00
        -11   -1    0    0    0    0  0.00000000000E+00  0.00000000000E+00  0.18250000000E+03  0.18250000000E+03  0.00000000000E+00 0. -1.
         11   -1    0    0    0    0 -0.00000000000E+00 -0.00000000000E+00 -0.18250000000E+03  0.18250000000E+03  0.00000000000E+00 0.  1.
        -11    1    1    2    0    0  0.87056325361E+00  0.97183294353E+00  0.35183223022E+02  0.35207407202E+02  0.00000000000E+00 0. -1.
         11    1    1    2    0    0 -0.18662493496E-01  0.30463264371E+01 -0.18235092157E+03  0.18237636648E+03  0.00000000000E+00 0.  1.
        -15    1    1    2    0    0 -0.12579081286E+01 -0.22466549970E+01  0.13199664407E+03  0.13203371374E+03  0.17770000000E+01 0. -1.
         15    1    1    2    0    0  0.40600736848E+00 -0.17715043836E+01  0.15171054486E+02  0.15382512570E+02  0.17770000000E+01 0.  1.
</event>
<event>
 6    1  0.8353910E-003  0.1846354E+03  0.7546771E-02  0.1066768E+00
        -11   -1    0    0    0    0  0.00000000000E+00  0.00000000000E+00  0.18250000000E+03  0.18250000000E+03  0.00000000000E+00 0.  1.
         11   -1    0    0    0    0 -0.00000000000E+00 -0.00000000000E+00 -0.18250000000E+03  0.18250000000E+03  0.00000000000E+00 0.  1.
        -11    1    1    2    0    0  0.20936655154E+01 -0.36556288613E+01  0.18031538149E+03  0.18036458593E+03  0.00000000000E+00 0.  1.
         11    1    1    2    0    0  0.99975736644E+00 -0.14109779210E+01 -0.14274237627E+02  0.14378603316E+02  0.00000000000E+00 0.  1.
        -15    1    1    2    0    0  0.14303128779E+01  0.14577141243E+02 -0.15148913961E+03  0.15220596569E+03  0.17770000000E+01 0.  1.
         15    1    1    2    0    0 -0.45237357598E+01 -0.95105344606E+01 -0.14552004249E+02  0.18050845067E+02  0.17770000000E+01 0. -1.
</event>
<event>
 6    1  0.8353910E-003  0.1881944E+03  0.7546771E-02  0.1064010E+00
        -11   -1    0    0    0    0  0.00000000000E+00  0.00000000000E+00  0.18250000000E+03  0.18250000000E+03  0.00000000000E+00 0.  1.
         11   -1    0    0    0    0 -0.00000000000E+00 -0.00000000000E+00 -0.18250000000E+03  0.18250000000E+03  0.00000000000E+00 0.  1.
        -11    1    1    2    0    0 -0.23534283664E+01  0.24462781943E+01  0.15843457045E+03  0.15847093114E+03  0.00000000000E+00 0.  1.
         11    1    1    2    0    0  0.17070549745E+01  0.66477443795E+01 -0.17667235689E+03  0.17680562274E+03  0.00000000000E+00 0.  1.
        -15    1    1    2    0    0  0.13891093571E+01 -0.66988456290E+01  0.22996621858E+02  0.24058397773E+02  0.17770000000E+01 0.  1.
         15    1    1    2    0    0 -0.74273596521E+00 -0.23951769448E+01 -0.47588354157E+01  0.56650483515E+01  0.17770000000E+01 0.  1.
</event>
<event>
 6    1  0.8353910E-003  0.1860203E+03  0.7546771E-02  0.1065687E+00
        -11   -1    0    0    0    0  0.00000000000E+00  0.00000000000E+00  0.18250000000E+03  0.18250000000E+03  0.00000000000E+00 0. -1.
         11   -1    0    0    0    0 -0.00000000000E+00 -0.00000000000E+00 -0.18250000000E+03  0.18250000000E+03  0.00000000000E+00 0.  1.
        -11    1    1    2    0    0 -0.48225070445E+01 -0.17835146105E+01  0.17890579532E+03  0.17897966671E+03  0.00000000000E+00 0. -1.
         11    1    1    2    0    0 -0.35553950487E+01  0.22265891032E+00 -0.17363713173E+03  0.17367367079E+03  0.00000000000E+00 0.  1.
        -15    1    1    2    0    0  0.10487337158E+01  0.15148030708E+00  0.11291659054E+01  0.23570178896E+01  0.17770000000E+01 0.  1.
         15    1    1    2    0    0  0.73291683774E+01  0.14093753931E+01 -0.63978294925E+01  0.99896446042E+01  0.17770000000E+01 0. -1.
</event>
<event>
 6    1  0.8353910E-003  0.1839086E+03  0.7546771E-02  0.1067339E+00
        -11   -1    0    0    0    0  0.00000000000E+00  0.00000000000E+00  0.18250000000E+03  0.18250000000E+03  0.00000000000E+00 0.  1.
         11   -1    0    0    0    0 -0.00000000000E+00 -0.00000000000E+00 -0.18250000000E+03  0.18250000000E+03  0.00000000000E+00 0. -1.
        -11    1    1    2    0    0  0.26312512626E+01 -0.14606927404E+00  0.17233963197E+03  0.17235977944E+03  0.00000000000E+00 0.  1.
         11    1    1    2    0    0 -0.28796186579E+01  0.11211867735E+01 -0.18106507025E+03  0.18109143803E+03  0.00000000000E+00 0. -1.
        -15    1    1    2    0    0  0.31301429800E+01 -0.76713005075E+00  0.65680757129E+01  0.75288532434E+01  0.17770000000E+01 0.  1.
         15    1    1    2    0    0 -0.28817755847E+01 -0.20798744870E+00  0.21573625578E+01  0.40199292911E+01  0.17770000000E+01 0. -1.
</event>
<event>
 6    1  0.8353910E-003  0.1678807E+03  0.7546771E-02  0.1080727E+00
        -11   -1    0    0    0    0  0.00000000000E+00  0.00000000000E+00  0.18250000000E+03  0.18250000000E+03  0.00000000000E+00 0.  1.
         11   -1    0    0    0    0 -0.00000000000E+00 -0.00000000000E+00 -0.18250000000E+03  0.18250000000E+03  0.00000000000E+00 0. -1.
        -11    1    1    2    0    0 -0.16114311630E+01  0.49296548568E+01  0.16520508967E+03  0.16528647815E+03  0.00000000000E+00 0.  1.
         11    1    1    2    0    0 -0.62958018316E+01  0.11473474062E+01 -0.17054539870E+03  0.17066542281E+03  0.00000000000E+00 0. -1.
        -15    1    1    2    0    0  0.24594612015E+01 -0.14386046706E+02  0.10151526179E+02  0.17866686934E+02  0.17770000000E+01 0.  1.
         15    1    1    2    0    0  0.54477717932E+01  0.83090444428E+01 -0.48112171549E+01  0.11181412101E+02  0.17770000000E+01 0. -1.
</event>
<event>
 6    1  0.8353910E-003  0.1863788E+03  0.7546771E-02  0.1065409E+00
        -11   -1    0    0    0    0  0.00000000000E+00  0.00000000000E+00  0.18250000000E+03  0.18250000000E+03  0.00000000000E+00 0.  1.
         11   -1    0    0    0    0 -0.00000000000E+00 -0.00000000000E+00 -0.18250000000E+03  0.18250000000E+03  0.00000000000E+00 0.  1.
        -11    1    1    2    0    0 -0.38092981523E+01  0.12415129559E+01  0.17411806288E+03  0.17416415225E+03  0.00000000000E+00 0.  1.
         11    1    1    2    0    0  0.57276119423E+01  0.56221192831E+01 -0.17844082215E+03  0.17862122151E+03  0.00000000000E+00 0.  1.
        -15    1    1    2    0    0 -0.12026259717E+01 -0.30846707848E+01  0.64569122677E+01  0.74706725341E+01  0.17770000000E+01 0.  1.
         15    1    1    2    0    0 -0.71568781828E+00 -0.37789614542E+01 -0.21341529987E+01  0.47439537042E+01  0.17770000000E+01 0. -1.
</event>
<event>
 6    1  0.8353910E-003  0.1836665E+03  0.7546771E-02  0.1067530E+00
        -11   -1    0    0    0    0  0.00000000000E+00  0.00000000000E+00  0.18250000000E+03  0.18250000000E+03  0.00000000000E+00 0.  1.
         11   -1    0    0    0    0 -0.00000000000E+00 -0.00000000000E+00 -0.18250000000E+03  0.18250000000E+03  0.00000000000E+00 0. -1.
        -11    1    1    2    0    0 -0.13627535831E+01 -0.31271079467E+01  0.17184438716E+03  0.17187823975E+03  0.00000000000E+00 0.  1.
         11    1    1    2    0    0 -0.16943840851E+01  0.34971764296E+01 -0.18129181752E+03  0.18133346156E+03  0.00000000000E+00 0. -1.
        -15    1    1    2    0    0 -0.83735732096E-01  0.16134291884E+01  0.14838967724E+01  0.28230912224E+01  0.17770000000E+01 0. -1.
         15    1    1    2    0    0  0.31408734004E+01 -0.19834976713E+01  0.79635335872E+01  0.89652074669E+01  0.17770000000E+01 0.  1.
</event>
<event>
 6    1  0.8353910E-003  0.2107002E+03  0.7546771E-02  0.1047990E+00
        -11   -1    0    0    0    0  0.00000000000E+00  0.00000000000E+00  0.18250000000E+03  0.18250000000E+03  0.00000000000E+00 0. -1.
         11   -1    0    0    0    0 -0.00000000000E+00 -0.00000000000E+00 -0.18250000000E+03  0.18250000000E+03  0.00000000000E+00 0.  1.
        -11    1    1    2    0    0 -0.19623878176E+01 -0.24100361227E+01  0.88052217290E+02  0.88107049716E+02  0.00000000000E+00 0. -1.
         11    1    1    2    0    0  0.30009003985E+01  0.62915202708E+01 -0.15414225819E+03  0.15429978740E+03  0.00000000000E+00 0.  1.
        -15    1    1    2    0    0  0.14123274614E+02  0.27154152863E+01  0.91272177576E+02  0.92415412646E+02  0.17770000000E+01 0.  1.
         15    1    1    2    0    0 -0.15161787195E+02 -0.65968994344E+01 -0.25182136675E+02  0.30177750241E+02  0.17770000000E+01 0. -1.
</event>
<event>
 6    1  0.8353910E-003  0.1835566E+03  0.7546771E-02  0.1067617E+00
        -11   -1    0    0    0    0  0.00000000000E+00  0.00000000000E+00  0.18250000000E+03  0.18250000000E+03  0.00000000000E+00 0. -1.
         11   -1    0    0    0    0 -0.00000000000E+00 -0.00000000000E+00 -0.18250000000E+03  0.18250000000E+03  0.00000000000E+00 0.  1.
        -11    1    1    2    0    0  0.45476411802E+01 -0.20257296493E+01  0.16090281963E+03  0.16097981856E+03  0.00000000000E+00 0. -1.
         11    1    1    2    0    0 -0.56278501113E+00  0.28473765874E+01 -0.18142019168E+03  0.18144340778E+03  0.00000000000E+00 0.  1.
        -15    1    1    2    0    0 -0.36635966413E+01  0.27674130716E+01  0.76549524466E+01  0.91014582029E+01  0.17770000000E+01 0.  1.
         15    1    1    2    0    0 -0.32125952769E+00 -0.35890600097E+01  0.12862419601E+02  0.13475315449E+02  0.17770000000E+01 0. -1.
</event>
<event>
 6    1  0.8353910E-003  0.1832446E+03  0.7546771E-02  0.1067864E+00
        -11   -1    0    0    0    0  0.00000000000E+00  0.00000000000E+00  0.18250000000E+03  0.18250000000E+03  0.00000000000E+00 0.  1.
         11   -1    0    0    0    0 -0.00000000000E+00 -0.00000000000E+00 -0.18250000000E+03  0.18250000000E+03  0.00000000000E+00 0. -1.
        -11    1    1    2    0    0  0.21881386533E+01  0.22532053420E+01  0.10954422031E+03  0.10958923801E+03  0.00000000000E+00 0.  1.
         11    1    1    2    0    0  0.67629553817E+01 -0.59832420594E+01 -0.18153095049E+03  0.18175539259E+03  0.00000000000E+00 0. -1.
        -15    1    1    2    0    0 -0.74947207449E+01 -0.31553365631E+01  0.39544416500E+02  0.40410958825E+02  0.17770000000E+01 0.  1.
         15    1    1    2    0    0 -0.14563732901E+01  0.68853732805E+01  0.32442313679E+02  0.33244410571E+02  0.17770000000E+01 0. -1.
</event>
<event>
 6    1  0.8353910E-003  0.1845557E+03  0.7546771E-02  0.1066830E+00
        -11   -1    0    0    0    0  0.00000000000E+00  0.00000000000E+00  0.18250000000E+03  0.18250000000E+03  0.00000000000E+00 0.  1.
         11   -1    0    0    0    0 -0.00000000000E+00 -0.00000000000E+00 -0.18250000000E+03  0.18250000000E+03  0.00000000000E+00 0.  1.
        -11    1    1    2    0    0 -0.21035374974E+01 -0.14633765111E+01  0.16719397855E+03  0.16721361430E+03  0.00000000000E+00 0.  1.
         11    1    1    2    0    0 -0.13341559418E+01 -0.34856336451E+01 -0.18040566188E+03  0.18044426412E+03  0.00000000000E+00 0.  1.
        -15    1    1    2    0    0 -0.12706581029E+01 -0.25411983164E+00  0.83194946947E+01  0.86052815107E+01  0.17770000000E+01 0.  1.
         15    1    1    2    0    0  0.47083515420E+01  0.52031299878E+01  0.48921886325E+01  0.87368400769E+01  0.17770000000E+01 0. -1.
</event>
<event>
 6    1  0.8353910E-003  0.1844458E+03  0.7546771E-02  0.1066916E+00
        -11   -1    0    0    0    0  0.00000000000E+00  0.00000000000E+00  0.18250000000E+03  0.18250000000E+03  0.00000000000E+00 0. -1.
         11   -1    0    0    0    0 -0.00000000000E+00 -0.00000000000E+00 -0.18250000000E+03  0.18250000000E+03  0.00000000000E+00 0. -1.
        -11    1    1    2    0    0  0.31271505899E+01 -0.27566268814E+01  0.18050607341E+03  0.18055420406E+03  0.00000000000E+00 0. -1.
         11    1    1    2    0    0  0.21526736060E+01 -0.30665356450E+01 -0.11438330853E+03  0.11444465437E+03  0.00000000000E+00 0. -1.
        -15    1    1    2    0    0 -0.74899844278E+01 -0.37323861990E+01 -0.52094757376E+02  0.52792537811E+02  0.17770000000E+01 0.  1.
         15    1    1    2    0    0  0.22101602320E+01  0.95555487254E+01 -0.14028007509E+02  0.17208603760E+02  0.17770000000E+01 0. -1.
</event>
<event>
 6    1  0.8353910E-003  0.1835409E+03  0.7546771E-02  0.1067629E+00
        -11   -1    0    0    0    0  0.00000000000E+00  0.00000000000E+00  0.18250000000E+03  0.18250000000E+03  0.00000000000E+00 0. -1.
         11   -1    0    0    0    0 -0.00000000000E+00 -0.00000000000E+00 -0.18250000000E+03  0.18250000000E+03  0.00000000000E+00 0.  1.
        -11    1    1    2    0    0 -0.38059815779E+01 -0.78400823836E+01  0.18124970666E+03  0.18145910986E+03  0.00000000000E+00 0. -1.
         11    1    1    2    0    0 -0.60699765506E+00 -0.13289674171E+01 -0.68112491057E+02  0.68128158925E+02  0.00000000000E+00 0.  1.
        -15    1    1    2    0    0  0.27884804194E+00  0.26401260018E+01 -0.10011734663E+03  0.10016830260E+03  0.17770000000E+01 0. -1.
         15    1    1    2    0    0  0.41341311910E+01  0.65289237990E+01 -0.13019868975E+02  0.15244428616E+02  0.17770000000E+01 0. -1.
</event>
<event>
 6    1  0.8353910E-003  0.1894693E+03  0.7546771E-02  0.1063039E+00
        -11   -1    0    0    0    0  0.00000000000E+00  0.00000000000E+00  0.18250000000E+03  0.18250000000E+03  0.00000000000E+00 0.  1.
         11   -1    0    0    0    0 -0.00000000000E+00 -0.00000000000E+00 -0.18250000000E+03  0.18250000000E+03  0.00000000000E+00 0. -1.
        -11    1    1    2    0    0  0.45605200052E+01 -0.20992912411E+01  0.16077434692E+03  0.16085271522E+03  0.00000000000E+00 0.  1.
         11    1    1    2    0    0  0.40209043118E+01  0.39556225375E+01 -0.17544009495E+03  0.17553074243E+03  0.00000000000E+00 0. -1.
        -15    1    1    2    0    0 -0.10496401387E+02 -0.10854094081E+02  0.90464589784E+01  0.17691295867E+02  0.17770000000E+01 0.  1.
         15    1    1    2    0    0  0.19149770704E+01  0.89977627844E+01  0.56192890514E+01  0.10925246485E+02  0.17770000000E+01 0. -1.
</event>
<event>
 6    1  0.8353910E-003  0.1800987E+03  0.7546771E-02  0.1070382E+00
        -11   -1    0    0    0    0  0.00000000000E+00  0.00000000000E+00  0.18250000000E+03  0.18250000000E+03  0.00000000000E+00 0. -1.
         11   -1    0    0    0    0 -0.00000000000E+00 -0.00000000000E+00 -0.18250000000E+03  0.18250000000E+03  0.00000000000E+00 0.  1.
        -11    1    1    2    0    0  0.17502191507E+01  0.18652445720E+01  0.17961145375E+03  0.17962966548E+03  0.00000000000E+00 0. -1.
         11    1    1    2    0    0 -0.26379944086E+00 -0.26842439018E+01 -0.18055288810E+03  0.18057303275E+03  0.00000000000E+00 0.  1.
        -15    1    1    2    0    0  0.85953214953E-02  0.90032090005E+00 -0.51161018468E+00  0.20567269103E+01  0.17770000000E+01 0.  1.
         15    1    1    2    0    0 -0.14950150313E+01 -0.81321570253E-01  0.14530445368E+01  0.27405748608E+01  0.17770000000E+01 0. -1.
</event>
<event>
 6    1  0.8353910E-003  0.1832439E+03  0.7546771E-02  0.1067864E+00
        -11   -1    0    0    0    0  0.00000000000E+00  0.00000000000E+00  0.18250000000E+03  0.18250000000E+03  0.00000000000E+00 0. -1.
         11   -1    0    0    0    0 -0.00000000000E+00 -0.00000000000E+00 -0.18250000000E+03  0.18250000000E+03  0.00000000000E+00 0.  1.
        -11    1    1    2    0    0  0.84660430312E+00 -0.30388788733E+01  0.18172876402E+03  0.18175614211E+03  0.00000000000E+00 0. -1.
         11    1    1    2    0    0 -0.15868830523E+01 -0.30694343249E+01 -0.15809236720E+03  0.15813012424E+03  0.00000000000E+00 0.  1.
        -15    1    1    2    0    0  0.52443424084E+00 -0.25736283063E+00 -0.55095051454E+01  0.58183883375E+01  0.17770000000E+01 0. -1.
         15    1    1    2    0    0  0.21584450835E+00  0.63656760289E+01 -0.18126891673E+02  0.19295345317E+02  0.17770000000E+01 0.  1.
</event>
<event>
 6    1  0.8353910E-003  0.1877518E+03  0.7546771E-02  0.1064350E+00
        -11   -1    0    0    0    0  0.00000000000E+00  0.00000000000E+00  0.18250000000E+03  0.18250000000E+03  0.00000000000E+00 0. -1.
         11   -1    0    0    0    0 -0.00000000000E+00 -0.00000000000E+00 -0.18250000000E+03  0.18250000000E+03  0.00000000000E+00 0.  1.
        -11    1    1    2    0    0  0.85427929668E+01 -0.10135254359E+02  0.17675188802E+03  0.17724822315E+03  0.00000000000E+00 0. -1.
         11    1    1    2    0    0 -0.10508753756E+02  0.66733775142E+01 -0.16852172329E+03  0.16898088381E+03  0.00000000000E+00 0.  1.
        -15    1    1    2    0    0 -0.22468597608E+01 -0.91230377784E+00  0.39981880550E+01  0.50023907975E+01  0.17770000000E+01 0.  1.
         15    1    1    2    0    0  0.42128205499E+01  0.43741806226E+01 -0.12228352784E+02  0.13768502239E+02  0.17770000000E+01 0. -1.
</event>
<event>
 6    1  0.8353910E-003  0.1874830E+03  0.7546771E-02  0.1064556E+00
        -11   -1    0    0    0    0  0.00000000000E+00  0.00000000000E+00  0.18250000000E+03  0.18250000000E+03  0.00000000000E+00 0. -1.
         11   -1    0    0    0    0 -0.00000000000E+00 -0.00000000000E+00 -0.18250000000E+03  0.18250000000E+03  0.00000000000E+00 0. -1.
        -11    1    1    2    0    0  0.61455720750E+00  0.10524050489E+02  0.37333088680E+02  0.38792948195E+02  0.00000000000E+00 0. -1.
         11    1    1    2    0    0 -0.57568861474E+01 -0.38299700975E+01 -0.17738226993E+03  0.17751698537E+03  0.00000000000E+00 0. -1.
        -15    1    1    2    0    0 -0.18582488299E+02  0.57573286889E+01  0.33222991145E+02  0.38540635368E+02  0.17770000000E+01 0.  1.
         15    1    1    2    0    0  0.23724817239E+02 -0.12451409081E+02  0.10682619011E+03  0.11014943106E+03  0.17770000000E+01 0. -1.
</event>
<event>
 6    1  0.8353910E-003  0.1875466E+03  0.7546771E-02  0.1064507E+00
        -11   -1    0    0    0    0  0.00000000000E+00  0.00000000000E+00  0.18250000000E+03  0.18250000000E+03  0.00000000000E+00 0. -1.
         11   -1    0    0    0    0 -0.00000000000E+00 -0.00000000000E+00 -0.18250000000E+03  0.18250000000E+03  0.00000000000E+00 0. -1.
        -11    1    1    2    0    0  0.24764101669E+01 -0.13151611010E+01  0.17387336131E+03  0.17389596898E+03  0.00000000000E+00 0. -1.
         11    1    1    2    0    0  0.49743970643E+00  0.28821048601E+01 -0.17742931487E+03  0.17745341853E+03  0.00000000000E+00 0. -1.
        -15    1    1    2    0    0 -0.22230273647E+01 -0.16160366171E+01  0.80878692694E+01  0.87249517667E+01  0.17770000000E+01 0.  1.
         15    1    1    2    0    0 -0.75082250858E+00  0.49092858117E-01 -0.45319157089E+01  0.49256607212E+01  0.17770000000E+01 0. -1.
</event>
<event>
 6    1  0.8353910E-003  0.1873885E+03  0.7546771E-02  0.1064629E+00
        -11   -1    0    0    0    0  0.00000000000E+00  0.00000000000E+00  0.18250000000E+03  0.18250000000E+03  0.00000000000E+00 0.  1.
         11   -1    0    0    0    0 -0.00000000000E+00 -0.00000000000E+00 -0.18250000000E+03  0.18250000000E+03  0.00000000000E+00 0. -1.
        -11    1    1    2    0    0  0.25264621398E+01 -0.32609331598E+01  0.13835483824E+03  0.13841632115E+03  0.00000000000E+00 0.  1.
         11    1    1    2    0    0 -0.38128953435E+01  0.19873590528E+01 -0.17755948834E+03  0.17761154148E+03  0.00000000000E+00 0. -1.
        -15    1    1    2    0    0 -0.65063350057E+01 -0.19908445092E+01 -0.16432643747E+01  0.72217659801E+01  0.17770000000E+01 0.  1.
         15    1    1    2    0    0  0.77927682094E+01  0.32644186162E+01  0.40847914473E+02  0.41750371388E+02  0.17770000000E+01 0. -1.
</event>
<event>
 6    1  0.8353910E-003  0.1829036E+03  0.7546771E-02  0.1068134E+00
        -11   -1    0    0    0    0  0.00000000000E+00  0.00000000000E+00  0.18250000000E+03  0.18250000000E+03  0.00000000000E+00 0.  1.
         11   -1    0    0    0    0 -0.00000000000E+00 -0.00000000000E+00 -0.18250000000E+03  0.18250000000E+03  0.00000000000E+00 0.  1.
        -11    1    1    2    0    0 -0.54278362487E+01  0.85666423633E+01  0.18181378811E+03  0.18209640940E+03  0.00000000000E+00 0.  1.
         11    1    1    2    0    0 -0.49723173218E+00 -0.61139149210E+00 -0.54344564985E+02  0.54350278586E+02  0.00000000000E+00 0.  1.
        -15    1    1    2    0    0  0.95019604216E+01 -0.55609060519E+01 -0.10599086934E+03  0.10657594964E+03  0.17770000000E+01 0.  1.
         15    1    1    2    0    0 -0.35768924407E+01 -0.23943448193E+01 -0.21478353788E+02  0.21977362378E+02  0.17770000000E+01 0. -1.
</event>
<event>
 6    1  0.8353910E-003  0.1830079E+03  0.7546771E-02  0.1068051E+00
        -11   -1    0    0    0    0  0.00000000000E+00  0.00000000000E+00  0.18250000000E+03  0.18250000000E+03  0.00000000000E+00 0.  1.
         11   -1    0    0    0    0 -0.00000000000E+00 -0.00000000000E+00 -0.18250000000E+03  0.18250000000E+03  0.00000000000E+00 0.  1.
        -11    1    1    2    0    0  0.24300531469E+01  0.23123580343E+01  0.18196120781E+03  0.18199212430E+03  0.00000000000E+00 0.  1.
         11    1    1    2    0    0 -0.30896411990E+01  0.37168517410E+01 -0.13712244108E+03  0.13720759716E+03  0.00000000000E+00 0.  1.
        -15    1    1    2    0    0 -0.25888995973E+01 -0.24348501295E+01 -0.24324846629E+02  0.24647247083E+02  0.17770000000E+01 0. -1.
         15    1    1    2    0    0  0.32484876493E+01 -0.35943596458E+01 -0.20513920099E+02  0.21153031464E+02  0.17770000000E+01 0.  1.
</event>
<event>
 6    1  0.8353910E-003  0.1832874E+03  0.7546771E-02  0.1067830E+00
        -11   -1    0    0    0    0  0.00000000000E+00  0.00000000000E+00  0.18250000000E+03  0.18250000000E+03  0.00000000000E+00 0.  1.
         11   -1    0    0    0    0 -0.00000000000E+00 -0.00000000000E+00 -0.18250000000E+03  0.18250000000E+03  0.00000000000E+00 0.  1.
        -11    1    1    2    0    0 -0.12310576456E+01 -0.21810580803E+01  0.16062564451E+03  0.16064516859E+03  0.00000000000E+00 0.  1.
         11    1    1    2    0    0  0.27236015518E+01 -0.28348414774E+01 -0.18167006102E+03  0.18171259010E+03  0.00000000000E+00 0.  1.
        -15    1    1    2    0    0 -0.71176909014E+00  0.72568637662E+00  0.14124856575E+02  0.14272439813E+02  0.17770000000E+01 0. -1.
         15    1    1    2    0    0 -0.78077481602E+00  0.42902131811E+01  0.69195599290E+01  0.83698014949E+01  0.17770000000E+01 0.  1.
</event>
<event>
 6    1  0.8353910E-003  0.1938042E+03  0.7546771E-02  0.1059797E+00
        -11   -1    0    0    0    0  0.00000000000E+00  0.00000000000E+00  0.18250000000E+03  0.18250000000E+03  0.00000000000E+00 0. -1.
         11   -1    0    0    0    0 -0.00000000000E+00 -0.00000000000E+00 -0.18250000000E+03  0.18250000000E+03  0.00000000000E+00 0. -1.
        -11    1    1    2    0    0 -0.47994677156E+00 -0.82876299350E+01  0.17099441724E+03  0.17119581153E+03  0.00000000000E+00 0. -1.
         11    1    1    2    0    0  0.19240932957E+01 -0.10510360668E+01 -0.15500688412E+03  0.15502238850E+03  0.00000000000E+00 0. -1.
        -15    1    1    2    0    0  0.49761793228E+01  0.79376256312E+01 -0.25419870289E+02  0.27149508206E+02  0.17770000000E+01 0. -1.
         15    1    1    2    0    0 -0.64203258469E+01  0.14010403706E+01  0.94323371687E+01  0.11632291759E+02  0.17770000000E+01 0.  1.
</event>
<event>
 6    1  0.8353910E-003  0.1885129E+03  0.7546771E-02  0.1063767E+00
        -11   -1    0    0    0    0  0.00000000000E+00  0.00000000000E+00  0.18250000000E+03  0.18250000000E+03  0.00000000000E+00 0.  1.
         11   -1    0    0    0    0 -0.00000000000E+00 -0.00000000000E+00 -0.18250000000E+03  0.18250000000E+03  0.00000000000E+00 0. -1.
        -11    1    1    2    0    0  0.22679666654E+02 -0.13586848554E+02  0.13739748837E+03  0.13991797434E+03  0.00000000000E+00 0.  1.
         11    1    1    2    0    0 -0.11802543280E+01 -0.27640611656E+01 -0.17646147312E+03  0.17648706618E+03  0.00000000000E+00 0. -1.
        -15    1    1    2    0    0 -0.20968576370E+02  0.15488714475E+02  0.38395994187E+02  0.46443423320E+02  0.17770000000E+01 0.  1.
         15    1    1    2    0    0 -0.53083595592E+00  0.86219524473E+00  0.66799055707E+00  0.21515361574E+01  0.17770000000E+01 0. -1.
</event>
<event>
 6    1  0.8353910E-003  0.1837797E+03  0.7546771E-02  0.1067441E+00
        -11   -1    0    0    0    0  0.00000000000E+00  0.00000000000E+00  0.18250000000E+03  0.18250000000E+03  0.00000000000E+00 0.  1.
         11   -1    0    0    0    0 -0.00000000000E+00 -0.00000000000E+00 -0.18250000000E+03  0.18250000000E+03  0.00000000000E+00 0. -1.
        -11    1    1    2    0    0  0.82685688453E+00  0.51333818008E+01  0.18114565646E+03  0.18122026420E+03  0.00000000000E+00 0.  1.
         11    1    1    2    0    0  0.12457691397E+01  0.33093030008E+01 -0.15425606290E+03  0.15429658573E+03  0.00000000000E+00 0. -1.
        -15    1    1    2    0    0  0.23935488017E+00 -0.24300730762E+01 -0.17930043689E+01  0.35121417371E+01  0.17770000000E+01 0. -1.
         15    1    1    2    0    0 -0.23119809044E+01 -0.60126117255E+01 -0.25096589194E+02  0.25971008329E+02  0.17770000000E+01 0.  1.
</event>
<event>
 6    1  0.8353910E-003  0.1830034E+03  0.7546771E-02  0.1068055E+00
        -11   -1    0    0    0    0  0.00000000000E+00  0.00000000000E+00  0.18250000000E+03  0.18250000000E+03  0.00000000000E+00 0. -1.
         11   -1    0    0    0    0 -0.00000000000E+00 -0.00000000000E+00 -0.18250000000E+03  0.18250000000E+03  0.00000000000E+00 0.  1.
        -11    1    1    2    0    0 -0.17821889159E+01 -0.17616727774E+01  0.18197931785E+03  0.18199657089E+03  0.00000000000E+00 0. -1.
         11    1    1    2    0    0 -0.20853387503E+01 -0.36999891812E+00 -0.14344324215E+03  0.14345887653E+03  0.00000000000E+00 0.  1.
        -15    1    1    2    0    0 -0.97989804827E+00 -0.15260641024E+01 -0.10320397290E+02  0.10628141938E+02  0.17770000000E+01 0. -1.
         15    1    1    2    0    0  0.48474257144E+01  0.36577357979E+01 -0.28215678411E+02  0.28916410642E+02  0.17770000000E+01 0. -1.
</event>
<event>
 6    1  0.8353910E-003  0.1853644E+03  0.7546771E-02  0.1066197E+00
        -11   -1    0    0    0    0  0.00000000000E+00  0.00000000000E+00  0.18250000000E+03  0.18250000000E+03  0.00000000000E+00 0.  1.
         11   -1    0    0    0    0 -0.00000000000E+00 -0.00000000000E+00 -0.18250000000E+03  0.18250000000E+03  0.00000000000E+00 0. -1.
        -11    1    1    2    0    0  0.41452126553E+01  0.13454640242E+02  0.16581794723E+03  0.16641454791E+03  0.00000000000E+00 0.  1.
         11    1    1    2    0    0 -0.47433418929E+01 -0.89182287882E+01 -0.17935136564E+03  0.17963559351E+03  0.00000000000E+00 0. -1.
        -15    1    1    2    0    0 -0.31409940948E+01 -0.19547890373E+01  0.13458501355E+02  0.14070395581E+02  0.17770000000E+01 0.  1.
         15    1    1    2    0    0  0.37391233324E+01 -0.25816224165E+01  0.74917052892E-01  0.48794629993E+01  0.17770000000E+01 0. -1.
</event>
<event>
 6    1  0.8353910E-003  0.1876794E+03  0.7546771E-02  0.1064405E+00
        -11   -1    0    0    0    0  0.00000000000E+00  0.00000000000E+00  0.18250000000E+03  0.18250000000E+03  0.00000000000E+00 0. -1.
         11   -1    0    0    0    0 -0.00000000000E+00 -0.00000000000E+00 -0.18250000000E+03  0.18250000000E+03  0.00000000000E+00 0.  1.
        -11    1    1    2    0    0  0.31225316277E+01  0.22667637404E+01  0.17727857679E+03  0.17732056342E+03  0.00000000000E+00 0. -1.
         11    1    1    2    0    0  0.58085687483E+01 -0.19685325177E+01 -0.13810537420E+03  0.13824148789E+03  0.00000000000E+00 0.  1.
        -15    1    1    2    0    0 -0.91871061978E+01 -0.13641521454E+02 -0.24050893114E+02  0.29190704281E+02  0.17770000000E+01 0.  1.
         15    1    1    2    0    0  0.25600582184E+00  0.13343290231E+02 -0.15122309483E+02  0.20247244412E+02  0.17770000000E+01 0. -1.
</event>
<event>
 6    1  0.8353910E-003  0.1867079E+03  0.7546771E-02  0.1065154E+00
        -11   -1    0    0    0    0  0.00000000000E+00  0.00000000000E+00  0.18250000000E+03  0.18250000000E+03  0.00000000000E+00 0. -1.
         11   -1    0    0    0    0 -0.00000000000E+00 -0.00000000000E+00 -0.18250000000E+03  0.18250000000E+03  0.00000000000E+00 0. -1.
        -11    1    1    2    0    0  0.43678498275E+01  0.66687492866E+00  0.16196270801E+03  0.16202296634E+03  0.00000000000E+00 0. -1.
         11    1    1    2    0    0  0.95575297861E+01 -0.34799767373E+01 -0.17800169287E+03  0.17829206173E+03  0.00000000000E+00 0. -1.
        -15    1    1    2    0    0 -0.97258931850E+01  0.23024382926E+01  0.25926564767E+01  0.10477300079E+02  0.17770000000E+01 0. -1.
         15    1    1    2    0    0 -0.41994864287E+01  0.51066351599E+00  0.13446328378E+02  0.14207671848E+02  0.17770000000E+01 0.  1.
</event>
<event>
 6    1  0.8353910E-003  0.1825565E+03  0.7546771E-02  0.1068410E+00
        -11   -1    0    0    0    0  0.00000000000E+00  0.00000000000E+00  0.18250000000E+03  0.18250000000E+03  0.00000000000E+00 0. -1.
         11   -1    0    0    0    0 -0.00000000000E+00 -0.00000000000E+00 -0.18250000000E+03  0.18250000000E+03  0.00000000000E+00 0. -1.
        -11    1    1    2    0    0  0.32873982059E+01 -0.27656901604E+01  0.18239291656E+03  0.18244350370E+03  0.00000000000E+00 0. -1.
         11    1    1    2    0    0 -0.70850427732E+00 -0.38214485386E+00 -0.16922851510E+02  0.16941986785E+02  0.00000000000E+00 0. -1.
        -15    1    1    2    0    0  0.40676693585E+00  0.42820432552E+00 -0.87253802632E+02  0.87273894270E+02  0.17770000000E+01 0. -1.
         15    1    1    2    0    0 -0.29856608644E+01  0.27196306888E+01 -0.78216262420E+02  0.78340615250E+02  0.17770000000E+01 0. -1.
</event>
<event>
 6    1  0.8353910E-003  0.1828385E+03  0.7546771E-02  0.1068186E+00
        -11   -1    0    0    0    0  0.00000000000E+00  0.00000000000E+00  0.18250000000E+03  0.18250000000E+03  0.00000000000E+00 0.  1.
         11   -1    0    0    0    0 -0.00000000000E+00 -0.00000000000E+00 -0.18250000000E+03  0.18250000000E+03  0.00000000000E+00 0.  1.
        -11    1    1    2    0    0  0.26620149078E+01  0.41182425919E+00  0.18214159690E+03  0.18216151417E+03  0.00000000000E+00 0.  1.
         11    1    1    2    0    0 -0.27866764387E+01 -0.85607967819E+00 -0.14602130776E+03  0.14605040485E+03  0.00000000000E+00 0.  1.
        -15    1    1    2    0    0  0.18142090500E+01  0.26530381247E+01 -0.18332540733E+02  0.18696784336E+02  0.17770000000E+01 0.  1.
         15    1    1    2    0    0 -0.16895475192E+01 -0.22087827057E+01 -0.17787748408E+02  0.18091296645E+02  0.17770000000E+01 0. -1.
</event>
<event>
 6    1  0.8353910E-003  0.1835217E+03  0.7546771E-02  0.1067644E+00
        -11   -1    0    0    0    0  0.00000000000E+00  0.00000000000E+00  0.18250000000E+03  0.18250000000E+03  0.00000000000E+00 0. -1.
         11   -1    0    0    0    0 -0.00000000000E+00 -0.00000000000E+00 -0.18250000000E+03  0.18250000000E+03  0.00000000000E+00 0. -1.
        -11    1    1    2    0    0  0.11894060047E+01 -0.22441058353E+01  0.18146057269E+03  0.18147834620E+03  0.00000000000E+00 0. -1.
         11    1    1    2    0    0 -0.90916777975E+00  0.26719867439E+01 -0.16382380777E+03  0.16384811897E+03  0.00000000000E+00 0. -1.
        -15    1    1    2    0    0 -0.13497704834E+01  0.18991159958E+01 -0.16039198102E+01  0.33404804566E+01  0.17770000000E+01 0. -1.
         15    1    1    2    0    0  0.10695322584E+01 -0.23269969044E+01 -0.16032845113E+02  0.16333054376E+02  0.17770000000E+01 0. -1.
</event>
<event>
 6    1  0.8353910E-003  0.1831934E+03  0.7546771E-02  0.1067904E+00
        -11   -1    0    0    0    0  0.00000000000E+00  0.00000000000E+00  0.18250000000E+03  0.18250000000E+03  0.00000000000E+00 0. -1.
         11   -1    0    0    0    0 -0.00000000000E+00 -0.00000000000E+00 -0.18250000000E+03  0.18250000000E+03  0.00000000000E+00 0. -1.
        -11    1    1    2    0    0  0.25160133252E+01 -0.32621659811E+01  0.18175995747E+03  0.18180663956E+03  0.00000000000E+00 0. -1.
         11    1    1    2    0    0 -0.50811664259E+00  0.47424754268E+01 -0.13255273154E+03  0.13263851587E+03  0.00000000000E+00 0. -1.
        -15    1    1    2    0    0 -0.64782546854E+00 -0.47408933522E+00 -0.83623071483E+00  0.21216619297E+01  0.17770000000E+01 0.  1.
         15    1    1    2    0    0 -0.13600712141E+01 -0.10062201105E+01 -0.48370995218E+02  0.48433182633E+02  0.17770000000E+01 0. -1.
</event>
<event>
 6    1  0.8353910E-003  0.1870740E+03  0.7546771E-02  0.1064871E+00
        -11   -1    0    0    0    0  0.00000000000E+00  0.00000000000E+00  0.18250000000E+03  0.18250000000E+03  0.00000000000E+00 0.  1.
         11   -1    0    0    0    0 -0.00000000000E+00 -0.00000000000E+00 -0.18250000000E+03  0.18250000000E+03  0.00000000000E+00 0. -1.
        -11    1    1    2    0    0  0.30732937125E+01 -0.85773550718E+00  0.17789741215E+03  0.17792602422E+03  0.00000000000E+00 0.  1.
         11    1    1    2    0    0  0.15657464169E+01 -0.23421969514E+01 -0.17234212007E+03  0.17236514671E+03  0.00000000000E+00 0. -1.
        -15    1    1    2    0    0 -0.53576332415E+01  0.35611933038E+00  0.23246345770E+01  0.61149578776E+01  0.17770000000E+01 0. -1.
         15    1    1    2    0    0  0.71859311213E+00  0.28438131282E+01 -0.78799266534E+01  0.85938712018E+01  0.17770000000E+01 0.  1.
</event>
<event>
 6    1  0.8353910E-003  0.1843621E+03  0.7546771E-02  0.1066982E+00
        -11   -1    0    0    0    0  0.00000000000E+00  0.00000000000E+00  0.18250000000E+03  0.18250000000E+03  0.00000000000E+00 0.  1.
         11   -1    0    0    0    0 -0.00000000000E+00 -0.00000000000E+00 -0.18250000000E+03  0.18250000000E+03  0.00000000000E+00 0. -1.
        -11    1    1    2    0    0 -0.58748969489E+01 -0.34130436063E+01  0.15867925477E+03  0.15882464914E+03  0.00000000000E+00 0.  1.
         11    1    1    2    0    0  0.16946803819E+00  0.30362652083E+01 -0.18061231338E+03  0.18063791232E+03  0.00000000000E+00 0. -1.
        -15    1    1    2    0    0  0.23228143863E+01 -0.51313991123E+01  0.69343275757E+01  0.91087513661E+01  0.17770000000E+01 0.  1.
         15    1    1    2    0    0  0.33826145244E+01  0.55081775104E+01  0.14998731035E+02  0.16428687171E+02  0.17770000000E+01 0. -1.
</event>
<event>
 6    1  0.8353910E-003  0.1830645E+03  0.7546771E-02  0.1068006E+00
        -11   -1    0    0    0    0  0.00000000000E+00  0.00000000000E+00  0.18250000000E+03  0.18250000000E+03  0.00000000000E+00 0.  1.
         11   -1    0    0    0    0 -0.00000000000E+00 -0.00000000000E+00 -0.18250000000E+03  0.18250000000E+03  0.00000000000E+00 0. -1.
        -11    1    1    2    0    0 -0.19465561731E+01 -0.21845091842E+01  0.18191195878E+03  0.18193548831E+03  0.00000000000E+00 0.  1.
         11    1    1    2    0    0 -0.23025145349E+01  0.26707866940E+01 -0.15908209853E+03  0.15912117631E+03  0.00000000000E+00 0. -1.
        -15    1    1    2    0    0  0.17958307679E+01  0.20223729156E+01 -0.89560043845E+01  0.95227487572E+01  0.17770000000E+01 0.  1.
         15    1    1    2    0    0  0.24532399401E+01 -0.25086504255E+01 -0.13873855859E+02  0.14420586623E+02  0.17770000000E+01 0. -1.
</event>
<event>
 6    1  0.8353910E-003  0.1833589E+03  0.7546771E-02  0.1067773E+00
        -11   -1    0    0    0    0  0.00000000000E+00  0.00000000000E+00  0.18250000000E+03  0.18250000000E+03  0.00000000000E+00 0. -1.
         11   -1    0    0    0    0 -0.00000000000E+00 -0.00000000000E+00 -0.18250000000E+03  0.18250000000E+03  0.00000000000E+00 0. -1.
        -11    1    1    2    0    0 -0.10684724769E+02  0.18982894276E+01  0.18131664639E+03  0.18164111073E+03  0.00000000000E+00 0. -1.
         11    1    1    2    0    0  0.12810958353E+01  0.23173753466E+01 -0.11397141410E+03  0.11400216958E+03  0.00000000000E+00 0. -1.
        -15    1    1    2    0    0  0.29256191847E+01  0.10793922060E+01 -0.48825020775E+02  0.48956763759E+02  0.17770000000E+01 0. -1.
         15    1    1    2    0    0  0.64780097493E+01 -0.52950569801E+01 -0.18520211516E+02  0.20399955939E+02  0.17770000000E+01 0.  1.
</event>
<event>
 6    1  0.8353910E-003  0.1830566E+03  0.7546771E-02  0.1068013E+00
        -11   -1    0    0    0    0  0.00000000000E+00  0.00000000000E+00  0.18250000000E+03  0.18250000000E+03  0.00000000000E+00 0.  1.
         11   -1    0    0    0    0 -0.00000000000E+00 -0.00000000000E+00 -0.18250000000E+03  0.18250000000E+03  0.00000000000E+00 0.  1.
        -11    1    1    2    0    0  0.98902793305E+00  0.18535170032E+01  0.98342474477E+02  0.98364912382E+02  0.00000000000E+00 0.  1.
         11    1    1    2    0    0  0.13672668114E+02 -0.30385305736E+01 -0.18140350717E+03  0.18194341685E+03  0.00000000000E+00 0.  1.
        -15    1    1    2    0    0 -0.17252263734E+01  0.19580310780E+01  0.23500765848E+02  0.23711896090E+02  0.17770000000E+01 0. -1.
         15    1    1    2    0    0 -0.12936469673E+02 -0.77301750764E+00  0.59560266847E+02  0.60979774676E+02  0.17770000000E+01 0.  1.
</event>
<event>
 6    1  0.8353910E-003  0.1849890E+03  0.7546771E-02  0.1066491E+00
        -11   -1    0    0    0    0  0.00000000000E+00  0.00000000000E+00  0.18250000000E+03  0.18250000000E+03  0.00000000000E+00 0.  1.
         11   -1    0    0    0    0 -0.00000000000E+00 -0.00000000000E+00 -0.18250000000E+03  0.18250000000E+03  0.00000000000E+00 0. -1.
        -11    1    1    2    0    0 -0.42685019061E+01  0.61514110859E+00  0.15852628852E+03  0.15858493831E+03  0.00000000000E+00 0.  1.
         11    1    1    2    0    0 -0.71382938546E+01  0.27632273000E+01 -0.17984819543E+03  0.18001101095E+03  0.00000000000E+00 0. -1.
        -15    1    1    2    0    0  0.49802717160E+01  0.30221264598E+01  0.62709783493E+01  0.87418106340E+01  0.17770000000E+01 0. -1.
         15    1    1    2    0    0  0.64265240447E+01 -0.64004948684E+01  0.15050928566E+02  0.17662240106E+02  0.17770000000E+01 0.  1.
</event>
<event>
 6    1  0.8353910E-003  0.1894722E+03  0.7546771E-02  0.1063037E+00
        -11   -1    0    0    0    0  0.00000000000E+00  0.00000000000E+00  0.18250000000E+03  0.18250000000E+03  0.00000000000E+00 0.  1.
         11   -1    0    0    0    0 -0.00000000000E+00 -0.00000000000E+00 -0.18250000000E+03  0.18250000000E+03  0.00000000000E+00 0. -1.
        -11    1    1    2    0    0 -0.11054148135E+01 -0.23848822925E+01  0.14376842957E+03  0.14379245789E+03  0.00000000000E+00 0.  1.
         11    1    1    2    0    0  0.11720484107E+02 -0.89236752586E+01 -0.17490855702E+03  0.17552778996E+03  0.00000000000E+00 0. -1.
        -15    1    1    2    0    0 -0.47567674103E+01  0.12508134069E+02 -0.42286618622E+00  0.13506176324E+02  0.17770000000E+01 0. -1.
         15    1    1    2    0    0 -0.58583018829E+01 -0.11995765181E+01  0.31562993644E+02  0.32173575828E+02  0.17770000000E+01 0.  1.
</event>
<event>
 6    1  0.8353910E-003  0.1838954E+03  0.7546771E-02  0.1067349E+00
        -11   -1    0    0    0    0  0.00000000000E+00  0.00000000000E+00  0.18250000000E+03  0.18250000000E+03  0.00000000000E+00 0.  1.
         11   -1    0    0    0    0 -0.00000000000E+00 -0.00000000000E+00 -0.18250000000E+03  0.18250000000E+03  0.00000000000E+00 0.  1.
        -11    1    1    2    0    0 -0.33366491355E+01  0.28966499774E+01  0.18105071846E+03  0.18110462850E+03  0.00000000000E+00 0.  1.
         11    1    1    2    0    0 -0.12968401464E+01 -0.13626294336E+01 -0.55887707658E+02  0.55919356403E+02  0.00000000000E+00 0.  1.
        -15    1    1    2    0    0  0.63272825098E+01 -0.50158892928E+01 -0.11136066291E+02  0.13869511555E+02  0.17770000000E+01 0. -1.
         15    1    1    2    0    0 -0.16937932279E+01  0.34818687491E+01 -0.11402694452E+03  0.11410650354E+03  0.17770000000E+01 0.  1.
</event>
<event>
 6    1  0.8353910E-003  0.1851116E+03  0.7546771E-02  0.1066395E+00
        -11   -1    0    0    0    0  0.00000000000E+00  0.00000000000E+00  0.18250000000E+03  0.18250000000E+03  0.00000000000E+00 0.  1.
         11   -1    0    0    0    0 -0.00000000000E+00 -0.00000000000E+00 -0.18250000000E+03  0.18250000000E+03  0.00000000000E+00 0.  1.
        -11    1    1    2    0    0 -0.12352249622E+01  0.66342004303E+01  0.17976173923E+03  0.17988835785E+03  0.00000000000E+00 0.  1.
         11    1    1    2    0    0  0.28991468575E+01  0.45362682930E+01 -0.98185013203E+02  0.98332495139E+02  0.00000000000E+00 0.  1.
        -15    1    1    2    0    0 -0.82539974081E+00  0.67270123308E+01 -0.49510691015E+02  0.50004002174E+02  0.17770000000E+01 0.  1.
         15    1    1    2    0    0 -0.83852215452E+00 -0.17897481054E+02 -0.32066035016E+02  0.36775144841E+02  0.17770000000E+01 0. -1.
</event>
<event>
 6    1  0.8353910E-003  0.1844772E+03  0.7546771E-02  0.1066892E+00
        -11   -1    0    0    0    0  0.00000000000E+00  0.00000000000E+00  0.18250000000E+03  0.18250000000E+03  0.00000000000E+00 0. -1.
         11   -1    0    0    0    0 -0.00000000000E+00 -0.00000000000E+00 -0.18250000000E+03  0.18250000000E+03  0.00000000000E+00 0. -1.
        -11    1    1    2    0    0  0.61565523531E+01 -0.10539543605E+02  0.18010968297E+03  0.18052280470E+03  0.00000000000E+00 0. -1.
         11    1    1    2    0    0  0.27662306401E+01  0.25604513107E+00 -0.11441366253E+03  0.11444738426E+03  0.00000000000E+00 0. -1.
        -15    1    1    2    0    0 -0.14019305976E+02  0.18698736185E+01 -0.38143938242E+02  0.40720450894E+02  0.17770000000E+01 0.  1.
         15    1    1    2    0    0  0.50965229829E+01  0.84136248550E+01 -0.27552082197E+02  0.29309360145E+02  0.17770000000E+01 0. -1.
</event>
<event>
 6    1  0.8353910E-003  0.1828769E+03  0.7546771E-02  0.1068155E+00
        -11   -1    0    0    0    0  0.00000000000E+00  0.00000000000E+00  0.18250000000E+03  0.18250000000E+03  0.00000000000E+00 0.  1.
         11   -1    0    0    0    0 -0.00000000000E+00 -0.00000000000E+00 -0.18250000000E+03  0.18250000000E+03  0.00000000000E+00 0. -1.
        -11    1    1    2    0    0 -0.31915062835E+01  0.20365719560E+01  0.47599191413E+02  0.47749516865E+02  0.00000000000E+00 0.  1.
         11    1    1    2    0    0  0.57840692754E+01  0.19352948001E+01 -0.18202098980E+03  0.18212314941E+03  0.00000000000E+00 0. -1.
        -15    1    1    2    0    0  0.32681487819E+01 -0.31223160276E+01  0.21733178361E+02  0.22269225952E+02  0.17770000000E+01 0. -1.
         15    1    1    2    0    0 -0.58607117739E+01 -0.84955072845E+00  0.11268862002E+03  0.11285810778E+03  0.17770000000E+01 0.  1.
</event>
<event>
 6    1  0.8353910E-003  0.1829540E+03  0.7546771E-02  0.1068094E+00
        -11   -1    0    0    0    0  0.00000000000E+00  0.00000000000E+00  0.18250000000E+03  0.18250000000E+03  0.00000000000E+00 0. -1.
         11   -1    0    0    0    0 -0.00000000000E+00 -0.00000000000E+00 -0.18250000000E+03  0.18250000000E+03  0.00000000000E+00 0. -1.
        -11    1    1    2    0    0  0.94659745620E+01 -0.14687236422E+02  0.18120544245E+03  0.18204596112E+03  0.00000000000E+00 0. -1.
         11    1    1    2    0    0 -0.99789840380E+00 -0.35959193892E+00 -0.12584244471E+02  0.12628868377E+02  0.00000000000E+00 0. -1.
        -15    1    1    2    0    0 -0.95656399932E+01  0.14784380048E+01 -0.54515769293E+02  0.55396877872E+02  0.17770000000E+01 0.  1.
         15    1    1    2    0    0  0.10975638350E+01  0.13568390356E+02 -0.11410542868E+03  0.11492829263E+03  0.17770000000E+01 0. -1.
</event>
<event>
 6    1  0.8353910E-003  0.1843223E+03  0.7546771E-02  0.1067013E+00
        -11   -1    0    0    0    0  0.00000000000E+00  0.00000000000E+00  0.18250000000E+03  0.18250000000E+03  0.00000000000E+00 0. -1.
         11   -1    0    0    0    0 -0.00000000000E+00 -0.00000000000E+00 -0.18250000000E+03  0.18250000000E+03  0.00000000000E+00 0.  1.
        -11    1    1    2    0    0  0.29920220888E+00 -0.28641781102E+01  0.59258369080E+02  0.59328301377E+02  0.00000000000E+00 0. -1.
         11    1    1    2    0    0 -0.96184767642E+01  0.21280331028E+01 -0.18040889651E+03  0.18067765097E+03  0.00000000000E+00 0.  1.
        -15    1    1    2    0    0  0.10169169608E+02  0.28313498227E+01  0.12161139558E+03  0.12208160310E+03  0.17770000000E+01 0.  1.
         15    1    1    2    0    0 -0.84989505262E+00 -0.20952048152E+01 -0.46086814641E+00  0.29124445517E+01  0.17770000000E+01 0. -1.
</event>
<event>
 6    1  0.8353910E-003  0.2026248E+03  0.7546771E-02  0.1053476E+00
        -11   -1    0    0    0    0  0.00000000000E+00  0.00000000000E+00  0.18250000000E+03  0.18250000000E+03  0.00000000000E+00 0.  1.
         11   -1    0    0    0    0 -0.00000000000E+00 -0.00000000000E+00 -0.18250000000E+03  0.18250000000E+03  0.00000000000E+00 0. -1.
        -11    1    1    2    0    0 -0.52748578812E+01  0.36307432413E+00  0.15299742953E+03  0.15308876311E+03  0.00000000000E+00 0.  1.
         11    1    1    2    0    0  0.20519466378E+01  0.17912286291E+01 -0.16235237194E+03  0.16237521874E+03  0.00000000000E+00 0. -1.
        -15    1    1    2    0    0  0.50832166447E+01  0.24055428292E+01  0.28800406279E+02  0.29398075764E+02  0.17770000000E+01 0.  1.
         15    1    1    2    0    0 -0.18603054012E+01 -0.45598457825E+01 -0.19445463862E+02  0.20137942386E+02  0.17770000000E+01 0. -1.
</event>
<event>
 6    1  0.8353910E-003  0.1833460E+03  0.7546771E-02  0.1067783E+00
        -11   -1    0    0    0    0  0.00000000000E+00  0.00000000000E+00  0.18250000000E+03  0.18250000000E+03  0.00000000000E+00 0.  1.
         11   -1    0    0    0    0 -0.00000000000E+00 -0.00000000000E+00 -0.18250000000E+03  0.18250000000E+03  0.00000000000E+00 0.  1.
        -11    1    1    2    0    0  0.23824577468E+01  0.28269441625E+01  0.84243198309E+02  0.84324279893E+02  0.00000000000E+00 0.  1.
         11    1    1    2    0    0 -0.34599265363E+01  0.84633499377E+01 -0.18142378207E+03  0.18165403404E+03  0.00000000000E+00 0.  1.
        -15    1    1    2    0    0  0.32257607106E+01 -0.51442638569E+01  0.83771077628E+02  0.84009643248E+02  0.17770000000E+01 0. -1.
         15    1    1    2    0    0 -0.21482919210E+01 -0.61460302433E+01  0.13409506130E+02  0.15012042819E+02  0.17770000000E+01 0.  1.
</event>
<event>
 6    1  0.8353910E-003  0.1835309E+03  0.7546771E-02  0.1067637E+00
        -11   -1    0    0    0    0  0.00000000000E+00  0.00000000000E+00  0.18250000000E+03  0.18250000000E+03  0.00000000000E+00 0. -1.
         11   -1    0    0    0    0 -0.00000000000E+00 -0.00000000000E+00 -0.18250000000E+03  0.18250000000E+03  0.00000000000E+00 0. -1.
        -11    1    1    2    0    0  0.40513619489E+01  0.95433662529E+00  0.11131438911E+03  0.11139217888E+03  0.00000000000E+00 0. -1.
         11    1    1    2    0    0  0.84672902357E+00 -0.10155994588E+02 -0.18118275586E+03  0.18146914944E+03  0.00000000000E+00 0. -1.
        -15    1    1    2    0    0 -0.60023454215E+01  0.11646987875E+02  0.40716618424E+02  0.42809826232E+02  0.17770000000E+01 0. -1.
         15    1    1    2    0    0  0.11042544490E+01 -0.24453299120E+01  0.29151748326E+02  0.29328845455E+02  0.17770000000E+01 0.  1.
</event>
<event>
 6    1  0.8353910E-003  0.1851156E+03  0.7546771E-02  0.1066392E+00
        -11   -1    0    0    0    0  0.00000000000E+00  0.00000000000E+00  0.18250000000E+03  0.18250000000E+03  0.00000000000E+00 0. -1.
         11   -1    0    0    0    0 -0.00000000000E+00 -0.00000000000E+00 -0.18250000000E+03  0.18250000000E+03  0.00000000000E+00 0.  1.
        -11    1    1    2    0    0  0.24977117889E+01 -0.13695875677E+01  0.17986180714E+03  0.17988436286E+03  0.00000000000E+00 0. -1.
         11    1    1    2    0    0  0.25443133000E+01  0.13996062960E+01 -0.17509937855E+03  0.17512345587E+03  0.00000000000E+00 0.  1.
        -15    1    1    2    0    0 -0.38082492861E+00  0.19139767100E+01  0.25897993705E+00  0.26520056713E+01  0.17770000000E+01 0.  1.
         15    1    1    2    0    0 -0.46612001602E+01 -0.19439954383E+01 -0.50214085295E+01  0.73401755986E+01  0.17770000000E+01 0. -1.
</event>
<event>
 6    1  0.8353910E-003  0.1793166E+03  0.7546771E-02  0.1071017E+00
        -11   -1    0    0    0    0  0.00000000000E+00  0.00000000000E+00  0.18250000000E+03  0.18250000000E+03  0.00000000000E+00 0.  1.
         11   -1    0    0    0    0 -0.00000000000E+00 -0.00000000000E+00 -0.18250000000E+03  0.18250000000E+03  0.00000000000E+00 0. -1.
        -11    1    1    2    0    0  0.34721923559E+01  0.72216585833E+00  0.17905620082E+03  0.17909131943E+03  0.00000000000E+00 0.  1.
         11    1    1    2    0    0 -0.27858682757E+00  0.26219175516E+01 -0.17955262267E+03  0.17957198103E+03  0.00000000000E+00 0. -1.
        -15    1    1    2    0    0 -0.25803510395E+01 -0.30946101457E+01  0.56092634357E+00  0.44392781850E+01  0.17770000000E+01 0.  1.
         15    1    1    2    0    0 -0.61325448884E+00 -0.24947326426E+00 -0.64504489122E-01  0.18974213572E+01  0.17770000000E+01 0. -1.
</event>
<event>
 6    1  0.8353910E-003  0.1877652E+03  0.7546771E-02  0.1064339E+00
        -11   -1    0    0    0    0  0.00000000000E+00  0.00000000000E+00  0.18250000000E+03  0.18250000000E+03  0.00000000000E+00 0. -1.
         11   -1    0    0    0    0 -0.00000000000E+00 -0.00000000000E+00 -0.18250000000E+03  0.18250000000E+03  0.00000000000E+00 0. -1.
        -11    1    1    2    0    0  0.36036074923E+01 -0.19101444692E+01  0.17718782367E+03  0.17723475814E+03  0.00000000000E+00 0. -1.
         11    1    1    2    0    0  0.32389159369E+01 -0.60209693845E+00 -0.85829237346E+02  0.85892439018E+02  0.00000000000E+00 0. -1.
        -15    1    1    2    0    0 -0.24684629627E+01  0.20307563843E+01  0.45552182659E+01  0.58416627206E+01  0.17770000000E+01 0. -1.
         15    1    1    2    0    0 -0.43740604665E+01  0.48148502340E+00 -0.95913804587E+02  0.96031140116E+02  0.17770000000E+01 0. -1.
</event>
<event>
 6    1  0.8353910E-003  0.1826174E+03  0.7546771E-02  0.1068361E+00
        -11   -1    0    0    0    0  0.00000000000E+00  0.00000000000E+00  0.18250000000E+03  0.18250000000E+03  0.00000000000E+00 0. -1.
         11   -1    0    0    0    0 -0.00000000000E+00 -0.00000000000E+00 -0.18250000000E+03  0.18250000000E+03  0.00000000000E+00 0. -1.
        -11    1    1    2    0    0 -0.18335049100E+01 -0.35614945496E+00  0.31105050262E+02  0.31161077236E+02  0.00000000000E+00 0. -1.
         11    1    1    2    0    0 -0.29063652583E+01 -0.10598567131E+01 -0.18235638019E+03  0.18238261883E+03  0.00000000000E+00 0. -1.
        -15    1    1    2    0    0  0.89391154299E+00 -0.17927554865E+00  0.15323571302E+02  0.15453180385E+02  0.17770000000E+01 0.  1.
         15    1    1    2    0    0  0.38459586253E+01  0.15952817167E+01  0.13592775863E+03  0.13600312355E+03  0.17770000000E+01 0. -1.
</event>
<event>
 6    1  0.8353910E-003  0.1920491E+03  0.7546771E-02  0.1061098E+00
        -11   -1    0    0    0    0  0.00000000000E+00  0.00000000000E+00  0.18250000000E+03  0.18250000000E+03  0.00000000000E+00 0.  1.
         11   -1    0    0    0    0 -0.00000000000E+00 -0.00000000000E+00 -0.18250000000E+03  0.18250000000E+03  0.00000000000E+00 0.  1.
        -11    1    1    2    0    0  0.31735161267E+01 -0.35993772833E+01  0.17288427517E+03  0.17295085812E+03  0.00000000000E+00 0.  1.
         11    1    1    2    0    0  0.42736644602E+01 -0.43257014040E+01 -0.12345619561E+03  0.12360585801E+03  0.00000000000E+00 0.  1.
        -15    1    1    2    0    0  0.38668761112E+01 -0.16398239584E+02 -0.32563347059E+02  0.36706733619E+02  0.17770000000E+01 0.  1.
         15    1    1    2    0    0 -0.11314056698E+02  0.24323318272E+02 -0.16864732506E+02  0.31736550257E+02  0.17770000000E+01 0. -1.
</event>
<event>
 6    1  0.8353910E-003  0.1866875E+03  0.7546771E-02  0.1065170E+00
        -11   -1    0    0    0    0  0.00000000000E+00  0.00000000000E+00  0.18250000000E+03  0.18250000000E+03  0.00000000000E+00 0.  1.
         11   -1    0    0    0    0 -0.00000000000E+00 -0.00000000000E+00 -0.18250000000E+03  0.18250000000E+03  0.00000000000E+00 0. -1.
        -11    1    1    2    0    0  0.43160924605E+01 -0.78797907874E+01  0.17808598598E+03  0.17831247337E+03  0.00000000000E+00 0.  1.
         11    1    1    2    0    0 -0.16162076459E+01 -0.11973343036E+02 -0.14903450223E+03  0.14952342936E+03  0.00000000000E+00 0. -1.
        -15    1    1    2    0    0 -0.31569528240E+00  0.22781723945E+01  0.19595828551E+00  0.29130502261E+01  0.17770000000E+01 0.  1.
         15    1    1    2    0    0 -0.23841895322E+01  0.17574961429E+02 -0.29247442034E+02  0.34251047042E+02  0.17770000000E+01 0. -1.
</event>
<event>
 6    1  0.8353910E-003  0.1857174E+03  0.7546771E-02  0.1065922E+00
        -11   -1    0    0    0    0  0.00000000000E+00  0.00000000000E+00  0.18250000000E+03  0.18250000000E+03  0.00000000000E+00 0. -1.
         11   -1    0    0    0    0 -0.00000000000E+00 -0.00000000000E+00 -0.18250000000E+03  0.18250000000E+03  0.00000000000E+00 0. -1.
        -11    1    1    2    0    0 -0.84523051743E+01 -0.10750460929E+02  0.94927828144E+02  0.95907801711E+02  0.00000000000E+00 0. -1.
         11    1    1    2    0    0  0.21300817916E+01 -0.14046948235E+02 -0.17871875180E+03  0.17928258769E+03  0.00000000000E+00 0. -1.
        -15    1    1    2    0    0  0.18218490994E+01  0.32031899547E+01  0.44720790070E+02  0.44907531145E+02  0.17770000000E+01 0.  1.
         15    1    1    2    0    0  0.45003742833E+01  0.21594219209E+02  0.39070133587E+02  0.44902079456E+02  0.17770000000E+01 0. -1.
</event>
<event>
 6    1  0.8353910E-003  0.1830349E+03  0.7546771E-02  0.1068030E+00
        -11   -1    0    0    0    0  0.00000000000E+00  0.00000000000E+00  0.18250000000E+03  0.18250000000E+03  0.00000000000E+00 0.  1.
         11   -1    0    0    0    0 -0.00000000000E+00 -0.00000000000E+00 -0.18250000000E+03  0.18250000000E+03  0.00000000000E+00 0.  1.
        -11    1    1    2    0    0 -0.19221407202E+01  0.17578890421E+01  0.18194643757E+03  0.18196508166E+03  0.00000000000E+00 0.  1.
         11    1    1    2    0    0  0.23258073702E+00 -0.21964531832E+01 -0.15447808103E+03  0.15449387049E+03  0.00000000000E+00 0.  1.
        -15    1    1    2    0    0 -0.13680103177E+01 -0.23014417218E+01 -0.97125504896E+01  0.10230320241E+02  0.17770000000E+01 0. -1.
         15    1    1    2    0    0  0.30575703008E+01  0.27400058630E+01 -0.17755806043E+02  0.18310727608E+02  0.17770000000E+01 0.  1.
</event>
<event>
 6    1  0.8353910E-003  0.1826624E+03  0.7546771E-02  0.1068326E+00
        -11   -1    0    0    0    0  0.00000000000E+00  0.00000000000E+00  0.18250000000E+03  0.18250000000E+03  0.00000000000E+00 0.  1.
         11   -1    0    0    0    0 -0.00000000000E+00 -0.00000000000E+00 -0.18250000000E+03  0.18250000000E+03  0.00000000000E+00 0. -1.
        -11    1    1    2    0    0  0.12113183495E+00  0.18327573009E+01  0.96203565355E+02  0.96221097786E+02  0.00000000000E+00 0.  1.
         11    1    1    2    0    0  0.55475187485E+01 -0.96634326743E+00 -0.18225058448E+03  0.18233755600E+03  0.00000000000E+00 0. -1.
        -15    1    1    2    0    0 -0.35676845815E+01  0.73115311725E+00  0.67645691743E+02  0.67766955801E+02  0.17770000000E+01 0.  1.
         15    1    1    2    0    0 -0.21009660020E+01 -0.15975671507E+01  0.18401327383E+02  0.18674390416E+02  0.17770000000E+01 0. -1.
</event>
<event>
 6    1  0.1301057E-002  0.1914203E+03  0.7546771E-02  0.1061568E+00
        -11   -1    0    0    0    0  0.00000000000E+00  0.00000000000E+00  0.18250000000E+03  0.18250000000E+03  0.00000000000E+00 0.  1.
         11   -1    0    0    0    0 -0.00000000000E+00 -0.00000000000E+00 -0.18250000000E+03  0.18250000000E+03  0.00000000000E+00 0.  1.
        -11    1    1    2    0    0  0.24396011960E+01 -0.64351587826E-01  0.17356259246E+03  0.17357974910E+03  0.00000000000E+00 0.  1.
         11    1    1    2    0    0  0.73977080227E+01  0.28346132466E+00 -0.15765842023E+03  0.15783213837E+03  0.00000000000E+00 0.  1.
        -15    1    1    2    0    0 -0.10591724154E+01 -0.99708576437E+00  0.78556392900E+01  0.81844256904E+01  0.17770000000E+01 0.  1.
         15    1    1    2    0    0 -0.87781368033E+01  0.77797602754E+00 -0.23759811521E+02  0.25403686837E+02  0.17770000000E+01 0.  1.
</event>
<event>
 6    1  0.8353910E-003  0.1832816E+03  0.7546771E-02  0.1067834E+00
        -11   -1    0    0    0    0  0.00000000000E+00  0.00000000000E+00  0.18250000000E+03  0.18250000000E+03  0.00000000000E+00 0.  1.
         11   -1    0    0    0    0 -0.00000000000E+00 -0.00000000000E+00 -0.18250000000E+03  0.18250000000E+03  0.00000000000E+00 0.  1.
        -11    1    1    2    0    0  0.30657020754E+01 -0.30277963507E+01  0.15613821740E+03  0.15619766008E+03  0.00000000000E+00 0.  1.
         11    1    1    2    0    0 -0.34116954783E+01 -0.19548403278E+01 -0.18167589583E+03  0.18171844208E+03  0.00000000000E+00 0.  1.
        -15    1    1    2    0    0 -0.11272866265E+01  0.59503533734E+01  0.20644195639E+02  0.21587450590E+02  0.17770000000E+01 0.  1.
         15    1    1    2    0    0  0.14732800294E+01 -0.96771669489E+00  0.48934827843E+01  0.54964472531E+01  0.17770000000E+01 0. -1.
</event>
<event>
 6    1  0.8353910E-003  0.1838659E+03  0.7546771E-02  0.1067373E+00
        -11   -1    0    0    0    0  0.00000000000E+00  0.00000000000E+00  0.18250000000E+03  0.18250000000E+03  0.00000000000E+00 0. -1.
         11   -1    0    0    0    0 -0.00000000000E+00 -0.00000000000E+00 -0.18250000000E+03  0.18250000000E+03  0.00000000000E+00 0.  1.
        -11    1    1    2    0    0  0.60652896232E+01  0.36486850987E+01  0.13289508070E+03  0.13308344418E+03  0.00000000000E+00 0. -1.
         11    1    1    2    0    0  0.63257558966E+01 -0.19285189715E+01 -0.18101329278E+03  0.18113405681E+03  0.00000000000E+00 0.  1.
        -15    1    1    2    0    0 -0.34604254948E+01 -0.13779740494E+01  0.32015510525E+02  0.32280396532E+02  0.17770000000E+01 0. -1.
         15    1    1    2    0    0 -0.89306200249E+01 -0.34219207784E+00  0.16102701564E+02  0.18502102478E+02  0.17770000000E+01 0.  1.
</event>
<event>
 6    1  0.8353910E-003  0.1907387E+03  0.7546771E-02  0.1062080E+00
        -11   -1    0    0    0    0  0.00000000000E+00  0.00000000000E+00  0.18250000000E+03  0.18250000000E+03  0.00000000000E+00 0. -1.
         11   -1    0    0    0    0 -0.00000000000E+00 -0.00000000000E+00 -0.18250000000E+03  0.18250000000E+03  0.00000000000E+00 0. -1.
        -11    1    1    2    0    0  0.50460415678E+01  0.35080483714E+01  0.17415288747E+03  0.17426128988E+03  0.00000000000E+00 0. -1.
         11    1    1    2    0    0  0.15547838048E+01  0.10105973331E+00 -0.61324734969E+02  0.61344524489E+02  0.00000000000E+00 0. -1.
        -15    1    1    2    0    0 -0.11155435600E+02 -0.40174817742E+01  0.38658652614E+01  0.12597084839E+02  0.17770000000E+01 0. -1.
         15    1    1    2    0    0  0.45546102273E+01  0.40837366952E+00 -0.11669401776E+03  0.11679710079E+03  0.17770000000E+01 0.  1.
</event>
<event>
 6    1  0.8353910E-003  0.1705037E+03  0.7546771E-02  0.1078426E+00
        -11   -1    0    0    0    0  0.00000000000E+00  0.00000000000E+00  0.18250000000E+03  0.18250000000E+03  0.00000000000E+00 0.  1.
         11   -1    0    0    0    0 -0.00000000000E+00 -0.00000000000E+00 -0.18250000000E+03  0.18250000000E+03  0.00000000000E+00 0. -1.
        -11    1    1    2    0    0 -0.52453658684E+01  0.29169837229E+01  0.17305849690E+03  0.17316254215E+03  0.00000000000E+00 0.  1.
         11    1    1    2    0    0 -0.36483946846E+01  0.21409429951E+00 -0.16797326853E+03  0.16801302200E+03  0.00000000000E+00 0. -1.
        -15    1    1    2    0    0 -0.57370608464E-01  0.73368854771E+01  0.25603110553E+01  0.79715808715E+01  0.17770000000E+01 0.  1.
         15    1    1    2    0    0  0.89511311615E+01 -0.10467963500E+02 -0.76455394245E+01  0.15852854979E+02  0.17770000000E+01 0. -1.
</event>
<event>
 6    1  0.8353910E-003  0.1829032E+03  0.7546771E-02  0.1068134E+00
        -11   -1    0    0    0    0  0.00000000000E+00  0.00000000000E+00  0.18250000000E+03  0.18250000000E+03  0.00000000000E+00 0.  1.
         11   -1    0    0    0    0 -0.00000000000E+00 -0.00000000000E+00 -0.18250000000E+03  0.18250000000E+03  0.00000000000E+00 0. -1.
        -11    1    1    2    0    0 -0.11349822039E+01 -0.41569916325E+01  0.18204581250E+03  0.18209680561E+03  0.00000000000E+00 0.  1.
         11    1    1    2    0    0 -0.18359167907E+01  0.11232662770E+01 -0.14308974557E+03  0.14310593141E+03  0.00000000000E+00 0. -1.
        -15    1    1    2    0    0 -0.21873934622E+00  0.37888342851E+01 -0.25143316682E+02  0.25490139563E+02  0.17770000000E+01 0.  1.
         15    1    1    2    0    0  0.31896383409E+01 -0.75510892963E+00 -0.13812750244E+02  0.14307123420E+02  0.17770000000E+01 0.  1.
</event>
<event>
 6    1  0.8353910E-003  0.1904448E+03  0.7546771E-02  0.1062301E+00
        -11   -1    0    0    0    0  0.00000000000E+00  0.00000000000E+00  0.18250000000E+03  0.18250000000E+03  0.00000000000E+00 0.  1.
         11   -1    0    0    0    0 -0.00000000000E+00 -0.00000000000E+00 -0.18250000000E+03  0.18250000000E+03  0.00000000000E+00 0. -1.
        -11    1    1    2    0    0 -0.20648967942E+01 -0.16172968325E+01  0.17026920898E+03  0.17028940946E+03  0.00000000000E+00 0.  1.
         11    1    1    2    0    0  0.22196217679E+01 -0.17410366165E+01 -0.17453239648E+03  0.17455519285E+03  0.00000000000E+00 0. -1.
        -15    1    1    2    0    0  0.76247236545E+01  0.73560873176E+01  0.28945209324E+01  0.11125844321E+02  0.17770000000E+01 0.  1.
         15    1    1    2    0    0 -0.77794486282E+01 -0.39977538686E+01  0.13686665723E+01  0.90295533742E+01  0.17770000000E+01 0. -1.
</event>
<event>
 6    1  0.8353910E-003  0.2048943E+03  0.7546771E-02  0.1051906E+00
        -11   -1    0    0    0    0  0.00000000000E+00  0.00000000000E+00  0.18250000000E+03  0.18250000000E+03  0.00000000000E+00 0. -1.
         11   -1    0    0    0    0 -0.00000000000E+00 -0.00000000000E+00 -0.18250000000E+03  0.18250000000E+03  0.00000000000E+00 0. -1.
        -11    1    1    2    0    0  0.20705182042E+01  0.83577647448E+00  0.16009013282E+03  0.16010570319E+03  0.00000000000E+00 0. -1.
         11    1    1    2    0    0 -0.12094255866E+02 -0.24365427484E+01 -0.15134511149E+03  0.15184712884E+03  0.00000000000E+00 0. -1.
        -15    1    1    2    0    0 -0.12835275962E+02  0.14124267074E+02 -0.17029487544E+02  0.25639820678E+02  0.17770000000E+01 0.  1.
         15    1    1    2    0    0  0.22859013624E+02 -0.12523500800E+02  0.82844662132E+01  0.27407347292E+02  0.17770000000E+01 0. -1.
</event>
<event>
 6    1  0.8353910E-003  0.1853541E+03  0.7546771E-02  0.1066205E+00
        -11   -1    0    0    0    0  0.00000000000E+00  0.00000000000E+00  0.18250000000E+03  0.18250000000E+03  0.00000000000E+00 0. -1.
         11   -1    0    0    0    0 -0.00000000000E+00 -0.00000000000E+00 -0.18250000000E+03  0.18250000000E+03  0.00000000000E+00 0.  1.
        -11    1    1    2    0    0 -0.92477528072E+00  0.30219999999E+01  0.17961813001E+03  0.17964593044E+03  0.00000000000E+00 0. -1.
         11    1    1    2    0    0 -0.17874710301E+01 -0.42269492538E+01 -0.17624190420E+03  0.17630164761E+03  0.00000000000E+00 0.  1.
        -15    1    1    2    0    0  0.85398271013E+00  0.24593465335E+00  0.21222856407E+01  0.29071628203E+01  0.17770000000E+01 0. -1.
         15    1    1    2    0    0  0.18582636007E+01  0.95901460058E+00 -0.54985114500E+01  0.61452591304E+01  0.17770000000E+01 0.  1.
</event>
<event>
 6    1  0.8353910E-003  0.1280821E+03  0.7546771E-02  0.1122551E+00
        -11   -1    0    0    0    0  0.00000000000E+00  0.00000000000E+00  0.18250000000E+03  0.18250000000E+03  0.00000000000E+00 0.  1.
         11   -1    0    0    0    0 -0.00000000000E+00 -0.00000000000E+00 -0.18250000000E+03  0.18250000000E+03  0.00000000000E+00 0.  1.
        -11    1    1    2    0    0  0.68550342673E+02  0.21491076713E+02  0.12549643100E+03  0.14460418408E+03  0.00000000000E+00 0.  1.
         11    1    1    2    0    0 -0.18836890490E+01 -0.59599359197E+00 -0.12093939319E+03  0.12095553034E+03  0.00000000000E+00 0.  1.
        -15    1    1    2    0    0 -0.68270979459E+02 -0.21408204865E+02  0.20354263660E+02  0.74408948722E+02  0.17770000000E+01 0.  1.
         15    1    1    2    0    0  0.16043258345E+01  0.51312174398E+00 -0.24911301468E+02  0.25031336863E+02  0.17770000000E+01 0.  1.
</event>
<event>
 6    1  0.8353910E-003  0.1830811E+03  0.7546771E-02  0.1067993E+00
        -11   -1    0    0    0    0  0.00000000000E+00  0.00000000000E+00  0.18250000000E+03  0.18250000000E+03  0.00000000000E+00 0. -1.
         11   -1    0    0    0    0 -0.00000000000E+00 -0.00000000000E+00 -0.18250000000E+03  0.18250000000E+03  0.00000000000E+00 0.  1.
        -11    1    1    2    0    0 -0.18346297459E+01 -0.11014440501E+01  0.12090527798E+03  0.12092421300E+03  0.00000000000E+00 0. -1.
         11    1    1    2    0    0  0.15947357540E+01  0.19465693999E+01 -0.18190148251E+03  0.18191888757E+03  0.00000000000E+00 0.  1.
        -15    1    1    2    0    0  0.21729123116E+01  0.10687930086E+01  0.56654210571E+02  0.56733774516E+02  0.17770000000E+01 0.  1.
         15    1    1    2    0    0 -0.19330183197E+01 -0.19139183584E+01  0.43419939589E+01  0.54231249153E+01  0.17770000000E+01 0.  1.
</event>
<event>
 6    1  0.8353910E-003  0.1831186E+03  0.7546771E-02  0.1067963E+00
        -11   -1    0    0    0    0  0.00000000000E+00  0.00000000000E+00  0.18250000000E+03  0.18250000000E+03  0.00000000000E+00 0.  1.
         11   -1    0    0    0    0 -0.00000000000E+00 -0.00000000000E+00 -0.18250000000E+03  0.18250000000E+03  0.00000000000E+00 0.  1.
        -11    1    1    2    0    0  0.33609890097E+01  0.21963366099E+01  0.16131066989E+03  0.16136062829E+03  0.00000000000E+00 0.  1.
         11    1    1    2    0    0 -0.30160353313E+01 -0.41466215835E+01 -0.18180913988E+03  0.18188142919E+03  0.00000000000E+00 0.  1.
        -15    1    1    2    0    0  0.27653557700E+01  0.15015018055E+01  0.87367247945E+01  0.94546173556E+01  0.17770000000E+01 0.  1.
         15    1    1    2    0    0 -0.31103094485E+01  0.44878316818E+00  0.11761745197E+02  0.12303325172E+02  0.17770000000E+01 0. -1.
</event>
<event>
 6    1  0.8353910E-003  0.1878782E+03  0.7546771E-02  0.1064253E+00
        -11   -1    0    0    0    0  0.00000000000E+00  0.00000000000E+00  0.18250000000E+03  0.18250000000E+03  0.00000000000E+00 0.  1.
         11   -1    0    0    0    0 -0.00000000000E+00 -0.00000000000E+00 -0.18250000000E+03  0.18250000000E+03  0.00000000000E+00 0. -1.
        -11    1    1    2    0    0 -0.10857584866E+01 -0.75400372965E+01  0.14706612734E+03  0.14726329089E+03  0.00000000000E+00 0.  1.
         11    1    1    2    0    0  0.62924133150E+01  0.72040900372E+01 -0.17686329180E+03  0.17712175859E+03  0.00000000000E+00 0. -1.
        -15    1    1    2    0    0 -0.56207774464E+01 -0.58783830340E+01 -0.16676960936E+01  0.84904337614E+01  0.17770000000E+01 0. -1.
         15    1    1    2    0    0  0.41412261803E+00  0.62143302933E+01  0.31464860551E+02  0.32124516760E+02  0.17770000000E+01 0. -1.
</event>
<event>
 6    1  0.8353910E-003  0.1908704E+03  0.7546771E-02  0.1061981E+00
        -11   -1    0    0    0    0  0.00000000000E+00  0.00000000000E+00  0.18250000000E+03  0.18250000000E+03  0.00000000000E+00 0. -1.
         11   -1    0    0    0    0 -0.00000000000E+00 -0.00000000000E+00 -0.18250000000E+03  0.18250000000E+03  0.00000000000E+00 0. -1.
        -11    1    1    2    0    0  0.10075997592E+02 -0.16059131952E+02  0.17309450096E+03  0.17412962904E+03  0.00000000000E+00 0. -1.
         11    1    1    2    0    0 -0.17601914014E+01  0.15278413469E+02 -0.69695364708E+02  0.71372067741E+02  0.00000000000E+00 0. -1.
        -15    1    1    2    0    0 -0.26665197399E+02 -0.17490102562E+02 -0.71959520256E+02  0.78729071660E+02  0.17770000000E+01 0. -1.
         15    1    1    2    0    0  0.18349391208E+02  0.18270821045E+02 -0.31439615994E+02  0.40769231563E+02  0.17770000000E+01 0.  1.
</event>
<event>
 6    1  0.8353910E-003  0.1850591E+03  0.7546771E-02  0.1066436E+00
        -11   -1    0    0    0    0  0.00000000000E+00  0.00000000000E+00  0.18250000000E+03  0.18250000000E+03  0.00000000000E+00 0.  1.
         11   -1    0    0    0    0 -0.00000000000E+00 -0.00000000000E+00 -0.18250000000E+03  0.18250000000E+03  0.00000000000E+00 0. -1.
        -11    1    1    2    0    0 -0.34318805122E+01 -0.24895743580E+01  0.17989096421E+03  0.17994092027E+03  0.00000000000E+00 0.  1.
         11    1    1    2    0    0  0.94023782806E+00 -0.24845242839E+01 -0.16763771158E+03  0.16765875835E+03  0.00000000000E+00 0. -1.
        -15    1    1    2    0    0  0.36599080131E+01  0.59797032328E+00  0.11046689456E+00  0.41136877746E+01  0.17770000000E+01 0. -1.
         15    1    1    2    0    0 -0.11682653290E+01  0.43761283186E+01 -0.12363719530E+02  0.13286633605E+02  0.17770000000E+01 0.  1.
</event>
<event>
 6    1  0.8353910E-003  0.1835347E+03  0.7546771E-02  0.1067634E+00
        -11   -1    0    0    0    0  0.00000000000E+00  0.00000000000E+00  0.18250000000E+03  0.18250000000E+03  0.00000000000E+00 0.  1.
         11   -1    0    0    0    0 -0.00000000000E+00 -0.00000000000E+00 -0.18250000000E+03  0.18250000000E+03  0.00000000000E+00 0.  1.
        -11    1    1    2    0    0  0.13907864686E+01 -0.28756605774E+01  0.16909370492E+03  0.16912387399E+03  0.00000000000E+00 0.  1.
         11    1    1    2    0    0 -0.48235173272E+01 -0.11180344064E+01 -0.18139778120E+03  0.18146534475E+03  0.00000000000E+00 0.  1.
        -15    1    1    2    0    0  0.39029261248E+01  0.27765698273E+01  0.99541742388E+01  0.11188632004E+02  0.17770000000E+01 0.  1.
         15    1    1    2    0    0 -0.47019526626E+00  0.12171251565E+01  0.23499020454E+01  0.32221492606E+01  0.17770000000E+01 0. -1.
</event>
<event>
 6    1  0.8353910E-003  0.1868292E+03  0.7546771E-02  0.1065060E+00
        -11   -1    0    0    0    0  0.00000000000E+00  0.00000000000E+00  0.18250000000E+03  0.18250000000E+03  0.00000000000E+00 0. -1.
         11   -1    0    0    0    0 -0.00000000000E+00 -0.00000000000E+00 -0.18250000000E+03  0.18250000000E+03  0.00000000000E+00 0.  1.
        -11    1    1    2    0    0 -0.22399540064E+01 -0.30484952642E+01  0.15976114074E+03  0.15980592232E+03  0.00000000000E+00 0. -1.
         11    1    1    2    0    0  0.15881205044E+01  0.40973804817E+01 -0.17811664015E+03  0.17817083979E+03  0.00000000000E+00 0.  1.
        -15    1    1    2    0    0  0.74718683378E+01 -0.55113528651E+00  0.18412498701E+02  0.19957715399E+02  0.17770000000E+01 0.  1.
         15    1    1    2    0    0 -0.68200348358E+01 -0.49774993097E+00 -0.56999295863E-01  0.70655224913E+01  0.17770000000E+01 0. -1.
</event>
<event>
 6    1  0.8353910E-003  0.1880127E+03  0.7546771E-02  0.1064149E+00
        -11   -1    0    0    0    0  0.00000000000E+00  0.00000000000E+00  0.18250000000E+03  0.18250000000E+03  0.00000000000E+00 0. -1.
         11   -1    0    0    0    0 -0.00000000000E+00 -0.00000000000E+00 -0.18250000000E+03  0.18250000000E+03  0.00000000000E+00 0.  1.
        -11    1    1    2    0    0 -0.36794558556E+01  0.34712443923E+01  0.17691501686E+03  0.17698731911E+03  0.00000000000E+00 0. -1.
         11    1    1    2    0    0 -0.19233549440E+01  0.11824291445E+01 -0.14249468024E+03  0.14251256551E+03  0.00000000000E+00 0.  1.
        -15    1    1    2    0    0  0.13228340960E+01 -0.18694899116E+01 -0.38573807226E+02  0.38682569918E+02  0.17770000000E+01 0.  1.
         15    1    1    2    0    0  0.42799767036E+01 -0.27841836253E+01  0.41534706018E+01  0.68175454588E+01  0.17770000000E+01 0. -1.
</event>
<event>
 6    1  0.8353910E-003  0.1837862E+03  0.7546771E-02  0.1067436E+00
        -11   -1    0    0    0    0  0.00000000000E+00  0.00000000000E+00  0.18250000000E+03  0.18250000000E+03  0.00000000000E+00 0. -1.
         11   -1    0    0    0    0 -0.00000000000E+00 -0.00000000000E+00 -0.18250000000E+03  0.18250000000E+03  0.00000000000E+00 0.  1.
        -11    1    1    2    0    0 -0.66378834453E+01 -0.18197221042E+02  0.18017554631E+03  0.18121376283E+03  0.00000000000E+00 0. -1.
         11    1    1    2    0    0 -0.23014354175E+01  0.37421680890E+01 -0.54856920660E+02  0.55032555559E+02  0.00000000000E+00 0.  1.
        -15    1    1    2    0    0  0.14136590422E+02  0.18032858614E+02 -0.96515104684E+02  0.99213660046E+02  0.17770000000E+01 0.  1.
         15    1    1    2    0    0 -0.51972715597E+01 -0.35778056617E+01 -0.28803520967E+02  0.29540021566E+02  0.17770000000E+01 0. -1.
</event>
<event>
 6    1  0.8353910E-003  0.1842850E+03  0.7546771E-02  0.1067043E+00
        -11   -1    0    0    0    0  0.00000000000E+00  0.00000000000E+00  0.18250000000E+03  0.18250000000E+03  0.00000000000E+00 0.  1.
         11   -1    0    0    0    0 -0.00000000000E+00 -0.00000000000E+00 -0.18250000000E+03  0.18250000000E+03  0.00000000000E+00 0.  1.
        -11    1    1    2    0    0 -0.72841896121E+01  0.25836348352E+01  0.18054962936E+03  0.18071497793E+03  0.00000000000E+00 0.  1.
         11    1    1    2    0    0 -0.36194742348E+01 -0.56707367589E+01 -0.11884362647E+03  0.11903388341E+03  0.00000000000E+00 0.  1.
        -15    1    1    2    0    0  0.61257759394E+01 -0.46892248874E+01 -0.48249562908E+02  0.48894703300E+02  0.17770000000E+01 0.  1.
         15    1    1    2    0    0  0.47778879075E+01  0.77763268111E+01 -0.13456439984E+02  0.16356435356E+02  0.17770000000E+01 0. -1.
</event>
<event>
 6    1  0.8353910E-003  0.1887764E+03  0.7546771E-02  0.1063566E+00
        -11   -1    0    0    0    0  0.00000000000E+00  0.00000000000E+00  0.18250000000E+03  0.18250000000E+03  0.00000000000E+00 0. -1.
         11   -1    0    0    0    0 -0.00000000000E+00 -0.00000000000E+00 -0.18250000000E+03  0.18250000000E+03  0.00000000000E+00 0. -1.
        -11    1    1    2    0    0  0.45717995174E+01  0.10028595268E+02  0.15264535071E+03  0.15304272987E+03  0.00000000000E+00 0. -1.
         11    1    1    2    0    0 -0.57547370322E+01 -0.26745057976E+01 -0.17610927290E+03  0.17622356817E+03  0.00000000000E+00 0. -1.
        -15    1    1    2    0    0  0.31126428861E+01  0.47129516856E+01 -0.29207352392E+01  0.66021877181E+01  0.17770000000E+01 0. -1.
         15    1    1    2    0    0 -0.19297053714E+01 -0.12067041156E+02  0.26384657425E+02  0.29131514233E+02  0.17770000000E+01 0.  1.
</event>
<event>
 6    1  0.8353910E-003  0.1766240E+03  0.7546771E-02  0.1073231E+00
        -11   -1    0    0    0    0  0.00000000000E+00  0.00000000000E+00  0.18250000000E+03  0.18250000000E+03  0.00000000000E+00 0. -1.
         11   -1    0    0    0    0 -0.00000000000E+00 -0.00000000000E+00 -0.18250000000E+03  0.18250000000E+03  0.00000000000E+00 0.  1.
        -11    1    1    2    0    0 -0.99646566985E+01  0.32042479148E+01  0.17865138811E+03  0.17895776055E+03  0.00000000000E+00 0. -1.
         11    1    1    2    0    0  0.38316781209E+01  0.36259429980E+01 -0.17435578281E+03  0.17443557039E+03  0.00000000000E+00 0.  1.
        -15    1    1    2    0    0  0.27522521068E+01 -0.52398320589E+00 -0.20487092404E+01  0.38992805248E+01  0.17770000000E+01 0. -1.
         15    1    1    2    0    0  0.33807264708E+01 -0.63062077069E+01 -0.22468960597E+01  0.77073885341E+01  0.17770000000E+01 0.  1.
</event>
<event>
 6    1  0.8353910E-003  0.1828004E+03  0.7546771E-02  0.1068216E+00
        -11   -1    0    0    0    0  0.00000000000E+00  0.00000000000E+00  0.18250000000E+03  0.18250000000E+03  0.00000000000E+00 0. -1.
         11   -1    0    0    0    0 -0.00000000000E+00 -0.00000000000E+00 -0.18250000000E+03  0.18250000000E+03  0.00000000000E+00 0.  1.
        -11    1    1    2    0    0 -0.32124338985E+01  0.29071702989E+01  0.18214809143E+03  0.18219961192E+03  0.00000000000E+00 0. -1.
         11    1    1    2    0    0 -0.25476173974E+01 -0.27355022845E+00 -0.12769032468E+03  0.12771602953E+03  0.00000000000E+00 0.  1.
        -15    1    1    2    0    0  0.13775937943E+00 -0.12296401550E+01 -0.17390457287E+02  0.17524746110E+02  0.17770000000E+01 0.  1.
         15    1    1    2    0    0  0.56222919164E+01 -0.14039799154E+01 -0.37067309470E+02  0.37559612436E+02  0.17770000000E+01 0.  1.
</event>
<event>
 6    1  0.8353910E-003  0.1849315E+03  0.7546771E-02  0.1066536E+00
        -11   -1    0    0    0    0  0.00000000000E+00  0.00000000000E+00  0.18250000000E+03  0.18250000000E+03  0.00000000000E+00 0. -1.
         11   -1    0    0    0    0 -0.00000000000E+00 -0.00000000000E+00 -0.18250000000E+03  0.18250000000E+03  0.00000000000E+00 0. -1.
        -11    1    1    2    0    0  0.28699991762E+01  0.69839224538E+00  0.18004431409E+03  0.18006854162E+03  0.00000000000E+00 0. -1.
         11    1    1    2    0    0  0.73816118925E+01 -0.51532654056E+01 -0.51023864637E+02  0.51811959054E+02  0.00000000000E+00 0. -1.
        -15    1    1    2    0    0 -0.43414396835E+01  0.85414329522E+01 -0.12350457893E+03  0.12388842933E+03  0.17770000000E+01 0. -1.
         15    1    1    2    0    0 -0.59101713852E+01 -0.40865597920E+01 -0.55158705204E+01  0.92310699994E+01  0.17770000000E+01 0.  1.
</event>
<event>
 6    1  0.8353910E-003  0.1778926E+03  0.7546771E-02  0.1072183E+00
        -11   -1    0    0    0    0  0.00000000000E+00  0.00000000000E+00  0.18250000000E+03  0.18250000000E+03  0.00000000000E+00 0. -1.
         11   -1    0    0    0    0 -0.00000000000E+00 -0.00000000000E+00 -0.18250000000E+03  0.18250000000E+03  0.00000000000E+00 0.  1.
        -11    1    1    2    0    0 -0.20826243041E+01  0.43021549264E+01  0.17832813843E+03  0.17839218261E+03  0.00000000000E+00 0. -1.
         11    1    1    2    0    0 -0.28389067466E+01  0.11866921439E+01 -0.17744378500E+03  0.17747046082E+03  0.00000000000E+00 0.  1.
        -15    1    1    2    0    0  0.36502616512E+01 -0.51710469195E+01 -0.16882743505E+01  0.67876458104E+01  0.17770000000E+01 0.  1.
         15    1    1    2    0    0  0.12712693995E+01 -0.31780015083E+00  0.80392092122E+00  0.23497107630E+01  0.17770000000E+01 0. -1.
</event>
<event>
 6    1  0.8353910E-003  0.1769367E+03  0.7546771E-02  0.1072971E+00
        -11   -1    0    0    0    0  0.00000000000E+00  0.00000000000E+00  0.18250000000E+03  0.18250000000E+03  0.00000000000E+00 0. -1.
         11   -1    0    0    0    0 -0.00000000000E+00 -0.00000000000E+00 -0.18250000000E+03  0.18250000000E+03  0.00000000000E+00 0.  1.
        -11    1    1    2    0    0 -0.29339021214E+01 -0.67986677273E+00  0.17616127809E+03  0.17618701967E+03  0.00000000000E+00 0. -1.
         11    1    1    2    0    0  0.20857050169E+00  0.37859801776E+01 -0.17767336817E+03  0.17771382306E+03  0.00000000000E+00 0.  1.
        -15    1    1    2    0    0  0.12649786706E+01 -0.49305467915E+01 -0.26486362224E+01  0.60069514347E+01  0.17770000000E+01 0. -1.
         15    1    1    2    0    0  0.14603529492E+01  0.18244333867E+01  0.41607263021E+01  0.50922058363E+01  0.17770000000E+01 0.  1.
</event>
<event>
 6    1  0.8353910E-003  0.1831644E+03  0.7546771E-02  0.1067927E+00
        -11   -1    0    0    0    0  0.00000000000E+00  0.00000000000E+00  0.18250000000E+03  0.18250000000E+03  0.00000000000E+00 0. -1.
         11   -1    0    0    0    0 -0.00000000000E+00 -0.00000000000E+00 -0.18250000000E+03  0.18250000000E+03  0.00000000000E+00 0.  1.
        -11    1    1    2    0    0  0.14119469918E+01  0.17482326275E+01  0.15122723609E+03  0.15124393161E+03  0.00000000000E+00 0. -1.
         11    1    1    2    0    0  0.34441094732E+01 -0.24610936268E+01 -0.18178630348E+03  0.18183558234E+03  0.00000000000E+00 0.  1.
        -15    1    1    2    0    0 -0.55893542168E+01  0.83362641710E+00  0.13367351816E+02  0.14621205051E+02  0.17770000000E+01 0.  1.
         15    1    1    2    0    0  0.73329775181E+00 -0.12076541785E+00  0.17191715573E+02  0.17299281003E+02  0.17770000000E+01 0. -1.
</event>
<event>
 6    1  0.8353910E-003  0.1847605E+03  0.7546771E-02  0.1066670E+00
        -11   -1    0    0    0    0  0.00000000000E+00  0.00000000000E+00  0.18250000000E+03  0.18250000000E+03  0.00000000000E+00 0.  1.
         11   -1    0    0    0    0 -0.00000000000E+00 -0.00000000000E+00 -0.18250000000E+03  0.18250000000E+03  0.00000000000E+00 0. -1.
        -11    1    1    2    0    0  0.87065593656E+01  0.42597077011E+01  0.17997870363E+03  0.18023951577E+03  0.00000000000E+00 0.  1.
         11    1    1    2    0    0  0.15482664799E+01 -0.65370377434E+00 -0.11685335258E+03  0.11686543744E+03  0.00000000000E+00 0. -1.
        -15    1    1    2    0    0 -0.22612502825E+01  0.31351063580E+01 -0.53196868178E+02  0.53366718633E+02  0.17770000000E+01 0.  1.
         15    1    1    2    0    0 -0.79935755629E+01 -0.67411102848E+01 -0.99284828625E+01  0.14528328159E+02  0.17770000000E+01 0. -1.
</event>
<event>
 6    1  0.8353910E-003  0.1834119E+03  0.7546771E-02  0.1067731E+00
        -11   -1    0    0    0    0  0.00000000000E+00  0.00000000000E+00  0.18250000000E+03  0.18250000000E+03  0.00000000000E+00 0. -1.
         11   -1    0    0    0    0 -0.00000000000E+00 -0.00000000000E+00 -0.18250000000E+03  0.18250000000E+03  0.00000000000E+00 0. -1.
        -11    1    1    2    0    0  0.24033346765E+01  0.18840344034E+01  0.18156242680E+03  0.18158810652E+03  0.00000000000E+00 0. -1.
         11    1    1    2    0    0  0.32458407868E+01 -0.41478948526E+01 -0.15340616684E+03  0.15349655546E+03  0.00000000000E+00 0. -1.
        -15    1    1    2    0    0 -0.21930400279E+00  0.16238542915E+01 -0.18649276644E+02  0.18805271743E+02  0.17770000000E+01 0. -1.
         15    1    1    2    0    0 -0.54298714605E+01  0.64000615764E+00 -0.95069833123E+01  0.11110066276E+02  0.17770000000E+01 0.  1.
</event>
<event>
 6    1  0.8353910E-003  0.1864174E+03  0.7546771E-02  0.1065379E+00
        -11   -1    0    0    0    0  0.00000000000E+00  0.00000000000E+00  0.18250000000E+03  0.18250000000E+03  0.00000000000E+00 0. -1.
         11   -1    0    0    0    0 -0.00000000000E+00 -0.00000000000E+00 -0.18250000000E+03  0.18250000000E+03  0.00000000000E+00 0. -1.
        -11    1    1    2    0    0  0.10805671835E-01  0.56722998454E+01  0.15302283864E+03  0.15312793425E+03  0.00000000000E+00 0. -1.
         11    1    1    2    0    0  0.37258138465E+01 -0.22121585323E+01 -0.17853001850E+03  0.17858259389E+03  0.00000000000E+00 0. -1.
        -15    1    1    2    0    0 -0.10247185222E+02  0.18162631240E+01  0.63901286552E+01  0.12340789680E+02  0.17770000000E+01 0.  1.
         15    1    1    2    0    0  0.65105657033E+01 -0.52764044371E+01  0.19117051205E+02  0.20948682186E+02  0.17770000000E+01 0. -1.
</event>
<event>
 6    1  0.8353910E-003  0.1871360E+03  0.7546771E-02  0.1064823E+00
        -11   -1    0    0    0    0  0.00000000000E+00  0.00000000000E+00  0.18250000000E+03  0.18250000000E+03  0.00000000000E+00 0. -1.
         11   -1    0    0    0    0 -0.00000000000E+00 -0.00000000000E+00 -0.18250000000E+03  0.18250000000E+03  0.00000000000E+00 0.  1.
        -11    1    1    2    0    0  0.26777824084E+01 -0.21636568178E+01  0.17783068069E+03  0.17786400121E+03  0.00000000000E+00 0. -1.
         11    1    1    2    0    0 -0.10677134951E+01 -0.22251592757E+01 -0.13852779046E+03  0.13854977473E+03  0.00000000000E+00 0.  1.
        -15    1    1    2    0    0 -0.24270018115E+01  0.20794254597E+00 -0.42730672435E+02  0.42836919516E+02  0.17770000000E+01 0.  1.
         15    1    1    2    0    0  0.81693289813E+00  0.41808735475E+01  0.34277822040E+01  0.57493045509E+01  0.17770000000E+01 0. -1.
</event>
<event>
 6    1  0.8353910E-003  0.1847195E+03  0.7546771E-02  0.1066702E+00
        -11   -1    0    0    0    0  0.00000000000E+00  0.00000000000E+00  0.18250000000E+03  0.18250000000E+03  0.00000000000E+00 0.  1.
         11   -1    0    0    0    0 -0.00000000000E+00 -0.00000000000E+00 -0.18250000000E+03  0.18250000000E+03  0.00000000000E+00 0.  1.
        -11    1    1    2    0    0  0.16882438154E+01 -0.49827811404E+01  0.18020375327E+03  0.18028053408E+03  0.00000000000E+00 0.  1.
         11    1    1    2    0    0 -0.52190437107E+00  0.31490528821E+01 -0.17382114436E+03  0.17385045052E+03  0.00000000000E+00 0.  1.
        -15    1    1    2    0    0 -0.27426877653E+01 -0.23030503865E+01 -0.33536478819E+01  0.52183388522E+01  0.17770000000E+01 0.  1.
         15    1    1    2    0    0  0.15763483209E+01  0.41367786448E+01 -0.30289610276E+01  0.56506765517E+01  0.17770000000E+01 0.  1.
</event>
<event>
 6    1  0.8353910E-003  0.1828254E+03  0.7546771E-02  0.1068196E+00
        -11   -1    0    0    0    0  0.00000000000E+00  0.00000000000E+00  0.18250000000E+03  0.18250000000E+03  0.00000000000E+00 0.  1.
         11   -1    0    0    0    0 -0.00000000000E+00 -0.00000000000E+00 -0.18250000000E+03  0.18250000000E+03  0.00000000000E+00 0.  1.
        -11    1    1    2    0    0 -0.53633486084E+01  0.67493822836E+01  0.18197055019E+03  0.18217464370E+03  0.00000000000E+00 0.  1.
         11    1    1    2    0    0 -0.21494422991E+01 -0.63239001444E-01 -0.81961055771E+02  0.81989260056E+02  0.00000000000E+00 0.  1.
        -15    1    1    2    0    0  0.83919493321E+01 -0.60671192260E+01 -0.73760589554E+02  0.74505147807E+02  0.17770000000E+01 0.  1.
         15    1    1    2    0    0 -0.87915842458E+00 -0.61902405616E+00 -0.26248904863E+02  0.26330948442E+02  0.17770000000E+01 0.  1.
</event>
<event>
 6    1  0.8353910E-003  0.1853787E+03  0.7546771E-02  0.1066186E+00
        -11   -1    0    0    0    0  0.00000000000E+00  0.00000000000E+00  0.18250000000E+03  0.18250000000E+03  0.00000000000E+00 0. -1.
         11   -1    0    0    0    0 -0.00000000000E+00 -0.00000000000E+00 -0.18250000000E+03  0.18250000000E+03  0.00000000000E+00 0. -1.
        -11    1    1    2    0    0  0.35025574268E+01 -0.19873486038E+01  0.17957614040E+03  0.17962128956E+03  0.00000000000E+00 0. -1.
         11    1    1    2    0    0  0.16772891020E+01  0.65119988492E+01 -0.17473996886E+03  0.17486931162E+03  0.00000000000E+00 0. -1.
        -15    1    1    2    0    0 -0.30070156041E+01 -0.29180257723E+01 -0.55699467466E+01  0.71929863764E+01  0.17770000000E+01 0. -1.
         15    1    1    2    0    0 -0.21728309247E+01 -0.16066244731E+01  0.73377520665E+00  0.33164124410E+01  0.17770000000E+01 0.  1.
</event>
<event>
 6    1  0.8353910E-003  0.1848314E+03  0.7546771E-02  0.1066614E+00
        -11   -1    0    0    0    0  0.00000000000E+00  0.00000000000E+00  0.18250000000E+03  0.18250000000E+03  0.00000000000E+00 0. -1.
         11   -1    0    0    0    0 -0.00000000000E+00 -0.00000000000E+00 -0.18250000000E+03  0.18250000000E+03  0.00000000000E+00 0. -1.
        -11    1    1    2    0    0 -0.65001114232E+01 -0.35918681614E+01  0.97931336795E+02  0.98212523091E+02  0.00000000000E+00 0. -1.
         11    1    1    2    0    0  0.12903931825E+02 -0.15238307474E+02 -0.17905871282E+03  0.18016864352E+03  0.00000000000E+00 0. -1.
        -15    1    1    2    0    0 -0.89096827551E+01  0.12319593202E+02  0.20598770920E+02  0.25663630216E+02  0.17770000000E+01 0.  1.
         15    1    1    2    0    0  0.25058623533E+01  0.65105824332E+01  0.60528605101E+02  0.60955203176E+02  0.17770000000E+01 0. -1.
</event>
<event>
 6    1  0.1133916E-002  0.1857710E+03  0.7546771E-02  0.1065880E+00
        -11   -1    0    0    0    0  0.00000000000E+00  0.00000000000E+00  0.18250000000E+03  0.18250000000E+03  0.00000000000E+00 0. -1.
         11   -1    0    0    0    0 -0.00000000000E+00 -0.00000000000E+00 -0.18250000000E+03  0.18250000000E+03  0.00000000000E+00 0.  1.
        -11    1    1    2    0    0  0.10920800787E+01 -0.22481418481E+01  0.15423467066E+03  0.15425492023E+03  0.00000000000E+00 0. -1.
         11    1    1    2    0    0  0.10496452859E+02  0.11534621191E+02 -0.17854915500E+03  0.17922897020E+03  0.00000000000E+00 0.  1.
        -15    1    1    2    0    0 -0.17410008484E+01  0.10837055306E+01  0.12759305993E+02  0.13044658679E+02  0.17770000000E+01 0. -1.
         15    1    1    2    0    0 -0.98475320893E+01 -0.10370184874E+02  0.11555178339E+02  0.18471450891E+02  0.17770000000E+01 0. -1.
</event>
<event>
 6    1  0.8353910E-003  0.1827459E+03  0.7546771E-02  0.1068259E+00
        -11   -1    0    0    0    0  0.00000000000E+00  0.00000000000E+00  0.18250000000E+03  0.18250000000E+03  0.00000000000E+00 0. -1.
         11   -1    0    0    0    0 -0.00000000000E+00 -0.00000000000E+00 -0.18250000000E+03  0.18250000000E+03  0.00000000000E+00 0. -1.
        -11    1    1    2    0    0  0.32584808809E+01  0.35245287474E+01  0.18219089674E+03  0.18225411615E+03  0.00000000000E+00 0. -1.
         11    1    1    2    0    0  0.23296829985E+01  0.59684875358E+00 -0.10637437049E+03  0.10640155238E+03  0.00000000000E+00 0. -1.
        -15    1    1    2    0    0 -0.33873231571E+01 -0.28889347864E+01 -0.62114842720E+02  0.62299529031E+02  0.17770000000E+01 0.  1.
         15    1    1    2    0    0 -0.22008407223E+01 -0.12324427146E+01 -0.13701683532E+02  0.14044802438E+02  0.17770000000E+01 0. -1.
</event>
<event>
 6    1  0.8353910E-003  0.1829586E+03  0.7546771E-02  0.1068090E+00
        -11   -1    0    0    0    0  0.00000000000E+00  0.00000000000E+00  0.18250000000E+03  0.18250000000E+03  0.00000000000E+00 0. -1.
         11   -1    0    0    0    0 -0.00000000000E+00 -0.00000000000E+00 -0.18250000000E+03  0.18250000000E+03  0.00000000000E+00 0.  1.
        -11    1    1    2    0    0  0.83821940811E+00  0.25907797966E+01  0.18202107587E+03  0.18204144257E+03  0.00000000000E+00 0. -1.
         11    1    1    2    0    0  0.19359849557E+01  0.12868659909E+01 -0.14885391223E+03  0.14887206336E+03  0.00000000000E+00 0.  1.
        -15    1    1    2    0    0 -0.37275049918E+01 -0.34433457434E+01 -0.28200744601E+02  0.28708720773E+02  0.17770000000E+01 0. -1.
         15    1    1    2    0    0  0.95330062800E+00 -0.43430004408E+00 -0.49664190381E+01  0.53777733011E+01  0.17770000000E+01 0.  1.
</event>
<event>
 6    1  0.8353910E-003  0.1787024E+03  0.7546771E-02  0.1071519E+00
        -11   -1    0    0    0    0  0.00000000000E+00  0.00000000000E+00  0.18250000000E+03  0.18250000000E+03  0.00000000000E+00 0. -1.
         11   -1    0    0    0    0 -0.00000000000E+00 -0.00000000000E+00 -0.18250000000E+03  0.18250000000E+03  0.00000000000E+00 0. -1.
        -11    1    1    2    0    0 -0.33607595678E+00  0.49800705543E+01  0.17851648000E+03  0.17858624718E+03  0.00000000000E+00 0. -1.
         11    1    1    2    0    0 -0.25702914143E+01  0.42234787162E+00 -0.17885233254E+03  0.17887129907E+03  0.00000000000E+00 0. -1.
        -15    1    1    2    0    0  0.18574591725E+01 -0.46822073746E+01  0.39577595675E+00  0.53560795442E+01  0.17770000000E+01 0. -1.
         15    1    1    2    0    0  0.10489081985E+01 -0.72021105137E+00 -0.59923419303E-01  0.21863742094E+01  0.17770000000E+01 0.  1.
</event>
<event>
 6    1  0.8353910E-003  0.1701460E+03  0.7546771E-02  0.1078737E+00
        -11   -1    0    0    0    0  0.00000000000E+00  0.00000000000E+00  0.18250000000E+03  0.18250000000E+03  0.00000000000E+00 0.  1.
         11   -1    0    0    0    0 -0.00000000000E+00 -0.00000000000E+00 -0.18250000000E+03  0.18250000000E+03  0.00000000000E+00 0.  1.
        -11    1    1    2    0    0 -0.10863121778E+02  0.15752743623E+01  0.16908514108E+03  0.16944106302E+03  0.00000000000E+00 0.  1.
         11    1    1    2    0    0  0.15434881041E+01  0.71266357133E+01 -0.17093927639E+03  0.17109473254E+03  0.00000000000E+00 0.  1.
        -15    1    1    2    0    0  0.51092232505E+01 -0.81148472480E+01 -0.86234129572E+01  0.13018290522E+02  0.17770000000E+01 0.  1.
         15    1    1    2    0    0  0.42104104234E+01 -0.58706282758E+00  0.10477548264E+02  0.11445913914E+02  0.17770000000E+01 0. -1.
</event>
<event>
 6    1  0.8353910E-003  0.1849782E+03  0.7546771E-02  0.1066499E+00
        -11   -1    0    0    0    0  0.00000000000E+00  0.00000000000E+00  0.18250000000E+03  0.18250000000E+03  0.00000000000E+00 0.  1.
         11   -1    0    0    0    0 -0.00000000000E+00 -0.00000000000E+00 -0.18250000000E+03  0.18250000000E+03  0.00000000000E+00 0.  1.
        -11    1    1    2    0    0 -0.64460133761E-01 -0.34554866046E+01  0.17998862498E+03  0.18002180330E+03  0.00000000000E+00 0.  1.
         11    1    1    2    0    0 -0.20814757963E+01 -0.25933327677E+01 -0.16520316051E+03  0.16523662475E+03  0.00000000000E+00 0.  1.
        -15    1    1    2    0    0 -0.10598546015E+01  0.59664085017E+00 -0.12652276707E+02  0.12834216258E+02  0.17770000000E+01 0. -1.
         15    1    1    2    0    0  0.32057905315E+01  0.54521785221E+01 -0.21331877587E+01  0.69073556867E+01  0.17770000000E+01 0.  1.
</event>
<event>
 6    1  0.8353910E-003  0.1828533E+03  0.7546771E-02  0.1068174E+00
        -11   -1    0    0    0    0  0.00000000000E+00  0.00000000000E+00  0.18250000000E+03  0.18250000000E+03  0.00000000000E+00 0. -1.
         11   -1    0    0    0    0 -0.00000000000E+00 -0.00000000000E+00 -0.18250000000E+03  0.18250000000E+03  0.00000000000E+00 0.  1.
        -11    1    1    2    0    0  0.60882552395E+00 -0.31413368692E+01  0.41670028689E+02  0.41792702195E+02  0.00000000000E+00 0. -1.
         11    1    1    2    0    0 -0.25356178235E+01  0.53597385130E+00 -0.18212824464E+03  0.18214668298E+03  0.00000000000E+00 0.  1.
        -15    1    1    2    0    0 -0.19752973684E+01  0.48555388411E+01  0.11575710191E+03  0.11588935425E+03  0.17770000000E+01 0.  1.
         15    1    1    2    0    0  0.39020896680E+01 -0.22501758232E+01  0.24701114044E+02  0.25171260577E+02  0.17770000000E+01 0. -1.
</event>
<event>
 6    1  0.8353910E-003  0.1832177E+03  0.7546771E-02  0.1067885E+00
        -11   -1    0    0    0    0  0.00000000000E+00  0.00000000000E+00  0.18250000000E+03  0.18250000000E+03  0.00000000000E+00 0. -1.
         11   -1    0    0    0    0 -0.00000000000E+00 -0.00000000000E+00 -0.18250000000E+03  0.18250000000E+03  0.00000000000E+00 0.  1.
        -11    1    1    2    0    0  0.76328500543E+00  0.49758168498E+01  0.98504509677E+02  0.98633056244E+02  0.00000000000E+00 0. -1.
         11    1    1    2    0    0  0.97075942483E+00 -0.24580797845E+01 -0.18176309841E+03  0.18178231068E+03  0.00000000000E+00 0.  1.
        -15    1    1    2    0    0 -0.20280968046E+01  0.37924990598E+00  0.79350302334E+02  0.79397010124E+02  0.17770000000E+01 0. -1.
         15    1    1    2    0    0  0.29405237437E+00 -0.28969869713E+01  0.39082864031E+01  0.51876229547E+01  0.17770000000E+01 0.  1.
</event>
<event>
 6    1  0.8353910E-003  0.1832664E+03  0.7546771E-02  0.1067846E+00
        -11   -1    0    0    0    0  0.00000000000E+00  0.00000000000E+00  0.18250000000E+03  0.18250000000E+03  0.00000000000E+00 0. -1.
         11   -1    0    0    0    0 -0.00000000000E+00 -0.00000000000E+00 -0.18250000000E+03  0.18250000000E+03  0.00000000000E+00 0. -1.
        -11    1    1    2    0    0 -0.57392069629E+00  0.35228155484E+01  0.63601767047E+02  0.63701839737E+02  0.00000000000E+00 0. -1.
         11    1    1    2    0    0  0.37103789628E+01 -0.99925836377E+00 -0.18169295588E+03  0.18173358425E+03  0.00000000000E+00 0. -1.
        -15    1    1    2    0    0 -0.55167942554E+01  0.96975134628E+00  0.11077086571E+03  0.11092663276E+03  0.17770000000E+01 0. -1.
         15    1    1    2    0    0  0.23803359889E+01 -0.34933085309E+01  0.73203231229E+01  0.86379432468E+01  0.17770000000E+01 0.  1.
</event>
<event>
 6    1  0.8353910E-003  0.2119703E+03  0.7546771E-02  0.1047151E+00
        -11   -1    0    0    0    0  0.00000000000E+00  0.00000000000E+00  0.18250000000E+03  0.18250000000E+03  0.00000000000E+00 0.  1.
         11   -1    0    0    0    0 -0.00000000000E+00 -0.00000000000E+00 -0.18250000000E+03  0.18250000000E+03  0.00000000000E+00 0. -1.
        -11    1    1    2    0    0  0.14904157877E+02 -0.45258215416E+01  0.15223489673E+03  0.15302967283E+03  0.00000000000E+00 0.  1.
         11    1    1    2    0    0 -0.17869506207E+01 -0.21913122874E+01 -0.13165387818E+03  0.13168423855E+03  0.00000000000E+00 0. -1.
        -15    1    1    2    0    0  0.27415023311E+02  0.95344030679E+01  0.84914946351E+01  0.30294414587E+02  0.17770000000E+01 0.  1.
         15    1    1    2    0    0 -0.40532230568E+02 -0.28172692389E+01 -0.29072513186E+02  0.49991674034E+02  0.17770000000E+01 0. -1.
</event>
<event>
 6    1  0.8353910E-003  0.1836908E+03  0.7546771E-02  0.1067511E+00
        -11   -1    0    0    0    0  0.00000000000E+00  0.00000000000E+00  0.18250000000E+03  0.18250000000E+03  0.00000000000E+00 0. -1.
         11   -1    0    0    0    0 -0.00000000000E+00 -0.00000000000E+00 -0.18250000000E+03  0.18250000000E+03  0.00000000000E+00 0. -1.
        -11    1    1    2    0    0 -0.22052528457E+01 -0.18987109078E+01  0.17149983118E+03  0.17152451818E+03  0.00000000000E+00 0. -1.
         11    1    1    2    0    0  0.20480186030E+01 -0.16726184882E+01 -0.18128988868E+03  0.18130917178E+03  0.00000000000E+00 0. -1.
        -15    1    1    2    0    0 -0.13214188824E+01  0.35091432861E+00  0.86991038318E+00  0.24049452808E+01  0.17770000000E+01 0. -1.
         15    1    1    2    0    0  0.14786531251E+01  0.32204150675E+01  0.89201471243E+01  0.97613647606E+01  0.17770000000E+01 0.  1.
</event>
<event>
 6    1  0.8353910E-003  0.1773421E+03  0.7546771E-02  0.1072636E+00
        -11   -1    0    0    0    0  0.00000000000E+00  0.00000000000E+00  0.18250000000E+03  0.18250000000E+03  0.00000000000E+00 0.  1.
         11   -1    0    0    0    0 -0.00000000000E+00 -0.00000000000E+00 -0.18250000000E+03  0.18250000000E+03  0.00000000000E+00 0.  1.
        -11    1    1    2    0    0  0.69145824999E+00  0.23325028909E+01  0.17638299074E+03  0.17639976788E+03  0.00000000000E+00 0.  1.
         11    1    1    2    0    0 -0.23322881685E+01  0.84458777358E+00 -0.17829028546E+03  0.17830753990E+03  0.00000000000E+00 0.  1.
        -15    1    1    2    0    0 -0.24552602689E+01 -0.41547128070E+01  0.24378467215E+01  0.56912887059E+01  0.17770000000E+01 0.  1.
         15    1    1    2    0    0  0.40960901874E+01  0.97762214249E+00 -0.53055200184E+00  0.46014035145E+01  0.17770000000E+01 0.  1.
</event>
<event>
 6    1  0.8353910E-003  0.1830244E+03  0.7546771E-02  0.1068038E+00
        -11   -1    0    0    0    0  0.00000000000E+00  0.00000000000E+00  0.18250000000E+03  0.18250000000E+03  0.00000000000E+00 0.  1.
         11   -1    0    0    0    0 -0.00000000000E+00 -0.00000000000E+00 -0.18250000000E+03  0.18250000000E+03  0.00000000000E+00 0. -1.
        -11    1    1    2    0    0 -0.29523313355E+01 -0.59267539783E+00  0.15165122720E+03  0.15168112024E+03  0.00000000000E+00 0.  1.
         11    1    1    2    0    0 -0.13935209187E+01  0.20452466044E+01 -0.18195880422E+03  0.18197563399E+03  0.00000000000E+00 0. -1.
        -15    1    1    2    0    0 -0.30993011397E-01 -0.25543084915E+01  0.10583295002E+02  0.11031287982E+02  0.17770000000E+01 0. -1.
         15    1    1    2    0    0  0.43768452655E+01  0.11017372848E+01  0.19724282012E+02  0.20311957794E+02  0.17770000000E+01 0.  1.
</event>
<event>
 6    1  0.8353910E-003  0.1836271E+03  0.7546771E-02  0.1067561E+00
        -11   -1    0    0    0    0  0.00000000000E+00  0.00000000000E+00  0.18250000000E+03  0.18250000000E+03  0.00000000000E+00 0.  1.
         11   -1    0    0    0    0 -0.00000000000E+00 -0.00000000000E+00 -0.18250000000E+03  0.18250000000E+03  0.00000000000E+00 0.  1.
        -11    1    1    2    0    0  0.33389660787E+01  0.30546910585E+00  0.18134193014E+03  0.18137292420E+03  0.00000000000E+00 0.  1.
         11    1    1    2    0    0  0.37619753136E+00 -0.25653102807E+01 -0.16361148042E+03  0.16363202275E+03  0.00000000000E+00 0.  1.
        -15    1    1    2    0    0 -0.91701344102E+00  0.10126989468E+01 -0.15806483429E+02  0.15964620891E+02  0.17770000000E+01 0.  1.
         15    1    1    2    0    0 -0.27981501690E+01  0.12471422280E+01 -0.19239662913E+01  0.40304321599E+01  0.17770000000E+01 0.  1.
</event>
<event>
 6    1  0.8353910E-003  0.1830599E+03  0.7546771E-02  0.1068010E+00
        -11   -1    0    0    0    0  0.00000000000E+00  0.00000000000E+00  0.18250000000E+03  0.18250000000E+03  0.00000000000E+00 0.  1.
         11   -1    0    0    0    0 -0.00000000000E+00 -0.00000000000E+00 -0.18250000000E+03  0.18250000000E+03  0.00000000000E+00 0.  1.
        -11    1    1    2    0    0 -0.16324648944E+01 -0.13553479526E+01  0.62423136438E+02  0.62459185653E+02  0.00000000000E+00 0.  1.
         11    1    1    2    0    0 -0.79803854673E+01 -0.94115089400E+01 -0.18152119921E+03  0.18194012426E+03  0.00000000000E+00 0.  1.
        -15    1    1    2    0    0  0.55578757182E+01  0.82670785814E+01  0.37403893780E+02  0.38748465385E+02  0.17770000000E+01 0. -1.
         15    1    1    2    0    0  0.40549746435E+01  0.24997783112E+01  0.81694168997E+02  0.81852224698E+02  0.17770000000E+01 0.  1.
</event>
<event>
 6    1  0.8353910E-003  0.1830526E+03  0.7546771E-02  0.1068016E+00
        -11   -1    0    0    0    0  0.00000000000E+00  0.00000000000E+00  0.18250000000E+03  0.18250000000E+03  0.00000000000E+00 0. -1.
         11   -1    0    0    0    0 -0.00000000000E+00 -0.00000000000E+00 -0.18250000000E+03  0.18250000000E+03  0.00000000000E+00 0.  1.
        -11    1    1    2    0    0 -0.11467594650E+01  0.28151759117E+01  0.12726712983E+03  0.12730342732E+03  0.00000000000E+00 0. -1.
         11    1    1    2    0    0  0.20740647281E+01 -0.13425571230E+01 -0.18193057709E+03  0.18194735251E+03  0.00000000000E+00 0.  1.
        -15    1    1    2    0    0  0.39242430942E+01 -0.17790274351E+01  0.38405641414E+02  0.38687409372E+02  0.17770000000E+01 0. -1.
         15    1    1    2    0    0 -0.48515483574E+01  0.30640864637E+00  0.16257805852E+02  0.17061810802E+02  0.17770000000E+01 0.  1.
</event>
<event>
 6    1  0.8353910E-003  0.1838932E+03  0.7546771E-02  0.1067351E+00
        -11   -1    0    0    0    0  0.00000000000E+00  0.00000000000E+00  0.18250000000E+03  0.18250000000E+03  0.00000000000E+00 0. -1.
         11   -1    0    0    0    0 -0.00000000000E+00 -0.00000000000E+00 -0.18250000000E+03  0.18250000000E+03  0.00000000000E+00 0. -1.
        -11    1    1    2    0    0  0.20382114370E+01  0.34322903992E-01  0.87810516653E+02  0.87834175119E+02  0.00000000000E+00 0. -1.
         11    1    1    2    0    0  0.29417320829E+01  0.12537186494E+01 -0.18107853547E+03  0.18110676852E+03  0.00000000000E+00 0. -1.
        -15    1    1    2    0    0 -0.84057120413E+01 -0.65589786567E+01  0.22201625801E+02  0.24693037747E+02  0.17770000000E+01 0. -1.
         15    1    1    2    0    0  0.34257685213E+01  0.52709371034E+01  0.71066393012E+02  0.71366018612E+02  0.17770000000E+01 0.  1.
</event>
<event>
 6    1  0.8353910E-003  0.1829234E+03  0.7546771E-02  0.1068118E+00
        -11   -1    0    0    0    0  0.00000000000E+00  0.00000000000E+00  0.18250000000E+03  0.18250000000E+03  0.00000000000E+00 0. -1.
         11   -1    0    0    0    0 -0.00000000000E+00 -0.00000000000E+00 -0.18250000000E+03  0.18250000000E+03  0.00000000000E+00 0. -1.
        -11    1    1    2    0    0  0.10259822555E+01  0.11048293961E+01  0.10126496220E+03  0.10127618603E+03  0.00000000000E+00 0. -1.
         11    1    1    2    0    0 -0.60436990119E-01 -0.35059132292E+01 -0.18204280010E+03  0.18207656672E+03  0.00000000000E+00 0. -1.
        -15    1    1    2    0    0 -0.27387011784E+01  0.52636489882E+01  0.25617052393E+02  0.26355219353E+02  0.17770000000E+01 0. -1.
         15    1    1    2    0    0  0.17731559130E+01 -0.28625651552E+01  0.55160785514E+02  0.55292027894E+02  0.17770000000E+01 0.  1.
</event>
<event>
 6    1  0.8353910E-003  0.1878319E+03  0.7546771E-02  0.1064288E+00
        -11   -1    0    0    0    0  0.00000000000E+00  0.00000000000E+00  0.18250000000E+03  0.18250000000E+03  0.00000000000E+00 0.  1.
         11   -1    0    0    0    0 -0.00000000000E+00 -0.00000000000E+00 -0.18250000000E+03  0.18250000000E+03  0.00000000000E+00 0. -1.
        -11    1    1    2    0    0 -0.26661710977E+01 -0.74241703444E+01  0.17699237243E+03  0.17716807464E+03  0.00000000000E+00 0.  1.
         11    1    1    2    0    0 -0.35869123844E+01  0.11570324688E+01 -0.14246419098E+03  0.14251403572E+03  0.00000000000E+00 0. -1.
        -15    1    1    2    0    0  0.28877706659E+00  0.27905563981E+01  0.45286784421E+01  0.56158040063E+01  0.17770000000E+01 0. -1.
         15    1    1    2    0    0  0.59643064155E+01  0.34765814775E+01 -0.39056859890E+02  0.39702085629E+02  0.17770000000E+01 0.  1.
</event>
<event>
 6    1  0.8353910E-003  0.1863186E+03  0.7546771E-02  0.1065455E+00
        -11   -1    0    0    0    0  0.00000000000E+00  0.00000000000E+00  0.18250000000E+03  0.18250000000E+03  0.00000000000E+00 0. -1.
         11   -1    0    0    0    0 -0.00000000000E+00 -0.00000000000E+00 -0.18250000000E+03  0.18250000000E+03  0.00000000000E+00 0. -1.
        -11    1    1    2    0    0 -0.16499424574E+01  0.26090631820E+01  0.17865473458E+03  0.17868140281E+03  0.00000000000E+00 0. -1.
         11    1    1    2    0    0 -0.18474658404E+01 -0.33899938451E+01 -0.14192768863E+03  0.14198018871E+03  0.00000000000E+00 0. -1.
        -15    1    1    2    0    0  0.66899570409E+01 -0.74108464897E+01 -0.33176261890E+02  0.34691472337E+02  0.17770000000E+01 0.  1.
         15    1    1    2    0    0 -0.31925487430E+01  0.81917771529E+01 -0.35507840664E+01  0.96469361398E+01  0.17770000000E+01 0. -1.
</event>
<event>
 6    1  0.8353910E-003  0.1832858E+03  0.7546771E-02  0.1067831E+00
        -11   -1    0    0    0    0  0.00000000000E+00  0.00000000000E+00  0.18250000000E+03  0.18250000000E+03  0.00000000000E+00 0.  1.
         11   -1    0    0    0    0 -0.00000000000E+00 -0.00000000000E+00 -0.18250000000E+03  0.18250000000E+03  0.00000000000E+00 0. -1.
        -11    1    1    2    0    0  0.45871319944E+01 -0.15521074947E+01  0.18164962054E+03  0.18171415866E+03  0.00000000000E+00 0.  1.
         11    1    1    2    0    0  0.19854350489E+01  0.29371835585E+01 -0.97918610493E+02  0.97982770325E+02  0.00000000000E+00 0. -1.
        -15    1    1    2    0    0 -0.54381306286E+01 -0.72637337762E+01 -0.62238811846E+02  0.62921876340E+02  0.17770000000E+01 0.  1.
         15    1    1    2    0    0 -0.11344364147E+01  0.58786577124E+01 -0.21492198199E+02  0.22381194671E+02  0.17770000000E+01 0. -1.
</event>
<event>
 6    1  0.8353910E-003  0.1842379E+03  0.7546771E-02  0.1067080E+00
        -11   -1    0    0    0    0  0.00000000000E+00  0.00000000000E+00  0.18250000000E+03  0.18250000000E+03  0.00000000000E+00 0. -1.
         11   -1    0    0    0    0 -0.00000000000E+00 -0.00000000000E+00 -0.18250000000E+03  0.18250000000E+03  0.00000000000E+00 0.  1.
        -11    1    1    2    0    0 -0.23743216933E+01 -0.13996448824E+01  0.14531977383E+03  0.14534590835E+03  0.00000000000E+00 0. -1.
         11    1    1    2    0    0 -0.25383394808E+01  0.46777083581E+01 -0.18068369353E+03  0.18076205694E+03  0.00000000000E+00 0.  1.
        -15    1    1    2    0    0 -0.23873131908E+01 -0.44408072766E+01  0.27263871216E+02  0.27783024246E+02  0.17770000000E+01 0.  1.
         15    1    1    2    0    0  0.72999743649E+01  0.11627438009E+01  0.81000484884E+01  0.11109010459E+02  0.17770000000E+01 0. -1.
</event>
<event>
 6    1  0.8353910E-003  0.1847001E+03  0.7546771E-02  0.1066717E+00
        -11   -1    0    0    0    0  0.00000000000E+00  0.00000000000E+00  0.18250000000E+03  0.18250000000E+03  0.00000000000E+00 0. -1.
         11   -1    0    0    0    0 -0.00000000000E+00 -0.00000000000E+00 -0.18250000000E+03  0.18250000000E+03  0.00000000000E+00 0. -1.
        -11    1    1    2    0    0 -0.30386502136E+01  0.53221574045E+01  0.18019572851E+03  0.18029991494E+03  0.00000000000E+00 0. -1.
         11    1    1    2    0    0  0.44561830130E+01 -0.17282672915E+01 -0.14851068727E+03  0.14858757925E+03  0.00000000000E+00 0. -1.
        -15    1    1    2    0    0 -0.83910274821E+01  0.12231199351E+01 -0.16108290445E+02  0.18290437792E+02  0.17770000000E+01 0.  1.
         15    1    1    2    0    0  0.69734946826E+01 -0.48170100482E+01 -0.15576750796E+02  0.17822068013E+02  0.17770000000E+01 0.  1.
</event>
<event>
 6    1  0.8353910E-003  0.1888856E+03  0.7546771E-02  0.1063483E+00
        -11   -1    0    0    0    0  0.00000000000E+00  0.00000000000E+00  0.18250000000E+03  0.18250000000E+03  0.00000000000E+00 0. -1.
         11   -1    0    0    0    0 -0.00000000000E+00 -0.00000000000E+00 -0.18250000000E+03  0.18250000000E+03  0.00000000000E+00 0. -1.
        -11    1    1    2    0    0  0.12584705049E+01 -0.34570773514E+01  0.17607597289E+03  0.17611440419E+03  0.00000000000E+00 0. -1.
         11    1    1    2    0    0  0.27549189594E+01  0.13983398608E+00 -0.13972602541E+03  0.13975325152E+03  0.00000000000E+00 0. -1.
        -15    1    1    2    0    0 -0.36520986605E+01  0.59069477814E+00 -0.42215575955E+02  0.42414612189E+02  0.17770000000E+01 0. -1.
         15    1    1    2    0    0 -0.36129080381E+00  0.27265485872E+01  0.58656284733E+01  0.67177321047E+01  0.17770000000E+01 0.  1.
</event>
<event>
 6    1  0.8353910E-003  0.1849497E+03  0.7546771E-02  0.1066521E+00
        -11   -1    0    0    0    0  0.00000000000E+00  0.00000000000E+00  0.18250000000E+03  0.18250000000E+03  0.00000000000E+00 0. -1.
         11   -1    0    0    0    0 -0.00000000000E+00 -0.00000000000E+00 -0.18250000000E+03  0.18250000000E+03  0.00000000000E+00 0. -1.
        -11    1    1    2    0    0  0.35645397270E+01 -0.20327191321E+01  0.16133954002E+03  0.16139171312E+03  0.00000000000E+00 0. -1.
         11    1    1    2    0    0 -0.10833339216E+01 -0.30575458610E+01 -0.18002108103E+03  0.18005030356E+03  0.00000000000E+00 0. -1.
        -15    1    1    2    0    0  0.70221848615E+00  0.41668844723E+01  0.84909181291E-01  0.45848637468E+01  0.17770000000E+01 0. -1.
         15    1    1    2    0    0 -0.31834242915E+01  0.92338052071E+00  0.18596631828E+02  0.18973119569E+02  0.17770000000E+01 0.  1.
</event>
<event>
 6    1  0.8353910E-003  0.1831630E+03  0.7546771E-02  0.1067928E+00
        -11   -1    0    0    0    0  0.00000000000E+00  0.00000000000E+00  0.18250000000E+03  0.18250000000E+03  0.00000000000E+00 0. -1.
         11   -1    0    0    0    0 -0.00000000000E+00 -0.00000000000E+00 -0.18250000000E+03  0.18250000000E+03  0.00000000000E+00 0. -1.
        -11    1    1    2    0    0  0.25721902650E+01 -0.58869429282E+01  0.18172351565E+03  0.18183703803E+03  0.00000000000E+00 0. -1.
         11    1    1    2    0    0 -0.36394371433E+01 -0.64605734661E+00 -0.12349248395E+03  0.12354779029E+03  0.00000000000E+00 0. -1.
        -15    1    1    2    0    0  0.45365684159E+00  0.25731739519E+01 -0.35256148363E+01  0.47344184110E+01  0.17770000000E+01 0.  1.
         15    1    1    2    0    0  0.61359003674E+00  0.39598263229E+01 -0.54705416862E+02  0.54880753277E+02  0.17770000000E+01 0. -1.
</event>
<event>
 6    1  0.8353910E-003  0.1845800E+03  0.7546771E-02  0.1066811E+00
        -11   -1    0    0    0    0  0.00000000000E+00  0.00000000000E+00  0.18250000000E+03  0.18250000000E+03  0.00000000000E+00 0. -1.
         11   -1    0    0    0    0 -0.00000000000E+00 -0.00000000000E+00 -0.18250000000E+03  0.18250000000E+03  0.00000000000E+00 0. -1.
        -11    1    1    2    0    0  0.12272621032E+01  0.40533699240E+01  0.13386675102E+03  0.13393372618E+03  0.00000000000E+00 0. -1.
         11    1    1    2    0    0  0.78553532601E+01  0.90389973065E+01 -0.18002215581E+03  0.18042002835E+03  0.00000000000E+00 0. -1.
        -15    1    1    2    0    0 -0.25657401262E+01 -0.33684729093E+01  0.31370836695E+02  0.31705153462E+02  0.17770000000E+01 0.  1.
         15    1    1    2    0    0 -0.65168752371E+01 -0.97238943212E+01  0.14784568094E+02  0.18941092005E+02  0.17770000000E+01 0. -1.
</event>
<event>
 6    1  0.8353910E-003  0.1874120E+03  0.7546771E-02  0.1064611E+00
        -11   -1    0    0    0    0  0.00000000000E+00  0.00000000000E+00  0.18250000000E+03  0.18250000000E+03  0.00000000000E+00 0. -1.
         11   -1    0    0    0    0 -0.00000000000E+00 -0.00000000000E+00 -0.18250000000E+03  0.18250000000E+03  0.00000000000E+00 0. -1.
        -11    1    1    2    0    0 -0.89989899448E+01 -0.97326010286E+00  0.17452588807E+03  0.17476044936E+03  0.00000000000E+00 0. -1.
         11    1    1    2    0    0  0.49073077051E+01  0.11839110134E+01 -0.17751626212E+03  0.17758802502E+03  0.00000000000E+00 0. -1.
        -15    1    1    2    0    0  0.20447454989E+01 -0.48338229140E+01  0.44390087004E+01  0.70999546027E+01  0.17770000000E+01 0. -1.
         15    1    1    2    0    0  0.20469367409E+01  0.46231720034E+01 -0.14486346516E+01  0.55515710162E+01  0.17770000000E+01 0. -1.
</event>
<event>
 6    1  0.8353910E-003  0.1895475E+03  0.7546771E-02  0.1062979E+00
        -11   -1    0    0    0    0  0.00000000000E+00  0.00000000000E+00  0.18250000000E+03  0.18250000000E+03  0.00000000000E+00 0.  1.
         11   -1    0    0    0    0 -0.00000000000E+00 -0.00000000000E+00 -0.18250000000E+03  0.18250000000E+03  0.00000000000E+00 0.  1.
        -11    1    1    2    0    0  0.16068953080E+02 -0.61256985437E+01  0.67903755274E+02  0.70047522554E+02  0.00000000000E+00 0.  1.
         11    1    1    2    0    0 -0.67748015897E+01  0.13711491828E+02 -0.17478464644E+03  0.17545248809E+03  0.00000000000E+00 0.  1.
        -15    1    1    2    0    0 -0.30830092147E+01  0.15029774453E+00  0.10911778850E+03  0.10917589950E+03  0.17770000000E+01 0.  1.
         15    1    1    2    0    0 -0.62111422758E+01 -0.77360910284E+01 -0.22368973260E+01  0.10324089859E+02  0.17770000000E+01 0. -1.
</event>
<event>
 6    1  0.8353910E-003  0.1838148E+03  0.7546771E-02  0.1067413E+00
        -11   -1    0    0    0    0  0.00000000000E+00  0.00000000000E+00  0.18250000000E+03  0.18250000000E+03  0.00000000000E+00 0. -1.
         11   -1    0    0    0    0 -0.00000000000E+00 -0.00000000000E+00 -0.18250000000E+03  0.18250000000E+03  0.00000000000E+00 0. -1.
        -11    1    1    2    0    0  0.18904108826E+01  0.25829673225E+01  0.16578264210E+03  0.16581353924E+03  0.00000000000E+00 0. -1.
         11    1    1    2    0    0 -0.30462951966E+00  0.25672171270E+01 -0.18116671368E+03  0.18118515819E+03  0.00000000000E+00 0. -1.
        -15    1    1    2    0    0 -0.25486813829E+01 -0.18549182623E+00  0.97054979177E+01  0.10192379646E+02  0.17770000000E+01 0. -1.
         15    1    1    2    0    0  0.96290001999E+00 -0.49646926232E+01  0.56785736678E+01  0.78089229214E+01  0.17770000000E+01 0.  1.
</event>
<event>
 6    1  0.8353910E-003  0.1716094E+03  0.7546771E-02  0.1077470E+00
        -11   -1    0    0    0    0  0.00000000000E+00  0.00000000000E+00  0.18250000000E+03  0.18250000000E+03  0.00000000000E+00 0.  1.
         11   -1    0    0    0    0 -0.00000000000E+00 -0.00000000000E+00 -0.18250000000E+03  0.18250000000E+03  0.00000000000E+00 0. -1.
        -11    1    1    2    0    0  0.30440401738E+01  0.34449642205E+01  0.17087782368E+03  0.17093965188E+03  0.00000000000E+00 0.  1.
         11    1    1    2    0    0 -0.49798684074E+01  0.61043215175E+01 -0.17224009521E+03  0.17242016189E+03  0.00000000000E+00 0. -1.
        -15    1    1    2    0    0 -0.15419484702E+01 -0.20854773398E+01  0.94518612814E+01  0.99610356641E+01  0.17770000000E+01 0. -1.
         15    1    1    2    0    0  0.34777767038E+01 -0.74638083981E+01 -0.80895897495E+01  0.11679150565E+02  0.17770000000E+01 0.  1.
</event>
<event>
 6    1  0.8353910E-003  0.1741725E+03  0.7546771E-02  0.1075284E+00
        -11   -1    0    0    0    0  0.00000000000E+00  0.00000000000E+00  0.18250000000E+03  0.18250000000E+03  0.00000000000E+00 0. -1.
         11   -1    0    0    0    0 -0.00000000000E+00 -0.00000000000E+00 -0.18250000000E+03  0.18250000000E+03  0.00000000000E+00 0.  1.
        -11    1    1    2    0    0  0.16148483212E+01 -0.24360574555E+01  0.17610529065E+03  0.17612954183E+03  0.00000000000E+00 0. -1.
         11    1    1    2    0    0 -0.49291777940E+00 -0.56265941504E+01 -0.17223951647E+03  0.17233209963E+03  0.00000000000E+00 0.  1.
        -15    1    1    2    0    0 -0.45815203084E+01  0.85250111133E+01 -0.65227536808E+01  0.11805515126E+02  0.17770000000E+01 0.  1.
         15    1    1    2    0    0  0.34595897666E+01 -0.46235950739E+00  0.26569795043E+01  0.47328434111E+01  0.17770000000E+01 0. -1.
</event>
<event>
 6    1  0.8353910E-003  0.1892782E+03  0.7546771E-02  0.1063184E+00
        -11   -1    0    0    0    0  0.00000000000E+00  0.00000000000E+00  0.18250000000E+03  0.18250000000E+03  0.00000000000E+00 0.  1.
         11   -1    0    0    0    0 -0.00000000000E+00 -0.00000000000E+00 -0.18250000000E+03  0.18250000000E+03  0.00000000000E+00 0.  1.
        -11    1    1    2    0    0  0.41338894354E+01 -0.17457167251E+01  0.17566450636E+03  0.17572181243E+03  0.00000000000E+00 0.  1.
         11    1    1    2    0    0 -0.16620144888E+01  0.48534057785E+01 -0.16987006785E+03  0.16994751481E+03  0.00000000000E+00 0.  1.
        -15    1    1    2    0    0 -0.29990339848E+01  0.54404979641E+01  0.28236125508E+01  0.70515062062E+01  0.17770000000E+01 0. -1.
         15    1    1    2    0    0  0.52715903821E+00 -0.85481870175E+01 -0.86180510669E+01  0.12279166549E+02  0.17770000000E+01 0.  1.
</event>
<event>
 6    1  0.8353910E-003  0.1826259E+03  0.7546771E-02  0.1068355E+00
        -11   -1    0    0    0    0  0.00000000000E+00  0.00000000000E+00  0.18250000000E+03  0.18250000000E+03  0.00000000000E+00 0.  1.
         11   -1    0    0    0    0 -0.00000000000E+00 -0.00000000000E+00 -0.18250000000E+03  0.18250000000E+03  0.00000000000E+00 0. -1.
        -11    1    1    2    0    0 -0.26749608833E+01 -0.67499583212E+00  0.18235319099E+03  0.18237405874E+03  0.00000000000E+00 0.  1.
         11    1    1    2    0    0  0.12137779363E+01 -0.38170710048E+00 -0.99109937319E+01  0.99923347594E+01  0.00000000000E+00 0. -1.
        -15    1    1    2    0    0 -0.23178758449E+01 -0.13490655622E+01 -0.56814524919E+02  0.56905540126E+02  0.17770000000E+01 0. -1.
         15    1    1    2    0    0  0.37790587920E+01  0.24057684948E+01 -0.11562767234E+03  0.11572806638E+03  0.17770000000E+01 0. -1.
</event>
<event>
 6    1  0.8353910E-003  0.1870160E+03  0.7546771E-02  0.1064916E+00
        -11   -1    0    0    0    0  0.00000000000E+00  0.00000000000E+00  0.18250000000E+03  0.18250000000E+03  0.00000000000E+00 0.  1.
         11   -1    0    0    0    0 -0.00000000000E+00 -0.00000000000E+00 -0.18250000000E+03  0.18250000000E+03  0.00000000000E+00 0. -1.
        -11    1    1    2    0    0 -0.14363556140E+01 -0.26146807990E+01  0.14301109544E+03  0.14304220738E+03  0.00000000000E+00 0.  1.
         11    1    1    2    0    0  0.39288730269E+01 -0.19432058186E+01 -0.17792998480E+03  0.17798396440E+03  0.00000000000E+00 0. -1.
        -15    1    1    2    0    0 -0.10299161175E+02  0.71748949179E+01  0.63294966513E+01  0.14169407004E+02  0.17770000000E+01 0. -1.
         15    1    1    2    0    0  0.78066437622E+01 -0.26170083003E+01  0.28589392708E+02  0.29804421210E+02  0.17770000000E+01 0.  1.
</event>
<event>
 6    1  0.8353910E-003  0.1834155E+03  0.7546771E-02  0.1067728E+00
        -11   -1    0    0    0    0  0.00000000000E+00  0.00000000000E+00  0.18250000000E+03  0.18250000000E+03  0.00000000000E+00 0.  1.
         11   -1    0    0    0    0 -0.00000000000E+00 -0.00000000000E+00 -0.18250000000E+03  0.18250000000E+03  0.00000000000E+00 0. -1.
        -11    1    1    2    0    0  0.55794629980E+00  0.16741866471E+00  0.34834974714E+02  0.34839844954E+02  0.00000000000E+00 0.  1.
         11    1    1    2    0    0 -0.24727004384E+01  0.20987852780E+01 -0.18155554666E+03  0.18158451385E+03  0.00000000000E+00 0. -1.
        -15    1    1    2    0    0  0.38426463004E+01 -0.94335388340E+01  0.32607939791E+02  0.34208084599E+02  0.17770000000E+01 0.  1.
         15    1    1    2    0    0 -0.19278921619E+01  0.71673348913E+01  0.11411263215E+03  0.11436755660E+03  0.17770000000E+01 0.  1.
</event>
<event>
 6    1  0.8353910E-003  0.1876457E+03  0.7546771E-02  0.1064431E+00
        -11   -1    0    0    0    0  0.00000000000E+00  0.00000000000E+00  0.18250000000E+03  0.18250000000E+03  0.00000000000E+00 0.  1.
         11   -1    0    0    0    0 -0.00000000000E+00 -0.00000000000E+00 -0.18250000000E+03  0.18250000000E+03  0.00000000000E+00 0.  1.
        -11    1    1    2    0    0 -0.56106535448E+00  0.78556406507E+01  0.17717931431E+03  0.17735426497E+03  0.00000000000E+00 0.  1.
         11    1    1    2    0    0  0.81805474949E+00 -0.24426880528E+01 -0.16102154116E+03  0.16104214559E+03  0.00000000000E+00 0.  1.
        -15    1    1    2    0    0 -0.15890469867E+01 -0.64981284738E+01 -0.20483566674E+02  0.21621400895E+02  0.17770000000E+01 0. -1.
         15    1    1    2    0    0  0.13320575917E+01  0.10851758759E+01  0.43257935249E+01  0.49821885482E+01  0.17770000000E+01 0.  1.
</event>
<event>
 6    1  0.8353910E-003  0.1856914E+03  0.7546771E-02  0.1065942E+00
        -11   -1    0    0    0    0  0.00000000000E+00  0.00000000000E+00  0.18250000000E+03  0.18250000000E+03  0.00000000000E+00 0.  1.
         11   -1    0    0    0    0 -0.00000000000E+00 -0.00000000000E+00 -0.18250000000E+03  0.18250000000E+03  0.00000000000E+00 0.  1.
        -11    1    1    2    0    0 -0.21393804446E+01  0.76219480645E-01  0.15274299537E+03  0.15275799617E+03  0.00000000000E+00 0.  1.
         11    1    1    2    0    0 -0.37322054319E+01 -0.88643146044E-01 -0.17926974412E+03  0.17930861210E+03  0.00000000000E+00 0.  1.
        -15    1    1    2    0    0 -0.44738557688E+01  0.57543880176E+01  0.90864446328E+01  0.11783444826E+02  0.17770000000E+01 0. -1.
         15    1    1    2    0    0  0.10345441645E+02 -0.57419643522E+01  0.17440304121E+02  0.21149946910E+02  0.17770000000E+01 0.  1.
</event>
<event>
 6    1  0.8353910E-003  0.1843523E+03  0.7546771E-02  0.1066990E+00
        -11   -1    0    0    0    0  0.00000000000E+00  0.00000000000E+00  0.18250000000E+03  0.18250000000E+03  0.00000000000E+00 0.  1.
         11   -1    0    0    0    0 -0.00000000000E+00 -0.00000000000E+00 -0.18250000000E+03  0.18250000000E+03  0.00000000000E+00 0.  1.
        -11    1    1    2    0    0  0.55110694129E+00 -0.11639989388E+02  0.10711574814E+03  0.10774774508E+03  0.00000000000E+00 0.  1.
         11    1    1    2    0    0 -0.31353411964E+01  0.56989652458E+00 -0.18061959269E+03  0.18064770247E+03  0.00000000000E+00 0.  1.
        -15    1    1    2    0    0  0.20456461782E+01  0.12644002193E+02  0.72977330661E+02  0.74114128067E+02  0.17770000000E+01 0. -1.
         15    1    1    2    0    0  0.53858807690E+00 -0.15739093297E+01  0.52651389116E+00  0.24904243759E+01  0.17770000000E+01 0.  1.
</event>
<event>
 6    1  0.8353910E-003  0.1922622E+03  0.7546771E-02  0.1060939E+00
        -11   -1    0    0    0    0  0.00000000000E+00  0.00000000000E+00  0.18250000000E+03  0.18250000000E+03  0.00000000000E+00 0.  1.
         11   -1    0    0    0    0 -0.00000000000E+00 -0.00000000000E+00 -0.18250000000E+03  0.18250000000E+03  0.00000000000E+00 0.  1.
        -11    1    1    2    0    0  0.37348936076E+01  0.89596113816E+00  0.17269513329E+03  0.17273783963E+03  0.00000000000E+00 0.  1.
         11    1    1    2    0    0 -0.71436712326E+00  0.31374321534E+01 -0.88539571496E+02  0.88598022108E+02  0.00000000000E+00 0.  1.
        -15    1    1    2    0    0 -0.78640996492E+01  0.25962372400E+02 -0.55781704789E+02  0.62053566877E+02  0.17770000000E+01 0.  1.
         15    1    1    2    0    0  0.48435731649E+01 -0.29995765692E+02 -0.28373857009E+02  0.41610571385E+02  0.17770000000E+01 0. -1.
</event>
<event>
 6    1  0.8353910E-003  0.1832324E+03  0.7546771E-02  0.1067873E+00
        -11   -1    0    0    0    0  0.00000000000E+00  0.00000000000E+00  0.18250000000E+03  0.18250000000E+03  0.00000000000E+00 0.  1.
         11   -1    0    0    0    0 -0.00000000000E+00 -0.00000000000E+00 -0.18250000000E+03  0.18250000000E+03  0.00000000000E+00 0. -1.
        -11    1    1    2    0    0 -0.23921043477E+00  0.36919854257E+01  0.18172990604E+03  0.18176756236E+03  0.00000000000E+00 0.  1.
         11    1    1    2    0    0 -0.50768994460E+01  0.27684531384E+01 -0.13825701234E+03  0.13837789094E+03  0.00000000000E+00 0. -1.
        -15    1    1    2    0    0  0.10713068046E+01 -0.26539979350E+00 -0.20786903956E+02  0.20891894131E+02  0.17770000000E+01 0.  1.
         15    1    1    2    0    0  0.42448030762E+01 -0.61950387706E+01 -0.22685989742E+02  0.23962652568E+02  0.17770000000E+01 0. -1.
</event>
<event>
 6    1  0.8353910E-003  0.1856991E+03  0.7546771E-02  0.1065936E+00
        -11   -1    0    0    0    0  0.00000000000E+00  0.00000000000E+00  0.18250000000E+03  0.18250000000E+03  0.00000000000E+00 0.  1.
         11   -1    0    0    0    0 -0.00000000000E+00 -0.00000000000E+00 -0.18250000000E+03  0.18250000000E+03  0.00000000000E+00 0. -1.
        -11    1    1    2    0    0 -0.17355773442E+01 -0.11026828146E+02  0.12972315098E+03  0.13020253096E+03  0.00000000000E+00 0.  1.
         11    1    1    2    0    0 -0.12082040998E+01  0.26938600163E+01 -0.17927654693E+03  0.17930085588E+03  0.00000000000E+00 0. -1.
        -15    1    1    2    0    0 -0.40591658918E+01 -0.33744537847E+01  0.35113007355E+02  0.35552001077E+02  0.17770000000E+01 0. -1.
         15    1    1    2    0    0  0.70029473358E+01  0.11707421914E+02  0.14440388599E+02  0.19944612083E+02  0.17770000000E+01 0.  1.
</event>
<event>
 6    1  0.8353910E-003  0.1846394E+03  0.7546771E-02  0.1066764E+00
        -11   -1    0    0    0    0  0.00000000000E+00  0.00000000000E+00  0.18250000000E+03  0.18250000000E+03  0.00000000000E+00 0.  1.
         11   -1    0    0    0    0 -0.00000000000E+00 -0.00000000000E+00 -0.18250000000E+03  0.18250000000E+03  0.00000000000E+00 0.  1.
        -11    1    1    2    0    0  0.31867248707E+01  0.95848781575E+00  0.18032986829E+03  0.18036057028E+03  0.00000000000E+00 0.  1.
         11    1    1    2    0    0  0.31586848423E+01 -0.31763182725E+00 -0.16700402670E+03  0.16703419744E+03  0.00000000000E+00 0.  1.
        -15    1    1    2    0    0 -0.69753009513E+01  0.21388939098E+01 -0.11627524753E+02  0.13841486604E+02  0.17770000000E+01 0.  1.
         15    1    1    2    0    0  0.62989123832E+00 -0.27797498983E+01 -0.16983168298E+01  0.37637456773E+01  0.17770000000E+01 0. -1.
</event>
<event>
 6    1  0.8353910E-003  0.1834310E+03  0.7546771E-02  0.1067716E+00
        -11   -1    0    0    0    0  0.00000000000E+00  0.00000000000E+00  0.18250000000E+03  0.18250000000E+03  0.00000000000E+00 0.  1.
         11   -1    0    0    0    0 -0.00000000000E+00 -0.00000000000E+00 -0.18250000000E+03  0.18250000000E+03  0.00000000000E+00 0.  1.
        -11    1    1    2    0    0  0.35507764902E+01  0.91074796865E+01  0.18130562994E+03  0.18156895563E+03  0.00000000000E+00 0.  1.
         11    1    1    2    0    0 -0.87567360650E+00 -0.47672498261E+00 -0.32265505895E+02  0.32280906766E+02  0.00000000000E+00 0.  1.
        -15    1    1    2    0    0  0.10425751608E+01 -0.30949676044E+01 -0.13851169763E+03  0.13856158882E+03  0.17770000000E+01 0.  1.
         15    1    1    2    0    0 -0.37176780444E+01 -0.55357870994E+01 -0.10528426414E+02  0.12588548789E+02  0.17770000000E+01 0. -1.
</event>
<event>
 6    1  0.8353910E-003  0.1848252E+03  0.7546771E-02  0.1066619E+00
        -11   -1    0    0    0    0  0.00000000000E+00  0.00000000000E+00  0.18250000000E+03  0.18250000000E+03  0.00000000000E+00 0.  1.
         11   -1    0    0    0    0 -0.00000000000E+00 -0.00000000000E+00 -0.18250000000E+03  0.18250000000E+03  0.00000000000E+00 0.  1.
        -11    1    1    2    0    0 -0.82852734816E+01  0.39122325869E+01  0.12874385129E+03  0.12906947960E+03  0.00000000000E+00 0.  1.
         11    1    1    2    0    0  0.44903731662E+01  0.67433742169E+00 -0.18011762167E+03  0.18017484790E+03  0.00000000000E+00 0.  1.
        -15    1    1    2    0    0 -0.50793141414E+01 -0.38605158944E+01  0.42660980709E+02  0.43171981877E+02  0.17770000000E+01 0.  1.
         15    1    1    2    0    0  0.88742144568E+01 -0.72605411420E+00  0.87127896707E+01  0.12583690621E+02  0.17770000000E+01 0. -1.
</event>
<event>
 6    1  0.8353910E-003  0.1896062E+03  0.7546771E-02  0.1062935E+00
        -11   -1    0    0    0    0  0.00000000000E+00  0.00000000000E+00  0.18250000000E+03  0.18250000000E+03  0.00000000000E+00 0.  1.
         11   -1    0    0    0    0 -0.00000000000E+00 -0.00000000000E+00 -0.18250000000E+03  0.18250000000E+03  0.00000000000E+00 0.  1.
        -11    1    1    2    0    0  0.61760479728E+01  0.57877502555E+00  0.99845645385E+02  0.10003814998E+03  0.00000000000E+00 0.  1.
         11    1    1    2    0    0 -0.27243696963E+02 -0.28132178545E+02 -0.17096594072E+03  0.17539381796E+03  0.00000000000E+00 0.  1.
        -15    1    1    2    0    0 -0.64343615476E+01  0.13295182945E+02  0.49660276409E+02  0.51840753082E+02  0.17770000000E+01 0. -1.
         15    1    1    2    0    0  0.27502010538E+02  0.14258220575E+02  0.21460018925E+02  0.37727278975E+02  0.17770000000E+01 0.  1.
</event>
<event>
 6    1  0.8353910E-003  0.1828333E+03  0.7546771E-02  0.1068190E+00
        -11   -1    0    0    0    0  0.00000000000E+00  0.00000000000E+00  0.18250000000E+03  0.18250000000E+03  0.00000000000E+00 0. -1.
         11   -1    0    0    0    0 -0.00000000000E+00 -0.00000000000E+00 -0.18250000000E+03  0.18250000000E+03  0.00000000000E+00 0.  1.
        -11    1    1    2    0    0 -0.43735131048E+00 -0.29116747464E+00  0.33700647688E+02  0.33704743127E+02  0.00000000000E+00 0. -1.
         11    1    1    2    0    0 -0.10288387847E+01 -0.51484907439E+01 -0.18209099508E+03  0.18216667081E+03  0.00000000000E+00 0.  1.
        -15    1    1    2    0    0 -0.57201414302E+01  0.19383781594E+01  0.80579727834E+02  0.80825290563E+02  0.17770000000E+01 0. -1.
         15    1    1    2    0    0  0.71863315254E+01  0.35012800592E+01  0.67810619554E+02  0.68303295500E+02  0.17770000000E+01 0.  1.
</event>
<event>
 6    1  0.8353910E-003  0.1786061E+03  0.7546771E-02  0.1071597E+00
        -11   -1    0    0    0    0  0.00000000000E+00  0.00000000000E+00  0.18250000000E+03  0.18250000000E+03  0.00000000000E+00 0.  1.
         11   -1    0    0    0    0 -0.00000000000E+00 -0.00000000000E+00 -0.18250000000E+03  0.18250000000E+03  0.00000000000E+00 0.  1.
        -11    1    1    2    0    0  0.25135129208E+01 -0.10292316393E+01  0.17732385663E+03  0.17734465651E+03  0.00000000000E+00 0.  1.
         11    1    1    2    0    0  0.28871980319E-01 -0.24962200826E+01 -0.17988575703E+03  0.17990307816E+03  0.00000000000E+00 0.  1.
        -15    1    1    2    0    0 -0.56472457726E+00  0.40528952797E+01  0.83600029093E+00  0.45388874719E+01  0.17770000000E+01 0. -1.
         15    1    1    2    0    0 -0.19776603239E+01 -0.52744355779E+00  0.17259001096E+01  0.32133778570E+01  0.17770000000E+01 0.  1.
</event>
<event>
 6    1  0.1398664E-002  0.1961830E+03  0.7546771E-02  0.1058056E+00
        -11   -1    0    0    0    0  0.00000000000E+00  0.00000000000E+00  0.18250000000E+03  0.18250000000E+03  0.00000000000E+00 0.  1.
         11   -1    0    0    0    0 -0.00000000000E+00 -0.00000000000E+00 -0.18250000000E+03  0.18250000000E+03  0.00000000000E+00 0. -1.
        -11    1    1    2    0    0 -0.24333209973E+01  0.28713834727E+01  0.16877503175E+03  0.16881699333E+03  0.00000000000E+00 0.  1.
         11    1    1    2    0    0  0.28013989103E+01  0.10868946384E+01 -0.14508691578E+03  0.14511802888E+03  0.00000000000E+00 0. -1.
        -15    1    1    2    0    0 -0.51184925716E+00 -0.17713238658E+01  0.13514780081E+02  0.13755238549E+02  0.17770000000E+01 0.  1.
         15    1    1    2    0    0  0.14377134412E+00 -0.21869542454E+01 -0.37202896052E+02  0.37309739248E+02  0.17770000000E+01 0. -1.
</event>
<event>
 6    1  0.8353910E-003  0.1835387E+03  0.7546771E-02  0.1067631E+00
        -11   -1    0    0    0    0  0.00000000000E+00  0.00000000000E+00  0.18250000000E+03  0.18250000000E+03  0.00000000000E+00 0.  1.
         11   -1    0    0    0    0 -0.00000000000E+00 -0.00000000000E+00 -0.18250000000E+03  0.18250000000E+03  0.00000000000E+00 0. -1.
        -11    1    1    2    0    0  0.16796582290E+01  0.29226681399E+01  0.13679300318E+03  0.13683453131E+03  0.00000000000E+00 0.  1.
         11    1    1    2    0    0 -0.27773621331E+01  0.45375746529E+01 -0.18138330040E+03  0.18146130439E+03  0.00000000000E+00 0. -1.
        -15    1    1    2    0    0 -0.23035737253E+01 -0.43741627097E-01  0.27801124864E+02  0.27952971898E+02  0.17770000000E+01 0.  1.
         15    1    1    2    0    0  0.34012776294E+01 -0.74165011657E+01  0.16789172364E+02  0.18751192408E+02  0.17770000000E+01 0. -1.
</event>
<event>
 6    1  0.8353910E-003  0.1848253E+03  0.7546771E-02  0.1066619E+00
        -11   -1    0    0    0    0  0.00000000000E+00  0.00000000000E+00  0.18250000000E+03  0.18250000000E+03  0.00000000000E+00 0. -1.
         11   -1    0    0    0    0 -0.00000000000E+00 -0.00000000000E+00 -0.18250000000E+03  0.18250000000E+03  0.00000000000E+00 0.  1.
        -11    1    1    2    0    0 -0.53969869573E+00  0.68790827988E+01  0.66462416000E+02  0.66819651267E+02  0.00000000000E+00 0. -1.
         11    1    1    2    0    0 -0.35854380750E+01  0.16078764848E+01 -0.18013188279E+03  0.18017473694E+03  0.00000000000E+00 0.  1.
        -15    1    1    2    0    0  0.12115257984E+02  0.70527743496E+01  0.50319369479E+02  0.52265837559E+02  0.17770000000E+01 0.  1.
         15    1    1    2    0    0 -0.79901212128E+01 -0.15539733633E+02  0.63350097311E+02  0.65739774236E+02  0.17770000000E+01 0. -1.
</event>
<event>
 6    1  0.8353910E-003  0.1836332E+03  0.7546771E-02  0.1067556E+00
        -11   -1    0    0    0    0  0.00000000000E+00  0.00000000000E+00  0.18250000000E+03  0.18250000000E+03  0.00000000000E+00 0. -1.
         11   -1    0    0    0    0 -0.00000000000E+00 -0.00000000000E+00 -0.18250000000E+03  0.18250000000E+03  0.00000000000E+00 0.  1.
        -11    1    1    2    0    0  0.25077887994E+01 -0.28842680575E+01  0.18132656553E+03  0.18136684199E+03  0.00000000000E+00 0. -1.
         11    1    1    2    0    0 -0.27231716231E+00  0.20985217252E+01 -0.14788286467E+03  0.14789800409E+03  0.00000000000E+00 0.  1.
        -15    1    1    2    0    0  0.86388182066E+00 -0.73039200812E+00 -0.31161945976E+02  0.31233065337E+02  0.17770000000E+01 0. -1.
         15    1    1    2    0    0 -0.30993534578E+01  0.15161383404E+01 -0.22817548752E+01  0.45020885857E+01  0.17770000000E+01 0. -1.
</event>
<event>
 6    1  0.8353910E-003  0.1839616E+03  0.7546771E-02  0.1067297E+00
        -11   -1    0    0    0    0  0.00000000000E+00  0.00000000000E+00  0.18250000000E+03  0.18250000000E+03  0.00000000000E+00 0.  1.
         11   -1    0    0    0    0 -0.00000000000E+00 -0.00000000000E+00 -0.18250000000E+03  0.18250000000E+03  0.00000000000E+00 0.  1.
        -11    1    1    2    0    0 -0.18954045751E+01  0.72551921060E+01  0.10398457908E+03  0.10425460689E+03  0.00000000000E+00 0.  1.
         11    1    1    2    0    0 -0.53221503261E+01  0.34517081587E+01 -0.18092718926E+03  0.18103835888E+03  0.00000000000E+00 0.  1.
        -15    1    1    2    0    0  0.63984182290E+01 -0.46281568779E+01  0.12142758331E+02  0.14593282729E+02  0.17770000000E+01 0.  1.
         15    1    1    2    0    0  0.81913667213E+00 -0.60787433868E+01  0.64799851845E+02  0.65113751498E+02  0.17770000000E+01 0.  1.
</event>
<event>
 6    1  0.8353910E-003  0.1826727E+03  0.7546771E-02  0.1068317E+00
        -11   -1    0    0    0    0  0.00000000000E+00  0.00000000000E+00  0.18250000000E+03  0.18250000000E+03  0.00000000000E+00 0.  1.
         11   -1    0    0    0    0 -0.00000000000E+00 -0.00000000000E+00 -0.18250000000E+03  0.18250000000E+03  0.00000000000E+00 0. -1.
        -11    1    1    2    0    0 -0.49426831537E+01 -0.20795263143E+01  0.18224840561E+03  0.18232727687E+03  0.00000000000E+00 0.  1.
         11    1    1    2    0    0  0.39674067738E+01 -0.18851436437E+01 -0.12399717534E+03  0.12407495144E+03  0.00000000000E+00 0. -1.
        -15    1    1    2    0    0  0.55923457451E+00  0.23709916711E+01 -0.16294805881E+02  0.16571444491E+02  0.17770000000E+01 0.  1.
         15    1    1    2    0    0  0.41604180541E+00  0.15936782869E+01 -0.41956424388E+02  0.42026327197E+02  0.17770000000E+01 0. -1.
</event>
<event>
 6    1  0.1031717E-002  0.1857440E+03  0.7546771E-02  0.1065902E+00
        -11   -1    0    0    0    0  0.00000000000E+00  0.00000000000E+00  0.18250000000E+03  0.18250000000E+03  0.00000000000E+00 0.  1.
         11   -1    0    0    0    0 -0.00000000000E+00 -0.00000000000E+00 -0.18250000000E+03  0.18250000000E+03  0.00000000000E+00 0.  1.
        -11    1    1    2    0    0 -0.16972766510E+01 -0.28237399816E+01  0.17922571657E+03  0.17925599498E+03  0.00000000000E+00 0.  1.
         11    1    1    2    0    0 -0.57795456908E+01 -0.43073554238E+01 -0.16235599652E+03  0.16251592557E+03  0.00000000000E+00 0.  1.
        -15    1    1    2    0    0  0.57503479451E+01  0.67754429960E+01 -0.18245243431E+02  0.20372033922E+02  0.17770000000E+01 0. -1.
         15    1    1    2    0    0  0.17264743967E+01  0.35565240941E+00  0.13755233808E+01  0.28560455266E+01  0.17770000000E+01 0.  1.
</event>
<event>
 6    1  0.8353910E-003  0.1829963E+03  0.7546771E-02  0.1068060E+00
        -11   -1    0    0    0    0  0.00000000000E+00  0.00000000000E+00  0.18250000000E+03  0.18250000000E+03  0.00000000000E+00 0.  1.
         11   -1    0    0    0    0 -0.00000000000E+00 -0.00000000000E+00 -0.18250000000E+03  0.18250000000E+03  0.00000000000E+00 0. -1.
        -11    1    1    2    0    0 -0.52070780193E-01 -0.20541023262E+01  0.13190398707E+03  0.13191999035E+03  0.00000000000E+00 0.  1.
         11    1    1    2    0    0 -0.31780121312E+01 -0.10783539334E+01 -0.18197273678E+03  0.18200368002E+03  0.00000000000E+00 0. -1.
        -15    1    1    2    0    0  0.41296307395E+01  0.15095343788E+01  0.46133749664E+02  0.46376859867E+02  0.17770000000E+01 0.  1.
         15    1    1    2    0    0 -0.89954782819E+00  0.16229218807E+01  0.39350000434E+01  0.46994697645E+01  0.17770000000E+01 0.  1.
</event>
<event>
 6    1  0.8353910E-003  0.1893826E+03  0.7546771E-02  0.1063105E+00
        -11   -1    0    0    0    0  0.00000000000E+00  0.00000000000E+00  0.18250000000E+03  0.18250000000E+03  0.00000000000E+00 0. -1.
         11   -1    0    0    0    0 -0.00000000000E+00 -0.00000000000E+00 -0.18250000000E+03  0.18250000000E+03  0.00000000000E+00 0. -1.
        -11    1    1    2    0    0  0.30970300241E+01  0.47189775224E+01  0.17552661909E+03  0.17561735208E+03  0.00000000000E+00 0. -1.
         11    1    1    2    0    0 -0.78440413106E+01  0.98923657716E+01 -0.13678013027E+03  0.13736153727E+03  0.00000000000E+00 0. -1.
        -15    1    1    2    0    0  0.18873727626E+01 -0.98704204013E+01  0.23854080233E+01  0.10480232597E+02  0.17770000000E+01 0.  1.
         15    1    1    2    0    0  0.28596385239E+01 -0.47409228926E+01 -0.41131896845E+02  0.41540878053E+02  0.17770000000E+01 0. -1.
</event>
<event>
 6    1  0.8353910E-003  0.1833923E+03  0.7546771E-02  0.1067747E+00
        -11   -1    0    0    0    0  0.00000000000E+00  0.00000000000E+00  0.18250000000E+03  0.18250000000E+03  0.00000000000E+00 0.  1.
         11   -1    0    0    0    0 -0.00000000000E+00 -0.00000000000E+00 -0.18250000000E+03  0.18250000000E+03  0.00000000000E+00 0. -1.
        -11    1    1    2    0    0  0.76628375144E+00  0.14874552384E+01  0.40706431809E+02  0.40740806380E+02  0.00000000000E+00 0.  1.
         11    1    1    2    0    0  0.20223789377E+00  0.34633198870E+01 -0.18157452313E+03  0.18160766210E+03  0.00000000000E+00 0. -1.
        -15    1    1    2    0    0  0.88370572525E+01  0.27923031758E+01  0.74395358252E+02  0.74991450155E+02  0.17770000000E+01 0. -1.
         15    1    1    2    0    0 -0.98055788977E+01 -0.77430783012E+01  0.66472733069E+02  0.67660081361E+02  0.17770000000E+01 0.  1.
</event>
<event>
 6    1  0.8353910E-003  0.1929139E+03  0.7546771E-02  0.1060455E+00
        -11   -1    0    0    0    0  0.00000000000E+00  0.00000000000E+00  0.18250000000E+03  0.18250000000E+03  0.00000000000E+00 0.  1.
         11   -1    0    0    0    0 -0.00000000000E+00 -0.00000000000E+00 -0.18250000000E+03  0.18250000000E+03  0.00000000000E+00 0.  1.
        -11    1    1    2    0    0  0.18586457208E+01  0.15997264935E+01  0.17206864985E+03  0.17208612365E+03  0.00000000000E+00 0.  1.
         11    1    1    2    0    0 -0.23768650603E+01 -0.33829153173E+01 -0.15276103668E+03  0.15281697527E+03  0.00000000000E+00 0.  1.
        -15    1    1    2    0    0 -0.14817433061E+02 -0.16917108076E+01 -0.19065237457E+02  0.24270542150E+02  0.17770000000E+01 0.  1.
         15    1    1    2    0    0  0.15335652401E+02  0.34748996314E+01 -0.24237571572E+00  0.15826358930E+02  0.17770000000E+01 0. -1.
</event>
<event>
 6    1  0.1001382E-002  0.1709622E+03  0.7546771E-02  0.1078029E+00
        -11   -1    0    0    0    0  0.00000000000E+00  0.00000000000E+00  0.18250000000E+03  0.18250000000E+03  0.00000000000E+00 0. -1.
         11   -1    0    0    0    0 -0.00000000000E+00 -0.00000000000E+00 -0.18250000000E+03  0.18250000000E+03  0.00000000000E+00 0. -1.
        -11    1    1    2    0    0 -0.20933386598E+01 -0.13625259820E+01  0.17054757254E+03  0.17056586130E+03  0.00000000000E+00 0. -1.
         11    1    1    2    0    0 -0.11206377504E+02 -0.80475681594E+01 -0.17119204942E+03  0.17174709323E+03  0.00000000000E+00 0. -1.
        -15    1    1    2    0    0  0.27538560484E+01  0.32864046820E+00  0.66535219309E+01  0.74242043869E+01  0.17770000000E+01 0. -1.
         15    1    1    2    0    0  0.10545860115E+02  0.90814536733E+01 -0.60090450520E+01  0.15262841080E+02  0.17770000000E+01 0. -1.
</event>
<event>
 6    1  0.8353910E-003  0.1835231E+03  0.7546771E-02  0.1067643E+00
        -11   -1    0    0    0    0  0.00000000000E+00  0.00000000000E+00  0.18250000000E+03  0.18250000000E+03  0.00000000000E+00 0.  1.
         11   -1    0    0    0    0 -0.00000000000E+00 -0.00000000000E+00 -0.18250000000E+03  0.18250000000E+03  0.00000000000E+00 0.  1.
        -11    1    1    2    0    0  0.20267610943E+01 -0.20852526589E+01  0.16499818172E+03  0.16502380437E+03  0.00000000000E+00 0.  1.
         11    1    1    2    0    0 -0.29989987657E+00  0.25070976481E+01 -0.18145928412E+03  0.18147685051E+03  0.00000000000E+00 0.  1.
        -15    1    1    2    0    0 -0.26000064229E+01  0.71685793879E+00  0.18731594289E+01  0.37336810187E+01  0.17770000000E+01 0.  1.
         15    1    1    2    0    0  0.87314520514E+00 -0.11387029280E+01  0.14587942972E+02  0.14765664092E+02  0.17770000000E+01 0.  1.
</event>
<event>
 6    1  0.8353910E-003  0.1850438E+03  0.7546771E-02  0.1066448E+00
        -11   -1    0    0    0    0  0.00000000000E+00  0.00000000000E+00  0.18250000000E+03  0.18250000000E+03  0.00000000000E+00 0. -1.
         11   -1    0    0    0    0 -0.00000000000E+00 -0.00000000000E+00 -0.18250000000E+03  0.18250000000E+03  0.00000000000E+00 0. -1.
        -11    1    1    2    0    0 -0.27928902537E+01 -0.13915577380E+02  0.17939565692E+03  0.17995623148E+03  0.00000000000E+00 0. -1.
         11    1    1    2    0    0 -0.64370036920E+01  0.72807508094E+00 -0.99728638102E+02  0.99938813118E+02  0.00000000000E+00 0. -1.
        -15    1    1    2    0    0  0.32708094618E+01  0.11245588873E+02 -0.11114203428E+02  0.16243297402E+02  0.17770000000E+01 0.  1.
         15    1    1    2    0    0  0.59590844839E+01  0.19419134258E+01 -0.68552815386E+02  0.68861657996E+02  0.17770000000E+01 0. -1.
</event>
<event>
 6    1  0.8353910E-003  0.1859598E+03  0.7546771E-02  0.1065734E+00
        -11   -1    0    0    0    0  0.00000000000E+00  0.00000000000E+00  0.18250000000E+03  0.18250000000E+03  0.00000000000E+00 0. -1.
         11   -1    0    0    0    0 -0.00000000000E+00 -0.00000000000E+00 -0.18250000000E+03  0.18250000000E+03  0.00000000000E+00 0.  1.
        -11    1    1    2    0    0 -0.37222881771E+01 -0.86826167962E+00  0.83550495756E+02  0.83637878074E+02  0.00000000000E+00 0. -1.
         11    1    1    2    0    0  0.51378884237E+01 -0.68737740903E+00 -0.17896517623E+03  0.17904023204E+03  0.00000000000E+00 0.  1.
        -15    1    1    2    0    0 -0.64264744922E+01  0.91855731148E+01  0.91550484816E+02  0.92251413685E+02  0.17770000000E+01 0. -1.
         15    1    1    2    0    0  0.50108742457E+01 -0.76299340261E+01  0.38641956545E+01  0.10070476205E+02  0.17770000000E+01 0.  1.
</event>
<event>
 6    1  0.8353910E-003  0.1858300E+03  0.7546771E-02  0.1065835E+00
        -11   -1    0    0    0    0  0.00000000000E+00  0.00000000000E+00  0.18250000000E+03  0.18250000000E+03  0.00000000000E+00 0. -1.
         11   -1    0    0    0    0 -0.00000000000E+00 -0.00000000000E+00 -0.18250000000E+03  0.18250000000E+03  0.00000000000E+00 0.  1.
        -11    1    1    2    0    0 -0.12581861218E+01  0.50829279344E+01  0.16297868883E+03  0.16306278607E+03  0.00000000000E+00 0. -1.
         11    1    1    2    0    0  0.12329165253E+01  0.52515727025E+01 -0.17908876314E+03  0.17916998684E+03  0.00000000000E+00 0.  1.
        -15    1    1    2    0    0 -0.66970152948E+00  0.18692410214E+01  0.67881113881E+01  0.72923759744E+01  0.17770000000E+01 0. -1.
         15    1    1    2    0    0  0.69497112602E+00 -0.12203741658E+02  0.93219629252E+01  0.15474851117E+02  0.17770000000E+01 0.  1.
</event>
<event>
 6    1  0.8353910E-003  0.1835559E+03  0.7546771E-02  0.1067617E+00
        -11   -1    0    0    0    0  0.00000000000E+00  0.00000000000E+00  0.18250000000E+03  0.18250000000E+03  0.00000000000E+00 0. -1.
         11   -1    0    0    0    0 -0.00000000000E+00 -0.00000000000E+00 -0.18250000000E+03  0.18250000000E+03  0.00000000000E+00 0. -1.
        -11    1    1    2    0    0 -0.29087386997E+01  0.83495063912E+00  0.13362751645E+03  0.13366177859E+03  0.00000000000E+00 0. -1.
         11    1    1    2    0    0 -0.10953665153E+01 -0.48896500683E+01 -0.18137490721E+03  0.18144411115E+03  0.00000000000E+00 0. -1.
        -15    1    1    2    0    0  0.66197482317E-01  0.49450440994E+01  0.43343792224E+02  0.43661194402E+02  0.17770000000E+01 0. -1.
         15    1    1    2    0    0  0.39379077327E+01 -0.89034467024E+00  0.44035985364E+01  0.62329158516E+01  0.17770000000E+01 0.  1.
</event>
<event>
 6    1  0.8353910E-003  0.1829684E+03  0.7546771E-02  0.1068083E+00
        -11   -1    0    0    0    0  0.00000000000E+00  0.00000000000E+00  0.18250000000E+03  0.18250000000E+03  0.00000000000E+00 0.  1.
         11   -1    0    0    0    0 -0.00000000000E+00 -0.00000000000E+00 -0.18250000000E+03  0.18250000000E+03  0.00000000000E+00 0.  1.
        -11    1    1    2    0    0  0.33051594526E+00 -0.28009173806E+01  0.18200976803E+03  0.18203161823E+03  0.00000000000E+00 0.  1.
         11    1    1    2    0    0  0.13166503272E+01 -0.11567636634E+01 -0.12260689152E+03  0.12261941738E+03  0.00000000000E+00 0.  1.
        -15    1    1    2    0    0 -0.41693531966E+01  0.37682088546E+01 -0.51909514001E+02  0.52243069176E+02  0.17770000000E+01 0.  1.
         15    1    1    2    0    0  0.25221869241E+01  0.18947218948E+00 -0.74933625023E+01  0.81058952116E+01  0.17770000000E+01 0. -1.
</event>
<event>
 6    1  0.8353910E-003  0.1815558E+03  0.7546771E-02  0.1069209E+00
        -11   -1    0    0    0    0  0.00000000000E+00  0.00000000000E+00  0.18250000000E+03  0.18250000000E+03  0.00000000000E+00 0. -1.
         11   -1    0    0    0    0 -0.00000000000E+00 -0.00000000000E+00 -0.18250000000E+03  0.18250000000E+03  0.00000000000E+00 0.  1.
        -11    1    1    2    0    0  0.17051565995E+01 -0.37255360544E+00  0.11801154361E+01  0.21069000120E+01  0.00000000000E+00 0. -1.
         11    1    1    2    0    0  0.16495556264E+01  0.24107399257E+01 -0.18189091072E+03  0.18191436475E+03  0.00000000000E+00 0.  1.
        -15    1    1    2    0    0 -0.21437154491E+01  0.17100931061E+01  0.14020691531E+03  0.14024498837E+03  0.17770000000E+01 0. -1.
         15    1    1    2    0    0 -0.12109967768E+01 -0.37482794264E+01  0.40503879974E+02  0.40733746866E+02  0.17770000000E+01 0.  1.
</event>
<event>
 6    1  0.8353910E-003  0.1801514E+03  0.7546771E-02  0.1070340E+00
        -11   -1    0    0    0    0  0.00000000000E+00  0.00000000000E+00  0.18250000000E+03  0.18250000000E+03  0.00000000000E+00 0. -1.
         11   -1    0    0    0    0 -0.00000000000E+00 -0.00000000000E+00 -0.18250000000E+03  0.18250000000E+03  0.00000000000E+00 0.  1.
        -11    1    1    2    0    0  0.12540934465E+01 -0.37293743372E+01  0.18079636169E+03  0.18083916994E+03  0.00000000000E+00 0. -1.
         11    1    1    2    0    0  0.19338767990E+01  0.88065551610E+00 -0.72594141824E+01  0.75640285486E+01  0.00000000000E+00 0.  1.
        -15    1    1    2    0    0 -0.10361330225E+02 -0.83252724876E+01 -0.13746415999E+03  0.13811669101E+03  0.17770000000E+01 0.  1.
         15    1    1    2    0    0  0.71733599795E+01  0.11173991309E+02 -0.36072787522E+02  0.38480110496E+02  0.17770000000E+01 0. -1.
</event>
<event>
 6    1  0.8353910E-003  0.1827892E+03  0.7546771E-02  0.1068225E+00
        -11   -1    0    0    0    0  0.00000000000E+00  0.00000000000E+00  0.18250000000E+03  0.18250000000E+03  0.00000000000E+00 0.  1.
         11   -1    0    0    0    0 -0.00000000000E+00 -0.00000000000E+00 -0.18250000000E+03  0.18250000000E+03  0.00000000000E+00 0.  1.
        -11    1    1    2    0    0 -0.44166747826E+01  0.14811540350E+01  0.18215126496E+03  0.18221082339E+03  0.00000000000E+00 0.  1.
         11    1    1    2    0    0  0.17048266267E+01  0.80691755487E+00 -0.11382775054E+03  0.11384337637E+03  0.00000000000E+00 0.  1.
        -15    1    1    2    0    0  0.24580961428E+00  0.25136737528E+01 -0.35489887188E+02  0.35623991912E+02  0.17770000000E+01 0.  1.
         15    1    1    2    0    0  0.24660385416E+01 -0.48017453427E+01 -0.32833627230E+02  0.33321808332E+02  0.17770000000E+01 0. -1.
</event>
<event>
 6    1  0.8353910E-003  0.1969584E+03  0.7546771E-02  0.1057495E+00
        -11   -1    0    0    0    0  0.00000000000E+00  0.00000000000E+00  0.18250000000E+03  0.18250000000E+03  0.00000000000E+00 0. -1.
         11   -1    0    0    0    0 -0.00000000000E+00 -0.00000000000E+00 -0.18250000000E+03  0.18250000000E+03  0.00000000000E+00 0. -1.
        -11    1    1    2    0    0  0.72514181013E+00 -0.33857706854E+01  0.10994044542E+03  0.10999495813E+03  0.00000000000E+00 0. -1.
         11    1    1    2    0    0  0.94801132579E+01  0.55561317195E+01 -0.16768199173E+03  0.16804164215E+03  0.00000000000E+00 0. -1.
        -15    1    1    2    0    0  0.20783155145E+02  0.85201243896E+01  0.47501723914E+02  0.52574742616E+02  0.17770000000E+01 0.  1.
         15    1    1    2    0    0 -0.30988410213E+02 -0.10690485424E+02  0.10239822391E+02  0.34388657108E+02  0.17770000000E+01 0. -1.
</event>
<event>
 6    1  0.1186613E-002  0.1961374E+03  0.7546771E-02  0.1058090E+00
        -11   -1    0    0    0    0  0.00000000000E+00  0.00000000000E+00  0.18250000000E+03  0.18250000000E+03  0.00000000000E+00 0.  1.
         11   -1    0    0    0    0 -0.00000000000E+00 -0.00000000000E+00 -0.18250000000E+03  0.18250000000E+03  0.00000000000E+00 0.  1.
        -11    1    1    2    0    0  0.24169248700E+01  0.25789576829E+01  0.93813621767E+02  0.93880179897E+02  0.00000000000E+00 0.  1.
         11    1    1    2    0    0  0.95483820455E+01 -0.25522595932E+02 -0.16664935886E+03  0.16886261668E+03  0.00000000000E+00 0.  1.
        -15    1    1    2    0    0 -0.10162719361E+02  0.17125455775E+02 -0.77349277130E+01  0.21437092528E+02  0.17770000000E+01 0. -1.
         15    1    1    2    0    0 -0.18025875544E+01  0.58181824740E+01  0.80570664806E+02  0.80820110898E+02  0.17770000000E+01 0.  1.
</event>
<event>
 6    1  0.8353910E-003  0.1911975E+03  0.7546771E-02  0.1061735E+00
        -11   -1    0    0    0    0  0.00000000000E+00  0.00000000000E+00  0.18250000000E+03  0.18250000000E+03  0.00000000000E+00 0.  1.
         11   -1    0    0    0    0 -0.00000000000E+00 -0.00000000000E+00 -0.18250000000E+03  0.18250000000E+03  0.00000000000E+00 0. -1.
        -11    1    1    2    0    0 -0.36027172635E+01 -0.63376471026E+00  0.16802194587E+03  0.16806176104E+03  0.00000000000E+00 0.  1.
         11    1    1    2    0    0  0.26120492256E+01  0.11759465451E+01 -0.17377889850E+03  0.17380250635E+03  0.00000000000E+00 0. -1.
        -15    1    1    2    0    0  0.89235353742E+01 -0.26184934956E+01  0.99679684363E+01  0.13747876764E+02  0.17770000000E+01 0. -1.
         15    1    1    2    0    0 -0.79328673364E+01  0.20763116607E+01 -0.42110158048E+01  0.93878558467E+01  0.17770000000E+01 0.  1.
</event>
<event>
 6    1  0.8353910E-003  0.1905001E+03  0.7546771E-02  0.1062259E+00
        -11   -1    0    0    0    0  0.00000000000E+00  0.00000000000E+00  0.18250000000E+03  0.18250000000E+03  0.00000000000E+00 0. -1.
         11   -1    0    0    0    0 -0.00000000000E+00 -0.00000000000E+00 -0.18250000000E+03  0.18250000000E+03  0.00000000000E+00 0. -1.
        -11    1    1    2    0    0 -0.93339111188E+01 -0.12297649363E+02  0.14113190399E+03  0.14197382999E+03  0.00000000000E+00 0. -1.
         11    1    1    2    0    0 -0.91128450538E+00  0.26130691593E+01 -0.17447793821E+03  0.17449988393E+03  0.00000000000E+00 0. -1.
        -15    1    1    2    0    0  0.18914545476E+01 -0.10268056928E+00 -0.62957886735E+01  0.68104939341E+01  0.17770000000E+01 0. -1.
         15    1    1    2    0    0  0.83537410766E+01  0.97872607734E+01  0.39641822891E+02  0.41715792148E+02  0.17770000000E+01 0.  1.
</event>
<event>
 6    1  0.8353910E-003  0.1834005E+03  0.7546771E-02  0.1067740E+00
        -11   -1    0    0    0    0  0.00000000000E+00  0.00000000000E+00  0.18250000000E+03  0.18250000000E+03  0.00000000000E+00 0.  1.
         11   -1    0    0    0    0 -0.00000000000E+00 -0.00000000000E+00 -0.18250000000E+03  0.18250000000E+03  0.00000000000E+00 0. -1.
        -11    1    1    2    0    0 -0.17768220417E+01  0.19862429681E+01  0.15350297168E+03  0.15352610388E+03  0.00000000000E+00 0.  1.
         11    1    1    2    0    0 -0.76261890149E-01  0.29853765405E+01 -0.18157497342E+03  0.18159952990E+03  0.00000000000E+00 0. -1.
        -15    1    1    2    0    0  0.10737739897E+01 -0.67840826070E+01  0.15820993645E+02  0.17338925466E+02  0.17770000000E+01 0.  1.
         15    1    1    2    0    0  0.77930994214E+00  0.18124630984E+01  0.12251008099E+02  0.12535440754E+02  0.17770000000E+01 0. -1.
</event>
<event>
 6    1  0.8353910E-003  0.1841880E+03  0.7546771E-02  0.1067119E+00
        -11   -1    0    0    0    0  0.00000000000E+00  0.00000000000E+00  0.18250000000E+03  0.18250000000E+03  0.00000000000E+00 0. -1.
         11   -1    0    0    0    0 -0.00000000000E+00 -0.00000000000E+00 -0.18250000000E+03  0.18250000000E+03  0.00000000000E+00 0.  1.
        -11    1    1    2    0    0 -0.29816942882E+01 -0.29383035640E+00  0.18078721929E+03  0.18081204466E+03  0.00000000000E+00 0. -1.
         11    1    1    2    0    0 -0.34553053624E+01 -0.68765081280E+01 -0.27052750425E+02  0.28126087619E+02  0.00000000000E+00 0.  1.
        -15    1    1    2    0    0 -0.14411545184E+01  0.41319706724E+01 -0.43272682272E+01  0.64057073999E+01  0.17770000000E+01 0. -1.
         15    1    1    2    0    0  0.78781541690E+01  0.30383678121E+01 -0.14940720063E+03  0.14965616032E+03  0.17770000000E+01 0.  1.
</event>
<event>
 6    1  0.8353910E-003  0.1825512E+03  0.7546771E-02  0.1068414E+00
        -11   -1    0    0    0    0  0.00000000000E+00  0.00000000000E+00  0.18250000000E+03  0.18250000000E+03  0.00000000000E+00 0. -1.
         11   -1    0    0    0    0 -0.00000000000E+00 -0.00000000000E+00 -0.18250000000E+03  0.18250000000E+03  0.00000000000E+00 0. -1.
        -11    1    1    2    0    0  0.71785505693E+00  0.10207153503E+00  0.35538693032E+02  0.35546088912E+02  0.00000000000E+00 0. -1.
         11    1    1    2    0    0  0.25519297826E+01 -0.33108589993E+01 -0.18240091752E+03  0.18244881158E+03  0.00000000000E+00 0. -1.
        -15    1    1    2    0    0 -0.11086469631E+00  0.12187365114E+01  0.34966817221E+02  0.35033321927E+02  0.17770000000E+01 0.  1.
         15    1    1    2    0    0 -0.31589201432E+01  0.19900509528E+01  0.11189540727E+03  0.11197177759E+03  0.17770000000E+01 0. -1.
</event>
<event>
 6    1  0.8353910E-003  0.1838912E+03  0.7546771E-02  0.1067353E+00
        -11   -1    0    0    0    0  0.00000000000E+00  0.00000000000E+00  0.18250000000E+03  0.18250000000E+03  0.00000000000E+00 0. -1.
         11   -1    0    0    0    0 -0.00000000000E+00 -0.00000000000E+00 -0.18250000000E+03  0.18250000000E+03  0.00000000000E+00 0.  1.
        -11    1    1    2    0    0 -0.99240212650E+00 -0.17713895515E+01  0.84588791381E+02  0.84613156839E+02  0.00000000000E+00 0. -1.
         11    1    1    2    0    0 -0.95882734217E+01 -0.17083390398E+01 -0.18084678017E+03  0.18110883829E+03  0.00000000000E+00 0.  1.
        -15    1    1    2    0    0 -0.23574139013E+01  0.48040456194E+01  0.66681485456E+02  0.66919462686E+02  0.17770000000E+01 0. -1.
         15    1    1    2    0    0  0.12938089449E+02 -0.13243170282E+01  0.29576503330E+02  0.32358542186E+02  0.17770000000E+01 0.  1.
</event>
<event>
 6    1  0.8353910E-003  0.1696194E+03  0.7546771E-02  0.1079197E+00
        -11   -1    0    0    0    0  0.00000000000E+00  0.00000000000E+00  0.18250000000E+03  0.18250000000E+03  0.00000000000E+00 0. -1.
         11   -1    0    0    0    0 -0.00000000000E+00 -0.00000000000E+00 -0.18250000000E+03  0.18250000000E+03  0.00000000000E+00 0.  1.
        -11    1    1    2    0    0  0.10218171867E+02  0.13774983678E+02  0.16660257647E+03  0.16748307287E+03  0.00000000000E+00 0. -1.
         11    1    1    2    0    0  0.18478149073E+01  0.37545807780E+01 -0.17242153367E+03  0.17247230667E+03  0.00000000000E+00 0.  1.
        -15    1    1    2    0    0 -0.72861274034E+01 -0.15744072323E+02  0.80396168610E+01  0.19203037107E+02  0.17770000000E+01 0. -1.
         15    1    1    2    0    0 -0.47798593710E+01 -0.17854921323E+01 -0.22206596584E+01  0.58415833538E+01  0.17770000000E+01 0.  1.
</event>
<event>
 6    1  0.8353910E-003  0.1850631E+03  0.7546771E-02  0.1066433E+00
        -11   -1    0    0    0    0  0.00000000000E+00  0.00000000000E+00  0.18250000000E+03  0.18250000000E+03  0.00000000000E+00 0.  1.
         11   -1    0    0    0    0 -0.00000000000E+00 -0.00000000000E+00 -0.18250000000E+03  0.18250000000E+03  0.00000000000E+00 0. -1.
        -11    1    1    2    0    0  0.15366204241E+01 -0.55772034346E+00  0.12080515333E+03  0.12081621300E+03  0.00000000000E+00 0.  1.
         11    1    1    2    0    0 -0.22485505376E+01 -0.29519491030E+01 -0.17989866931E+03  0.17993693674E+03  0.00000000000E+00 0. -1.
        -15    1    1    2    0    0 -0.37705306978E+01  0.14902466540E+01  0.58847145088E+02  0.59013404840E+02  0.17770000000E+01 0.  1.
         15    1    1    2    0    0  0.44824608112E+01  0.20194227924E+01  0.24637089619E+00  0.52334454193E+01  0.17770000000E+01 0. -1.
</event>
