<event>
 6    1  0.1860328E-003  0.5127922E+03  0.7546771E-02  0.9371632E-01
        -11   -1    0    0    0    0  0.00000000000E+00  0.00000000000E+00  0.50000000000E+03  0.50000000000E+03  0.00000000000E+00 0. -1.
         11   -1    0    0    0    0 -0.00000000000E+00 -0.00000000000E+00 -0.50000000000E+03  0.50000000000E+03  0.00000000000E+00 0. -1.
        -11    1    1    2    0    0  0.31821955914E+02  0.11596656334E+02  0.46462150619E+03  0.46585433703E+03  0.00000000000E+00 0. -1.
         11    1    1    2    0    0 -0.25953210568E+02 -0.20239764835E+02 -0.48609484506E+03  0.48720777458E+03  0.00000000000E+00 0. -1.
        -15    1    1    2    0    0  0.85104973804E+01  0.91060808438E+01  0.28255701707E+02  0.30933665834E+02  0.17770000000E+01 0.  1.
         15    1    1    2    0    0 -0.14379242727E+02 -0.46297234289E+00 -0.67823628349E+01  0.16004222550E+02  0.17770000000E+01 0. -1.
</event>
<event>
 6    1  0.1860328E-003  0.5010594E+03  0.7546771E-02  0.9397442E-01
        -11   -1    0    0    0    0  0.00000000000E+00  0.00000000000E+00  0.50000000000E+03  0.50000000000E+03  0.00000000000E+00 0.  1.
         11   -1    0    0    0    0 -0.00000000000E+00 -0.00000000000E+00 -0.50000000000E+03  0.50000000000E+03  0.00000000000E+00 0.  1.
        -11    1    1    2    0    0  0.70203471656E+01 -0.98950649220E+01  0.39399911375E+03  0.39418586887E+03  0.00000000000E+00 0.  1.
         11    1    1    2    0    0 -0.34149193893E+01 -0.60983498085E+01 -0.49889167075E+03  0.49894062842E+03  0.00000000000E+00 0.  1.
        -15    1    1    2    0    0  0.13830102644E+01 -0.68840615049E+00  0.60258130061E+01  0.64695263972E+01  0.17770000000E+01 0. -1.
         15    1    1    2    0    0 -0.49884380407E+01  0.16681820881E+02  0.98866743997E+02  0.10040397631E+03  0.17770000000E+01 0.  1.
</event>
<event>
 6    1  0.1860328E-003  0.4847211E+03  0.7546771E-02  0.9434662E-01
        -11   -1    0    0    0    0  0.00000000000E+00  0.00000000000E+00  0.50000000000E+03  0.50000000000E+03  0.00000000000E+00 0.  1.
         11   -1    0    0    0    0 -0.00000000000E+00 -0.00000000000E+00 -0.50000000000E+03  0.50000000000E+03  0.00000000000E+00 0. -1.
        -11    1    1    2    0    0  0.79715765933E+01  0.93075010430E+01  0.47972063334E+03  0.47987713184E+03  0.00000000000E+00 0.  1.
         11    1    1    2    0    0 -0.15798582427E+00  0.77026796913E+01 -0.48973695796E+03  0.48979755433E+03  0.00000000000E+00 0. -1.
        -15    1    1    2    0    0 -0.14237834939E+02 -0.12454114921E+02  0.22668111914E+01  0.19134186270E+02  0.17770000000E+01 0. -1.
         15    1    1    2    0    0  0.64242441701E+01 -0.45560658129E+01  0.77495134264E+01  0.11191127566E+02  0.17770000000E+01 0.  1.
</event>
<event>
 6    1  0.1860328E-003  0.5179758E+03  0.7546771E-02  0.9360462E-01
        -11   -1    0    0    0    0  0.00000000000E+00  0.00000000000E+00  0.50000000000E+03  0.50000000000E+03  0.00000000000E+00 0.  1.
         11   -1    0    0    0    0 -0.00000000000E+00 -0.00000000000E+00 -0.50000000000E+03  0.50000000000E+03  0.00000000000E+00 0. -1.
        -11    1    1    2    0    0 -0.74438375611E+01 -0.17866040741E+02  0.48163544759E+03  0.48202418041E+03  0.00000000000E+00 0.  1.
         11    1    1    2    0    0 -0.23448175986E+01 -0.72332425397E+01 -0.35720444666E+03  0.35728536869E+03  0.00000000000E+00 0. -1.
        -15    1    1    2    0    0  0.71186531420E+01  0.13039802337E+02  0.14715175784E+02  0.20985847491E+02  0.17770000000E+01 0.  1.
         15    1    1    2    0    0  0.26700020177E+01  0.12059480943E+02 -0.13914617671E+03  0.13970460341E+03  0.17770000000E+01 0. -1.
</event>
<event>
 6    1  0.1860328E-003  0.5006603E+03  0.7546771E-02  0.9398334E-01
        -11   -1    0    0    0    0  0.00000000000E+00  0.00000000000E+00  0.50000000000E+03  0.50000000000E+03  0.00000000000E+00 0. -1.
         11   -1    0    0    0    0 -0.00000000000E+00 -0.00000000000E+00 -0.50000000000E+03  0.50000000000E+03  0.00000000000E+00 0. -1.
        -11    1    1    2    0    0  0.45279857250E+01 -0.54210947933E+01  0.49928978754E+03  0.49933974693E+03  0.00000000000E+00 0. -1.
         11    1    1    2    0    0  0.54453553322E+01  0.55203383262E+01 -0.34706365254E+03  0.34715026277E+03  0.00000000000E+00 0. -1.
        -15    1    1    2    0    0 -0.57444681493E+01 -0.55577665100E+01 -0.12786478466E+03  0.12812668953E+03  0.17770000000E+01 0. -1.
         15    1    1    2    0    0 -0.42288729079E+01  0.54585229770E+01 -0.24361350333E+02  0.25383300774E+02  0.17770000000E+01 0.  1.
</event>
<event>
 6    1  0.1860328E-003  0.5058879E+03  0.7546771E-02  0.9386731E-01
        -11   -1    0    0    0    0  0.00000000000E+00  0.00000000000E+00  0.50000000000E+03  0.50000000000E+03  0.00000000000E+00 0.  1.
         11   -1    0    0    0    0 -0.00000000000E+00 -0.00000000000E+00 -0.50000000000E+03  0.50000000000E+03  0.00000000000E+00 0.  1.
        -11    1    1    2    0    0 -0.71020829915E+01 -0.32227521484E+01  0.44851192878E+03  0.44857973201E+03  0.00000000000E+00 0.  1.
         11    1    1    2    0    0  0.53190268521E+01  0.99399400777E+01 -0.49398342787E+03  0.49411205355E+03  0.00000000000E+00 0.  1.
        -15    1    1    2    0    0 -0.69914437270E+01  0.89714589423E+01  0.41952482305E+01  0.12252558821E+02  0.17770000000E+01 0.  1.
         15    1    1    2    0    0  0.87744998664E+01 -0.15688646872E+02  0.41276250864E+02  0.45055655616E+02  0.17770000000E+01 0. -1.
</event>
<event>
 6    1  0.1860328E-003  0.5015415E+03  0.7546771E-02  0.9396367E-01
        -11   -1    0    0    0    0  0.00000000000E+00  0.00000000000E+00  0.50000000000E+03  0.50000000000E+03  0.00000000000E+00 0. -1.
         11   -1    0    0    0    0 -0.00000000000E+00 -0.00000000000E+00 -0.50000000000E+03  0.50000000000E+03  0.00000000000E+00 0.  1.
        -11    1    1    2    0    0  0.35969723439E+02  0.23048991657E+01  0.49715362585E+03  0.49845848499E+03  0.00000000000E+00 0. -1.
         11    1    1    2    0    0 -0.86899561765E-01 -0.40859540771E+01 -0.22394618103E+03  0.22398346941E+03  0.00000000000E+00 0.  1.
        -15    1    1    2    0    0 -0.25868882581E+02  0.15873145374E+02 -0.14301578274E+03  0.14621158528E+03  0.17770000000E+01 0.  1.
         15    1    1    2    0    0 -0.10013941296E+02 -0.14092090463E+02 -0.13019166208E+03  0.13134646032E+03  0.17770000000E+01 0. -1.
</event>
<event>
 6    1  0.1860328E-003  0.5448025E+03  0.7546771E-02  0.9304789E-01
        -11   -1    0    0    0    0  0.00000000000E+00  0.00000000000E+00  0.50000000000E+03  0.50000000000E+03  0.00000000000E+00 0.  1.
         11   -1    0    0    0    0 -0.00000000000E+00 -0.00000000000E+00 -0.50000000000E+03  0.50000000000E+03  0.00000000000E+00 0.  1.
        -11    1    1    2    0    0 -0.95524737590E+01  0.63317939470E+01  0.45505325809E+03  0.45519754950E+03  0.00000000000E+00 0.  1.
         11    1    1    2    0    0  0.15419082367E+02 -0.40616050182E+01 -0.43164232006E+03  0.43193672824E+03  0.00000000000E+00 0.  1.
        -15    1    1    2    0    0  0.67267908222E+01  0.18970374729E+02  0.39988703705E+02  0.44803783157E+02  0.17770000000E+01 0. -1.
         15    1    1    2    0    0 -0.12593399430E+02 -0.21240563658E+02 -0.63399641733E+02  0.68061939104E+02  0.17770000000E+01 0.  1.
</event>
<event>
 6    1  0.1860328E-003  0.4598757E+03  0.7546771E-02  0.9494357E-01
        -11   -1    0    0    0    0  0.00000000000E+00  0.00000000000E+00  0.50000000000E+03  0.50000000000E+03  0.00000000000E+00 0.  1.
         11   -1    0    0    0    0 -0.00000000000E+00 -0.00000000000E+00 -0.50000000000E+03  0.50000000000E+03  0.00000000000E+00 0. -1.
        -11    1    1    2    0    0  0.76198467339E+01 -0.91239166071E+00  0.45588238719E+03  0.45594697660E+03  0.00000000000E+00 0.  1.
         11    1    1    2    0    0  0.12813953274E+02 -0.30604577597E+01 -0.46388773352E+03  0.46407477103E+03  0.00000000000E+00 0. -1.
        -15    1    1    2    0    0 -0.17408837742E+02  0.12656897812E+02 -0.32158142445E+02  0.38737172693E+02  0.17770000000E+01 0. -1.
         15    1    1    2    0    0 -0.30249622663E+01 -0.86840483916E+01  0.40163488776E+02  0.41241079676E+02  0.17770000000E+01 0.  1.
</event>
<event>
 6    1  0.1860328E-003  0.5088063E+03  0.7546771E-02  0.9380318E-01
        -11   -1    0    0    0    0  0.00000000000E+00  0.00000000000E+00  0.50000000000E+03  0.50000000000E+03  0.00000000000E+00 0.  1.
         11   -1    0    0    0    0 -0.00000000000E+00 -0.00000000000E+00 -0.50000000000E+03  0.50000000000E+03  0.00000000000E+00 0. -1.
        -11    1    1    2    0    0  0.54388432488E+01  0.36773121421E+01  0.39556398194E+03  0.39561846196E+03  0.00000000000E+00 0.  1.
         11    1    1    2    0    0 -0.45565594107E+01  0.11771813707E+02 -0.49103151417E+03  0.49119373544E+03  0.00000000000E+00 0. -1.
        -15    1    1    2    0    0  0.25749230943E+01 -0.14468725776E+02 -0.26073881033E+01  0.15030983210E+02  0.17770000000E+01 0. -1.
         15    1    1    2    0    0 -0.34572069324E+01 -0.98040007344E+00  0.98074920333E+02  0.98156819383E+02  0.17770000000E+01 0.  1.
</event>
<event>
 6    1  0.1860328E-003  0.5086574E+03  0.7546771E-02  0.9380644E-01
        -11   -1    0    0    0    0  0.00000000000E+00  0.00000000000E+00  0.50000000000E+03  0.50000000000E+03  0.00000000000E+00 0. -1.
         11   -1    0    0    0    0 -0.00000000000E+00 -0.00000000000E+00 -0.50000000000E+03  0.50000000000E+03  0.00000000000E+00 0.  1.
        -11    1    1    2    0    0  0.48091912296E+00  0.16373600809E+02  0.49106943067E+03  0.49134256057E+03  0.00000000000E+00 0. -1.
         11    1    1    2    0    0  0.73759628649E+01  0.71938624401E+01 -0.35729372190E+03  0.35744224735E+03  0.00000000000E+00 0.  1.
        -15    1    1    2    0    0  0.21574382024E+01 -0.20632164717E+02 -0.42403884837E+01  0.21248044240E+02  0.17770000000E+01 0. -1.
         15    1    1    2    0    0 -0.10014320190E+02 -0.29352985318E+01 -0.12953532029E+03  0.12996714784E+03  0.17770000000E+01 0.  1.
</event>
<event>
 6    1  0.1860328E-003  0.5019556E+03  0.7546771E-02  0.9395444E-01
        -11   -1    0    0    0    0  0.00000000000E+00  0.00000000000E+00  0.50000000000E+03  0.50000000000E+03  0.00000000000E+00 0.  1.
         11   -1    0    0    0    0 -0.00000000000E+00 -0.00000000000E+00 -0.50000000000E+03  0.50000000000E+03  0.00000000000E+00 0.  1.
        -11    1    1    2    0    0 -0.81929502534E+01  0.53774791886E+01  0.49794795073E+03  0.49804437890E+03  0.00000000000E+00 0.  1.
         11    1    1    2    0    0  0.86135553682E+01 -0.64062764177E+01 -0.43688160650E+03  0.43701346869E+03  0.00000000000E+00 0.  1.
        -15    1    1    2    0    0 -0.56009305769E+01  0.47344458042E+01 -0.56268928720E+02  0.56772664802E+02  0.17770000000E+01 0. -1.
         15    1    1    2    0    0  0.51803254620E+01 -0.37056485751E+01 -0.47974155116E+01  0.81694876122E+01  0.17770000000E+01 0.  1.
</event>
<event>
 6    1  0.1860328E-003  0.5682969E+03  0.7546771E-02  0.9258753E-01
        -11   -1    0    0    0    0  0.00000000000E+00  0.00000000000E+00  0.50000000000E+03  0.50000000000E+03  0.00000000000E+00 0. -1.
         11   -1    0    0    0    0 -0.00000000000E+00 -0.00000000000E+00 -0.50000000000E+03  0.50000000000E+03  0.00000000000E+00 0. -1.
        -11    1    1    2    0    0  0.38608004201E+00  0.12387457991E+02  0.43152521183E+03  0.43170314640E+03  0.00000000000E+00 0. -1.
         11    1    1    2    0    0  0.97298823522E+00 -0.78587154637E+01 -0.42840667200E+03  0.42847985102E+03  0.00000000000E+00 0. -1.
        -15    1    1    2    0    0  0.70018822703E+00  0.89689350514E+01 -0.70474252291E+02  0.71068347557E+02  0.17770000000E+01 0. -1.
         15    1    1    2    0    0 -0.20592565043E+01 -0.13497677579E+02  0.67355712462E+02  0.68748655024E+02  0.17770000000E+01 0. -1.
</event>
<event>
 6    1  0.1860328E-003  0.4768288E+03  0.7546771E-02  0.9453204E-01
        -11   -1    0    0    0    0  0.00000000000E+00  0.00000000000E+00  0.50000000000E+03  0.50000000000E+03  0.00000000000E+00 0. -1.
         11   -1    0    0    0    0 -0.00000000000E+00 -0.00000000000E+00 -0.50000000000E+03  0.50000000000E+03  0.00000000000E+00 0. -1.
        -11    1    1    2    0    0  0.23656687576E+02  0.74800688862E+01  0.48163206574E+03  0.48227070930E+03  0.00000000000E+00 0. -1.
         11    1    1    2    0    0 -0.18770341421E+01 -0.11081103464E+02 -0.47156158994E+03  0.47169550265E+03  0.00000000000E+00 0. -1.
        -15    1    1    2    0    0 -0.12295735895E+02 -0.55493980959E+01  0.13375090699E+02  0.19079615317E+02  0.17770000000E+01 0. -1.
         15    1    1    2    0    0 -0.94839175392E+01  0.91504326741E+01 -0.23445566500E+02  0.26954172729E+02  0.17770000000E+01 0.  1.
</event>
<event>
 6    1  0.1860328E-003  0.5036304E+03  0.7546771E-02  0.9391723E-01
        -11   -1    0    0    0    0  0.00000000000E+00  0.00000000000E+00  0.50000000000E+03  0.50000000000E+03  0.00000000000E+00 0.  1.
         11   -1    0    0    0    0 -0.00000000000E+00 -0.00000000000E+00 -0.50000000000E+03  0.50000000000E+03  0.00000000000E+00 0.  1.
        -11    1    1    2    0    0  0.44559740926E+01 -0.89906328864E+01  0.49626815330E+03  0.49636958727E+03  0.00000000000E+00 0.  1.
         11    1    1    2    0    0  0.13149867880E+00  0.74989293468E+01 -0.45087693625E+03  0.45093931175E+03  0.00000000000E+00 0.  1.
        -15    1    1    2    0    0  0.10216099651E+01  0.18787920172E-01 -0.46483044804E+02  0.46528219643E+02  0.17770000000E+01 0.  1.
         15    1    1    2    0    0 -0.56090827365E+01  0.14729156194E+01  0.10918277545E+01  0.61628813401E+01  0.17770000000E+01 0. -1.
</event>
<event>
 6    1  0.1860328E-003  0.5048808E+03  0.7546771E-02  0.9388954E-01
        -11   -1    0    0    0    0  0.00000000000E+00  0.00000000000E+00  0.50000000000E+03  0.50000000000E+03  0.00000000000E+00 0. -1.
         11   -1    0    0    0    0 -0.00000000000E+00 -0.00000000000E+00 -0.50000000000E+03  0.50000000000E+03  0.00000000000E+00 0.  1.
        -11    1    1    2    0    0  0.30449492240E+01  0.73816150005E+01  0.49505479958E+03  0.49511919226E+03  0.00000000000E+00 0. -1.
         11    1    1    2    0    0  0.26518965912E+01 -0.23027007244E+02 -0.24046682976E+03  0.24158139795E+03  0.00000000000E+00 0.  1.
        -15    1    1    2    0    0  0.18842991002E+02  0.27842971212E+01 -0.20934624528E+03  0.21021850242E+03  0.17770000000E+01 0.  1.
         15    1    1    2    0    0 -0.24539836817E+02  0.12861095123E+02 -0.45241724540E+02  0.53080907369E+02  0.17770000000E+01 0. -1.
</event>
<event>
 6    1  0.1860328E-003  0.5004373E+03  0.7546771E-02  0.9398832E-01
        -11   -1    0    0    0    0  0.00000000000E+00  0.00000000000E+00  0.50000000000E+03  0.50000000000E+03  0.00000000000E+00 0. -1.
         11   -1    0    0    0    0 -0.00000000000E+00 -0.00000000000E+00 -0.50000000000E+03  0.50000000000E+03  0.00000000000E+00 0.  1.
        -11    1    1    2    0    0  0.93485554978E+01 -0.11275424008E+02  0.49934795065E+03  0.49956271528E+03  0.00000000000E+00 0. -1.
         11    1    1    2    0    0 -0.36976730551E+00  0.46532598053E+01 -0.12746716030E+03  0.12755260291E+03  0.00000000000E+00 0.  1.
        -15    1    1    2    0    0 -0.33249383199E+01 -0.90546040782E+01 -0.18265554291E+03  0.18291868728E+03  0.17770000000E+01 0.  1.
         15    1    1    2    0    0 -0.56538498724E+01  0.15676768281E+02 -0.18922524744E+03  0.18996599453E+03  0.17770000000E+01 0. -1.
</event>
<event>
 6    1  0.1860328E-003  0.5079314E+03  0.7546771E-02  0.9382235E-01
        -11   -1    0    0    0    0  0.00000000000E+00  0.00000000000E+00  0.50000000000E+03  0.50000000000E+03  0.00000000000E+00 0. -1.
         11   -1    0    0    0    0 -0.00000000000E+00 -0.00000000000E+00 -0.50000000000E+03  0.50000000000E+03  0.00000000000E+00 0. -1.
        -11    1    1    2    0    0  0.10256881872E+01 -0.14080788411E+02  0.49186604327E+03  0.49206861834E+03  0.00000000000E+00 0. -1.
         11    1    1    2    0    0 -0.13458816193E+02 -0.37674610199E+01 -0.34649661390E+03  0.34677836862E+03  0.00000000000E+00 0. -1.
        -15    1    1    2    0    0  0.79225023257E+01  0.18895135988E+02 -0.15171305300E+03  0.15310062177E+03  0.17770000000E+01 0. -1.
         15    1    1    2    0    0  0.45106256805E+01 -0.10468865568E+01  0.63436236303E+01  0.80523912756E+01  0.17770000000E+01 0.  1.
</event>
<event>
 6    1  0.1860328E-003  0.5452559E+03  0.7546771E-02  0.9303877E-01
        -11   -1    0    0    0    0  0.00000000000E+00  0.00000000000E+00  0.50000000000E+03  0.50000000000E+03  0.00000000000E+00 0.  1.
         11   -1    0    0    0    0 -0.00000000000E+00 -0.00000000000E+00 -0.50000000000E+03  0.50000000000E+03  0.00000000000E+00 0. -1.
        -11    1    1    2    0    0 -0.27367418932E+01  0.72983656300E+01  0.45467729739E+03  0.45474410459E+03  0.00000000000E+00 0.  1.
         11    1    1    2    0    0  0.51409025814E+01  0.49381368199E+01 -0.39410011693E+03  0.39416458014E+03  0.00000000000E+00 0. -1.
        -15    1    1    2    0    0 -0.10995140030E+02 -0.30927524493E+00 -0.10431860442E+03  0.10491195219E+03  0.17770000000E+01 0. -1.
         15    1    1    2    0    0  0.85909793416E+01 -0.11927227205E+02  0.43741423964E+02  0.46179363078E+02  0.17770000000E+01 0.  1.
</event>
<event>
 6    1  0.1860328E-003  0.5019319E+03  0.7546771E-02  0.9395497E-01
        -11   -1    0    0    0    0  0.00000000000E+00  0.00000000000E+00  0.50000000000E+03  0.50000000000E+03  0.00000000000E+00 0. -1.
         11   -1    0    0    0    0 -0.00000000000E+00 -0.00000000000E+00 -0.50000000000E+03  0.50000000000E+03  0.00000000000E+00 0.  1.
        -11    1    1    2    0    0 -0.81582021672E-01  0.60632573590E+01  0.44320714776E+03  0.44324862726E+03  0.00000000000E+00 0. -1.
         11    1    1    2    0    0 -0.82601633604E+01 -0.54796987675E+01 -0.49796941592E+03  0.49806806422E+03  0.00000000000E+00 0.  1.
        -15    1    1    2    0    0 -0.27123420679E+01 -0.39958831660E+01  0.37349771332E+02  0.37702613030E+02  0.17770000000E+01 0. -1.
         15    1    1    2    0    0  0.11054087450E+02  0.34123245745E+01  0.17412496836E+02  0.20980695494E+02  0.17770000000E+01 0.  1.
</event>
<event>
 6    1  0.1860328E-003  0.5081303E+03  0.7546771E-02  0.9381799E-01
        -11   -1    0    0    0    0  0.00000000000E+00  0.00000000000E+00  0.50000000000E+03  0.50000000000E+03  0.00000000000E+00 0.  1.
         11   -1    0    0    0    0 -0.00000000000E+00 -0.00000000000E+00 -0.50000000000E+03  0.50000000000E+03  0.00000000000E+00 0. -1.
        -11    1    1    2    0    0 -0.13406423936E+02  0.41943658608E+01  0.46248838552E+03  0.46270166592E+03  0.00000000000E+00 0.  1.
         11    1    1    2    0    0 -0.60778799786E+01  0.72788909711E+01 -0.49177826954E+03  0.49186968729E+03  0.00000000000E+00 0. -1.
        -15    1    1    2    0    0 -0.56807398546E+01 -0.62431182348E+01  0.10226754074E+02  0.13378772682E+02  0.17770000000E+01 0. -1.
         15    1    1    2    0    0  0.25165043769E+02 -0.52301385971E+01  0.19063129952E+02  0.32049874106E+02  0.17770000000E+01 0.  1.
</event>
<event>
 6    1  0.1860328E-003  0.5089481E+03  0.7546771E-02  0.9380007E-01
        -11   -1    0    0    0    0  0.00000000000E+00  0.00000000000E+00  0.50000000000E+03  0.50000000000E+03  0.00000000000E+00 0. -1.
         11   -1    0    0    0    0 -0.00000000000E+00 -0.00000000000E+00 -0.50000000000E+03  0.50000000000E+03  0.00000000000E+00 0. -1.
        -11    1    1    2    0    0 -0.36928694031E+01  0.14361615281E+02  0.40869850785E+03  0.40896743586E+03  0.00000000000E+00 0. -1.
         11    1    1    2    0    0 -0.24765452007E+02 -0.15262581293E+02 -0.49018943904E+03  0.49105189150E+03  0.00000000000E+00 0. -1.
        -15    1    1    2    0    0  0.11630616070E+02 -0.24436601246E+02  0.33040400697E+02  0.42746280748E+02  0.17770000000E+01 0.  1.
         15    1    1    2    0    0  0.16827705340E+02  0.25337567258E+02  0.48450530491E+02  0.57234391894E+02  0.17770000000E+01 0. -1.
</event>
<event>
 6    1  0.1860328E-003  0.5042880E+03  0.7546771E-02  0.9390266E-01
        -11   -1    0    0    0    0  0.00000000000E+00  0.00000000000E+00  0.50000000000E+03  0.50000000000E+03  0.00000000000E+00 0.  1.
         11   -1    0    0    0    0 -0.00000000000E+00 -0.00000000000E+00 -0.50000000000E+03  0.50000000000E+03  0.00000000000E+00 0. -1.
        -11    1    1    2    0    0 -0.12106239326E+02 -0.17457935763E+02  0.49525657159E+03  0.49571202553E+03  0.00000000000E+00 0.  1.
         11    1    1    2    0    0  0.82842834297E+01  0.14882066259E+02 -0.39083185523E+03  0.39120281736E+03  0.00000000000E+00 0. -1.
        -15    1    1    2    0    0  0.30846549057E+01 -0.20100312916E+02 -0.55226916871E+02  0.58878754668E+02  0.17770000000E+01 0.  1.
         15    1    1    2    0    0  0.73730099027E+00  0.22676182419E+02 -0.49197799494E+02  0.54206402444E+02  0.17770000000E+01 0. -1.
</event>
<event>
 6    1  0.1860328E-003  0.5011439E+03  0.7546771E-02  0.9397254E-01
        -11   -1    0    0    0    0  0.00000000000E+00  0.00000000000E+00  0.50000000000E+03  0.50000000000E+03  0.00000000000E+00 0. -1.
         11   -1    0    0    0    0 -0.00000000000E+00 -0.00000000000E+00 -0.50000000000E+03  0.50000000000E+03  0.00000000000E+00 0. -1.
        -11    1    1    2    0    0  0.43207687696E+01  0.12034316360E+02  0.36823055525E+03  0.36845248761E+03  0.00000000000E+00 0. -1.
         11    1    1    2    0    0 -0.11477029516E+01 -0.11534628232E+02 -0.49872144664E+03  0.49885613779E+03  0.00000000000E+00 0. -1.
        -15    1    1    2    0    0  0.38559302617E-01  0.50658003103E+00 -0.27636369443E+00  0.18687471844E+01  0.17770000000E+01 0. -1.
         15    1    1    2    0    0 -0.32116251206E+01 -0.10062681586E+01  0.13076725509E+03  0.13082262741E+03  0.17770000000E+01 0.  1.
</event>
<event>
 6    1  0.1860328E-003  0.4661427E+03  0.7546771E-02  0.9478927E-01
        -11   -1    0    0    0    0  0.00000000000E+00  0.00000000000E+00  0.50000000000E+03  0.50000000000E+03  0.00000000000E+00 0.  1.
         11   -1    0    0    0    0 -0.00000000000E+00 -0.00000000000E+00 -0.50000000000E+03  0.50000000000E+03  0.00000000000E+00 0. -1.
        -11    1    1    2    0    0 -0.92549937663E+01 -0.32062776512E+02  0.45643764366E+03  0.45765598335E+03  0.00000000000E+00 0.  1.
         11    1    1    2    0    0  0.68279680828E+01 -0.49697837376E+01 -0.47548722578E+03  0.47556221652E+03  0.00000000000E+00 0. -1.
        -15    1    1    2    0    0 -0.19159493108E+02  0.11896910772E+02  0.24286642419E+02  0.33190682293E+02  0.17770000000E+01 0.  1.
         15    1    1    2    0    0  0.21586518792E+02  0.25135649478E+02 -0.52370602906E+01  0.33591117839E+02  0.17770000000E+01 0. -1.
</event>
<event>
 6    1  0.1860328E-003  0.5009561E+03  0.7546771E-02  0.9397673E-01
        -11   -1    0    0    0    0  0.00000000000E+00  0.00000000000E+00  0.50000000000E+03  0.50000000000E+03  0.00000000000E+00 0. -1.
         11   -1    0    0    0    0 -0.00000000000E+00 -0.00000000000E+00 -0.50000000000E+03  0.50000000000E+03  0.00000000000E+00 0. -1.
        -11    1    1    2    0    0  0.59637283475E+01 -0.24673591587E+01  0.34939288631E+03  0.34945249022E+03  0.00000000000E+00 0. -1.
         11    1    1    2    0    0 -0.20979783610E+01  0.90802465865E+01 -0.49895683526E+03  0.49904386164E+03  0.00000000000E+00 0. -1.
        -15    1    1    2    0    0 -0.32842092662E+01 -0.69070347473E+01  0.14939741234E+03  0.14960360190E+03  0.17770000000E+01 0. -1.
         15    1    1    2    0    0 -0.58154072021E+00  0.29414731950E+00  0.16653660522E+00  0.19000462352E+01  0.17770000000E+01 0. -1.
</event>
<event>
 6    1  0.1860328E-003  0.5087559E+03  0.7546771E-02  0.9380428E-01
        -11   -1    0    0    0    0  0.00000000000E+00  0.00000000000E+00  0.50000000000E+03  0.50000000000E+03  0.00000000000E+00 0.  1.
         11   -1    0    0    0    0 -0.00000000000E+00 -0.00000000000E+00 -0.50000000000E+03  0.50000000000E+03  0.00000000000E+00 0. -1.
        -11    1    1    2    0    0 -0.76377536320E+01  0.11563624022E+02  0.49104860511E+03  0.49124411983E+03  0.00000000000E+00 0.  1.
         11    1    1    2    0    0  0.84140077039E+01  0.27254332684E+02 -0.34147381354E+03  0.34266304077E+03  0.00000000000E+00 0. -1.
        -15    1    1    2    0    0 -0.75973575303E+01 -0.42871830304E+02 -0.15157884353E+03  0.15771815751E+03  0.17770000000E+01 0.  1.
         15    1    1    2    0    0  0.68211034584E+01  0.40538735990E+01  0.20040519527E+01  0.83746818910E+01  0.17770000000E+01 0. -1.
</event>
<event>
 6    1  0.1860328E-003  0.4624212E+03  0.7546771E-02  0.9488058E-01
        -11   -1    0    0    0    0  0.00000000000E+00  0.00000000000E+00  0.50000000000E+03  0.50000000000E+03  0.00000000000E+00 0. -1.
         11   -1    0    0    0    0 -0.00000000000E+00 -0.00000000000E+00 -0.50000000000E+03  0.50000000000E+03  0.00000000000E+00 0.  1.
        -11    1    1    2    0    0 -0.63237792239E+01  0.59115852733E+01  0.46287040163E+03  0.46295134272E+03  0.00000000000E+00 0. -1.
         11    1    1    2    0    0  0.10685120128E+02  0.49915130471E+01 -0.46181556113E+03  0.46196612376E+03  0.00000000000E+00 0.  1.
        -15    1    1    2    0    0 -0.43152255749E+01 -0.22664778617E+02  0.32263778716E+02  0.39704187531E+02  0.17770000000E+01 0.  1.
         15    1    1    2    0    0 -0.46115328743E-01  0.11761680297E+02 -0.33318619210E+02  0.35378345992E+02  0.17770000000E+01 0. -1.
</event>
<event>
 6    1  0.1860328E-003  0.3752795E+03  0.7546771E-02  0.9732401E-01
        -11   -1    0    0    0    0  0.00000000000E+00  0.00000000000E+00  0.50000000000E+03  0.50000000000E+03  0.00000000000E+00 0.  1.
         11   -1    0    0    0    0 -0.00000000000E+00 -0.00000000000E+00 -0.50000000000E+03  0.50000000000E+03  0.00000000000E+00 0. -1.
        -11    1    1    2    0    0 -0.63787972150E+02 -0.49184631664E+02  0.96483939406E+02  0.12568684874E+03  0.00000000000E+00 0.  1.
         11    1    1    2    0    0 -0.46792970283E+01 -0.18343216882E+02 -0.43108050693E+03  0.43149597087E+03  0.00000000000E+00 0. -1.
        -15    1    1    2    0    0 -0.71720823491E+02  0.68372634794E+02  0.23891372129E+02  0.10194434316E+03  0.17770000000E+01 0. -1.
         15    1    1    2    0    0  0.14018809267E+03 -0.84478624833E+00  0.31070519539E+03  0.34087283723E+03  0.17770000000E+01 0.  1.
</event>
<event>
 6    1  0.1860328E-003  0.5016281E+03  0.7546771E-02  0.9396174E-01
        -11   -1    0    0    0    0  0.00000000000E+00  0.00000000000E+00  0.50000000000E+03  0.50000000000E+03  0.00000000000E+00 0.  1.
         11   -1    0    0    0    0 -0.00000000000E+00 -0.00000000000E+00 -0.50000000000E+03  0.50000000000E+03  0.00000000000E+00 0.  1.
        -11    1    1    2    0    0 -0.10718039695E+01  0.11955496814E+02  0.43043880228E+03  0.43060613694E+03  0.00000000000E+00 0.  1.
         11    1    1    2    0    0 -0.92891291846E+01 -0.40260523353E+01 -0.49826910209E+03  0.49837194455E+03  0.00000000000E+00 0.  1.
        -15    1    1    2    0    0 -0.14312959318E+01 -0.33788153928E+01  0.42126625372E+02  0.42323460347E+02  0.17770000000E+01 0.  1.
         15    1    1    2    0    0  0.11792229086E+02 -0.45506290858E+01  0.25703674443E+02  0.28698458160E+02  0.17770000000E+01 0. -1.
</event>
<event>
 6    1  0.1860328E-003  0.5016663E+03  0.7546771E-02  0.9396089E-01
        -11   -1    0    0    0    0  0.00000000000E+00  0.00000000000E+00  0.50000000000E+03  0.50000000000E+03  0.00000000000E+00 0.  1.
         11   -1    0    0    0    0 -0.00000000000E+00 -0.00000000000E+00 -0.50000000000E+03  0.50000000000E+03  0.00000000000E+00 0.  1.
        -11    1    1    2    0    0  0.19246176345E+02  0.29881006728E+01  0.49795298169E+03  0.49833373960E+03  0.00000000000E+00 0.  1.
         11    1    1    2    0    0 -0.49899519384E+01 -0.33103956751E+01 -0.38674481668E+03  0.38679117307E+03  0.00000000000E+00 0.  1.
        -15    1    1    2    0    0 -0.18354853767E+02 -0.29511513187E+01 -0.49283096285E+02  0.52702858171E+02  0.17770000000E+01 0. -1.
         15    1    1    2    0    0  0.40986293606E+01  0.32734463210E+01 -0.61925068725E+02  0.62172229163E+02  0.17770000000E+01 0.  1.
</event>
<event>
 6    1  0.1860328E-003  0.5005690E+03  0.7546771E-02  0.9398537E-01
        -11   -1    0    0    0    0  0.00000000000E+00  0.00000000000E+00  0.50000000000E+03  0.50000000000E+03  0.00000000000E+00 0. -1.
         11   -1    0    0    0    0 -0.00000000000E+00 -0.00000000000E+00 -0.50000000000E+03  0.50000000000E+03  0.00000000000E+00 0.  1.
        -11    1    1    2    0    0 -0.49755881544E+01 -0.75301907392E+01  0.19504955223E+03  0.19525825994E+03  0.00000000000E+00 0. -1.
         11    1    1    2    0    0 -0.30223915067E+01 -0.66077217561E+01 -0.49937811107E+03  0.49943097086E+03  0.00000000000E+00 0.  1.
        -15    1    1    2    0    0  0.22419423776E+01 -0.39967669453E+01  0.89146564884E+02  0.89281959047E+02  0.17770000000E+01 0. -1.
         15    1    1    2    0    0  0.57560372835E+01  0.18134679441E+02  0.21518199396E+03  0.21602881015E+03  0.17770000000E+01 0.  1.
</event>
<event>
 6    1  0.1860328E-003  0.5007751E+03  0.7546771E-02  0.9398077E-01
        -11   -1    0    0    0    0  0.00000000000E+00  0.00000000000E+00  0.50000000000E+03  0.50000000000E+03  0.00000000000E+00 0. -1.
         11   -1    0    0    0    0 -0.00000000000E+00 -0.00000000000E+00 -0.50000000000E+03  0.50000000000E+03  0.00000000000E+00 0. -1.
        -11    1    1    2    0    0 -0.59029145540E+01  0.42620489306E+01  0.26841873778E+03  0.26851746359E+03  0.00000000000E+00 0. -1.
         11    1    1    2    0    0 -0.16758011263E+01 -0.14005545046E+02 -0.49902560059E+03  0.49922491288E+03  0.00000000000E+00 0. -1.
        -15    1    1    2    0    0  0.43861293925E+01  0.16032466441E+02  0.95267923227E+02  0.96723384123E+02  0.17770000000E+01 0.  1.
         15    1    1    2    0    0  0.31925862878E+01 -0.62889703259E+01  0.13533893958E+03  0.13553423940E+03  0.17770000000E+01 0. -1.
</event>
<event>
 6    1  0.1860328E-003  0.5028360E+03  0.7546771E-02  0.9393486E-01
        -11   -1    0    0    0    0  0.00000000000E+00  0.00000000000E+00  0.50000000000E+03  0.50000000000E+03  0.00000000000E+00 0. -1.
         11   -1    0    0    0    0 -0.00000000000E+00 -0.00000000000E+00 -0.50000000000E+03  0.50000000000E+03  0.00000000000E+00 0. -1.
        -11    1    1    2    0    0 -0.42669552987E+01  0.37417474078E+01  0.87280336139E+02  0.87464648046E+02  0.00000000000E+00 0. -1.
         11    1    1    2    0    0  0.46155338392E-01  0.89596099295E+01 -0.49708321776E+03  0.49716395899E+03  0.00000000000E+00 0. -1.
        -15    1    1    2    0    0 -0.33904509379E+01 -0.16093719992E+02  0.22255051269E+02  0.27729911949E+02  0.17770000000E+01 0.  1.
         15    1    1    2    0    0  0.76112508982E+01  0.33923626550E+01  0.38754783035E+03  0.38764148101E+03  0.17770000000E+01 0. -1.
</event>
<event>
 6    1  0.1860328E-003  0.5015367E+03  0.7546771E-02  0.9396378E-01
        -11   -1    0    0    0    0  0.00000000000E+00  0.00000000000E+00  0.50000000000E+03  0.50000000000E+03  0.00000000000E+00 0. -1.
         11   -1    0    0    0    0 -0.00000000000E+00 -0.00000000000E+00 -0.50000000000E+03  0.50000000000E+03  0.00000000000E+00 0.  1.
        -11    1    1    2    0    0 -0.42807425479E+01 -0.39688237096E+01  0.39798043285E+03  0.39802324209E+03  0.00000000000E+00 0. -1.
         11    1    1    2    0    0 -0.18074961137E+01 -0.84913428748E+01 -0.49838767063E+03  0.49846327867E+03  0.00000000000E+00 0.  1.
        -15    1    1    2    0    0  0.27337381526E+01  0.17831057144E+02  0.81609190013E+02  0.83598071430E+02  0.17770000000E+01 0.  1.
         15    1    1    2    0    0  0.33545005090E+01 -0.53708905595E+01  0.18798047771E+02  0.19915407806E+02  0.17770000000E+01 0. -1.
</event>
<event>
 6    1  0.1860328E-003  0.5173525E+03  0.7546771E-02  0.9361798E-01
        -11   -1    0    0    0    0  0.00000000000E+00  0.00000000000E+00  0.50000000000E+03  0.50000000000E+03  0.00000000000E+00 0. -1.
         11   -1    0    0    0    0 -0.00000000000E+00 -0.00000000000E+00 -0.50000000000E+03  0.50000000000E+03  0.00000000000E+00 0.  1.
        -11    1    1    2    0    0  0.64732645905E+01  0.28228095244E+02  0.48177784131E+03  0.48264750791E+03  0.00000000000E+00 0. -1.
         11    1    1    2    0    0  0.92589715422E-02  0.62481943595E+01 -0.42881195774E+03  0.42885747647E+03  0.00000000000E+00 0.  1.
        -15    1    1    2    0    0  0.53178998992E+01 -0.74185041899E+01 -0.57788492698E+02  0.58531887728E+02  0.17770000000E+01 0. -1.
         15    1    1    2    0    0 -0.11800423461E+02 -0.27057785413E+02  0.48226091284E+01  0.29963127893E+02  0.17770000000E+01 0.  1.
</event>
<event>
 6    1  0.1860328E-003  0.5003453E+03  0.7546771E-02  0.9399037E-01
        -11   -1    0    0    0    0  0.00000000000E+00  0.00000000000E+00  0.50000000000E+03  0.50000000000E+03  0.00000000000E+00 0.  1.
         11   -1    0    0    0    0 -0.00000000000E+00 -0.00000000000E+00 -0.50000000000E+03  0.50000000000E+03  0.00000000000E+00 0.  1.
        -11    1    1    2    0    0 -0.30344527920E+01 -0.28411182447E+00  0.19614205897E+03  0.19616573585E+03  0.00000000000E+00 0.  1.
         11    1    1    2    0    0 -0.25654248819E+01  0.73726352837E+01 -0.49959374293E+03  0.49965472591E+03  0.00000000000E+00 0.  1.
        -15    1    1    2    0    0 -0.44058456712E+01  0.25965523489E+01  0.41456565936E+02  0.41808589409E+02  0.17770000000E+01 0. -1.
         15    1    1    2    0    0  0.10005723345E+02 -0.96850758081E+01  0.26199511802E+03  0.26237094883E+03  0.17770000000E+01 0.  1.
</event>
<event>
 6    1  0.1860328E-003  0.5081104E+03  0.7546771E-02  0.9381843E-01
        -11   -1    0    0    0    0  0.00000000000E+00  0.00000000000E+00  0.50000000000E+03  0.50000000000E+03  0.00000000000E+00 0. -1.
         11   -1    0    0    0    0 -0.00000000000E+00 -0.00000000000E+00 -0.50000000000E+03  0.50000000000E+03  0.00000000000E+00 0. -1.
        -11    1    1    2    0    0  0.63100056782E+01  0.48145265490E+01  0.49182556359E+03  0.49188960229E+03  0.00000000000E+00 0. -1.
         11    1    1    2    0    0 -0.57053143249E+01  0.42432664962E+01 -0.47594399064E+03  0.47599709889E+03  0.00000000000E+00 0. -1.
        -15    1    1    2    0    0  0.75508145762E+01  0.16923805676E+01 -0.16686808639E+02  0.18479346967E+02  0.17770000000E+01 0.  1.
         15    1    1    2    0    0 -0.81555059295E+01 -0.10750173613E+02  0.80523569092E+00  0.13633951855E+02  0.17770000000E+01 0. -1.
</event>
<event>
 6    1  0.1860328E-003  0.5157572E+03  0.7546771E-02  0.9365226E-01
        -11   -1    0    0    0    0  0.00000000000E+00  0.00000000000E+00  0.50000000000E+03  0.50000000000E+03  0.00000000000E+00 0.  1.
         11   -1    0    0    0    0 -0.00000000000E+00 -0.00000000000E+00 -0.50000000000E+03  0.50000000000E+03  0.00000000000E+00 0.  1.
        -11    1    1    2    0    0 -0.37791901261E+01 -0.32052000646E-01  0.25889352387E+03  0.25892110769E+03  0.00000000000E+00 0.  1.
         11    1    1    2    0    0 -0.18207386138E+01 -0.45027288834E+02 -0.48214143534E+03  0.48424284765E+03  0.00000000000E+00 0.  1.
        -15    1    1    2    0    0  0.18037402476E+02  0.28320145474E+02  0.23180049940E+03  0.23422640283E+03  0.17770000000E+01 0.  1.
         15    1    1    2    0    0 -0.12437473736E+02  0.16739195360E+02 -0.85525879353E+01  0.22609641829E+02  0.17770000000E+01 0. -1.
</event>
<event>
 6    1  0.1860328E-003  0.5002530E+03  0.7546771E-02  0.9399244E-01
        -11   -1    0    0    0    0  0.00000000000E+00  0.00000000000E+00  0.50000000000E+03  0.50000000000E+03  0.00000000000E+00 0.  1.
         11   -1    0    0    0    0 -0.00000000000E+00 -0.00000000000E+00 -0.50000000000E+03  0.50000000000E+03  0.00000000000E+00 0. -1.
        -11    1    1    2    0    0 -0.34964288016E+01 -0.40389954288E+01  0.27095800212E+03  0.27101065922E+03  0.00000000000E+00 0.  1.
         11    1    1    2    0    0 -0.61688347568E+01 -0.27327666772E+01 -0.49970148421E+03  0.49974703187E+03  0.00000000000E+00 0. -1.
        -15    1    1    2    0    0  0.58399783968E+01  0.71135802411E+01  0.19634599117E+03  0.19656961706E+03  0.17770000000E+01 0. -1.
         15    1    1    2    0    0  0.38252851616E+01 -0.34181813515E+00  0.32397490918E+02  0.32672691854E+02  0.17770000000E+01 0.  1.
</event>
<event>
 6    1  0.1860328E-003  0.5339854E+03  0.7546771E-02  0.9326819E-01
        -11   -1    0    0    0    0  0.00000000000E+00  0.00000000000E+00  0.50000000000E+03  0.50000000000E+03  0.00000000000E+00 0.  1.
         11   -1    0    0    0    0 -0.00000000000E+00 -0.00000000000E+00 -0.50000000000E+03  0.50000000000E+03  0.00000000000E+00 0. -1.
        -11    1    1    2    0    0 -0.50414004774E+01 -0.83314386433E+01  0.42250639396E+03  0.42261860055E+03  0.00000000000E+00 0.  1.
         11    1    1    2    0    0  0.41300236535E+01  0.49200515422E+01 -0.46597033008E+03  0.46601460548E+03  0.00000000000E+00 0. -1.
        -15    1    1    2    0    0 -0.86861094824E+01  0.49384016814E+01 -0.32867523288E+02  0.34398664584E+02  0.17770000000E+01 0.  1.
         15    1    1    2    0    0  0.95974863064E+01 -0.15270145803E+01  0.76331459410E+02  0.76968129389E+02  0.17770000000E+01 0. -1.
</event>
<event>
 6    1  0.1860328E-003  0.5020660E+03  0.7546771E-02  0.9395199E-01
        -11   -1    0    0    0    0  0.00000000000E+00  0.00000000000E+00  0.50000000000E+03  0.50000000000E+03  0.00000000000E+00 0.  1.
         11   -1    0    0    0    0 -0.00000000000E+00 -0.00000000000E+00 -0.50000000000E+03  0.50000000000E+03  0.00000000000E+00 0. -1.
        -11    1    1    2    0    0 -0.18507632684E+02  0.48527790174E+01  0.49756623272E+03  0.49793396939E+03  0.00000000000E+00 0.  1.
         11    1    1    2    0    0  0.81907933572E+01 -0.13516687556E+01 -0.84726956513E+02  0.85132680354E+02  0.00000000000E+00 0. -1.
        -15    1    1    2    0    0 -0.89440476278E+00 -0.98070930810E+01 -0.39356984145E+03  0.39369703690E+03  0.17770000000E+01 0. -1.
         15    1    1    2    0    0  0.11211244089E+02  0.63059828193E+01 -0.19269434757E+02  0.23236313352E+02  0.17770000000E+01 0.  1.
</event>
<event>
 6    1  0.1860328E-003  0.5133556E+03  0.7546771E-02  0.9370412E-01
        -11   -1    0    0    0    0  0.00000000000E+00  0.00000000000E+00  0.50000000000E+03  0.50000000000E+03  0.00000000000E+00 0.  1.
         11   -1    0    0    0    0 -0.00000000000E+00 -0.00000000000E+00 -0.50000000000E+03  0.50000000000E+03  0.00000000000E+00 0. -1.
        -11    1    1    2    0    0  0.21737570954E+02 -0.66673401379E+01  0.29052349586E+03  0.29141186843E+03  0.00000000000E+00 0.  1.
         11    1    1    2    0    0 -0.33144108857E+01 -0.89671230997E+01 -0.48655049598E+03  0.48664440792E+03  0.00000000000E+00 0. -1.
        -15    1    1    2    0    0 -0.19275112409E+02  0.15221064507E+02  0.20817684132E+03  0.20962816069E+03  0.17770000000E+01 0. -1.
         15    1    1    2    0    0  0.85195234067E+00  0.41339873020E+00 -0.12149841192E+02  0.12315562971E+02  0.17770000000E+01 0.  1.
</event>
<event>
 6    1  0.1860328E-003  0.5077039E+03  0.7546771E-02  0.9382735E-01
        -11   -1    0    0    0    0  0.00000000000E+00  0.00000000000E+00  0.50000000000E+03  0.50000000000E+03  0.00000000000E+00 0.  1.
         11   -1    0    0    0    0 -0.00000000000E+00 -0.00000000000E+00 -0.50000000000E+03  0.50000000000E+03  0.00000000000E+00 0.  1.
        -11    1    1    2    0    0 -0.12183303473E+02 -0.26782346771E+01  0.47112470397E+03  0.47128981797E+03  0.00000000000E+00 0.  1.
         11    1    1    2    0    0  0.40906393478E+00 -0.10879607491E+02 -0.49217570430E+03  0.49229610713E+03  0.00000000000E+00 0.  1.
        -15    1    1    2    0    0  0.34409969842E+01  0.45997893632E+01 -0.48425084762E+01  0.77205012644E+01  0.17770000000E+01 0.  1.
         15    1    1    2    0    0  0.83332425536E+01  0.89580528053E+01  0.25893508797E+02  0.28693573642E+02  0.17770000000E+01 0. -1.
</event>
<event>
 6    1  0.1860328E-003  0.5102900E+03  0.7546771E-02  0.9377075E-01
        -11   -1    0    0    0    0  0.00000000000E+00  0.00000000000E+00  0.50000000000E+03  0.50000000000E+03  0.00000000000E+00 0. -1.
         11   -1    0    0    0    0 -0.00000000000E+00 -0.00000000000E+00 -0.50000000000E+03  0.50000000000E+03  0.00000000000E+00 0.  1.
        -11    1    1    2    0    0  0.20006849770E+01  0.15088555626E+02  0.18413563027E+03  0.18476362625E+03  0.00000000000E+00 0. -1.
         11    1    1    2    0    0  0.12108654615E+02  0.45705494984E+00 -0.48956009864E+03  0.48971003522E+03  0.00000000000E+00 0.  1.
        -15    1    1    2    0    0 -0.40728754970E+01 -0.17923344424E+02  0.31240212112E+03  0.31294740389E+03  0.17770000000E+01 0. -1.
         15    1    1    2    0    0 -0.10036464095E+02  0.23777338485E+01 -0.69776527503E+01  0.12578934641E+02  0.17770000000E+01 0. -1.
</event>
<event>
 6    1  0.1860328E-003  0.5069419E+03  0.7546771E-02  0.9384409E-01
        -11   -1    0    0    0    0  0.00000000000E+00  0.00000000000E+00  0.50000000000E+03  0.50000000000E+03  0.00000000000E+00 0.  1.
         11   -1    0    0    0    0 -0.00000000000E+00 -0.00000000000E+00 -0.50000000000E+03  0.50000000000E+03  0.00000000000E+00 0. -1.
        -11    1    1    2    0    0  0.10823124037E+02  0.77242687488E+00  0.49293865253E+03  0.49305806130E+03  0.00000000000E+00 0.  1.
         11    1    1    2    0    0 -0.23423048068E+00  0.98647104642E+01 -0.45865145752E+03  0.45875759052E+03  0.00000000000E+00 0. -1.
        -15    1    1    2    0    0 -0.22757938990E+01  0.65593985082E+01 -0.26549201217E+02  0.27499504739E+02  0.17770000000E+01 0. -1.
         15    1    1    2    0    0 -0.83130996576E+01 -0.17196535847E+02 -0.77379937960E+01  0.20684843438E+02  0.17770000000E+01 0.  1.
</event>
<event>
 6    1  0.1860328E-003  0.5072499E+03  0.7546771E-02  0.9383732E-01
        -11   -1    0    0    0    0  0.00000000000E+00  0.00000000000E+00  0.50000000000E+03  0.50000000000E+03  0.00000000000E+00 0. -1.
         11   -1    0    0    0    0 -0.00000000000E+00 -0.00000000000E+00 -0.50000000000E+03  0.50000000000E+03  0.00000000000E+00 0. -1.
        -11    1    1    2    0    0 -0.15344642148E+01  0.90279456896E+01  0.43476452945E+03  0.43486095991E+03  0.00000000000E+00 0. -1.
         11    1    1    2    0    0 -0.12823918084E+02  0.19612358474E+02 -0.49219260121E+03  0.49275009302E+03  0.00000000000E+00 0. -1.
        -15    1    1    2    0    0  0.10157977412E+02  0.92294771267E+00  0.38882266565E+01  0.11059492444E+02  0.17770000000E+01 0.  1.
         15    1    1    2    0    0  0.42004048866E+01 -0.29563251876E+02  0.53539845101E+02  0.61329454629E+02  0.17770000000E+01 0. -1.
</event>
<event>
 6    1  0.1860328E-003  0.5005057E+03  0.7546771E-02  0.9398679E-01
        -11   -1    0    0    0    0  0.00000000000E+00  0.00000000000E+00  0.50000000000E+03  0.50000000000E+03  0.00000000000E+00 0. -1.
         11   -1    0    0    0    0 -0.00000000000E+00 -0.00000000000E+00 -0.50000000000E+03  0.50000000000E+03  0.00000000000E+00 0.  1.
        -11    1    1    2    0    0 -0.10689362884E+01 -0.63995602465E+00  0.85200271348E+02  0.85209379802E+02  0.00000000000E+00 0. -1.
         11    1    1    2    0    0 -0.17316196656E+02  0.59816704940E+01 -0.49915820324E+03  0.49949428716E+03  0.00000000000E+00 0.  1.
        -15    1    1    2    0    0  0.18734818813E+02  0.75378521739E+01  0.26150501611E+03  0.26228961823E+03  0.17770000000E+01 0.  1.
         15    1    1    2    0    0 -0.34968586920E+00 -0.12879566643E+02  0.15245291578E+03  0.15300671481E+03  0.17770000000E+01 0. -1.
</event>
<event>
 6    1  0.1860328E-003  0.5013966E+03  0.7546771E-02  0.9396690E-01
        -11   -1    0    0    0    0  0.00000000000E+00  0.00000000000E+00  0.50000000000E+03  0.50000000000E+03  0.00000000000E+00 0.  1.
         11   -1    0    0    0    0 -0.00000000000E+00 -0.00000000000E+00 -0.50000000000E+03  0.50000000000E+03  0.00000000000E+00 0. -1.
        -11    1    1    2    0    0  0.92707120740E+01  0.20068555313E+01  0.49851319152E+03  0.49860342527E+03  0.00000000000E+00 0.  1.
         11    1    1    2    0    0  0.38396305485E+01 -0.29552175376E+01 -0.28695075894E+03  0.28699166213E+03  0.00000000000E+00 0. -1.
        -15    1    1    2    0    0 -0.71283515405E+01  0.32704597060E+01 -0.10467763402E+02  0.13200041743E+02  0.17770000000E+01 0. -1.
         15    1    1    2    0    0 -0.59819910820E+01 -0.23220976996E+01 -0.20109466918E+03  0.20120487085E+03  0.17770000000E+01 0.  1.
</event>
<event>
 6    1  0.1860328E-003  0.5001638E+03  0.7546771E-02  0.9399443E-01
        -11   -1    0    0    0    0  0.00000000000E+00  0.00000000000E+00  0.50000000000E+03  0.50000000000E+03  0.00000000000E+00 0.  1.
         11   -1    0    0    0    0 -0.00000000000E+00 -0.00000000000E+00 -0.50000000000E+03  0.50000000000E+03  0.00000000000E+00 0.  1.
        -11    1    1    2    0    0 -0.56540077573E+01 -0.70188676947E+01  0.49975495961E+03  0.49983622514E+03  0.00000000000E+00 0.  1.
         11    1    1    2    0    0  0.48816651731E+01  0.13544325255E+01 -0.31700676764E+03  0.31704724549E+03  0.00000000000E+00 0.  1.
        -15    1    1    2    0    0  0.37209651741E+01  0.68211612588E+01 -0.12828293870E+03  0.12853032293E+03  0.17770000000E+01 0. -1.
         15    1    1    2    0    0 -0.29486225899E+01 -0.11567260895E+01 -0.54465253273E+02  0.54586206440E+02  0.17770000000E+01 0.  1.
</event>
<event>
 6    1  0.1860328E-003  0.5007474E+03  0.7546771E-02  0.9398139E-01
        -11   -1    0    0    0    0  0.00000000000E+00  0.00000000000E+00  0.50000000000E+03  0.50000000000E+03  0.00000000000E+00 0. -1.
         11   -1    0    0    0    0 -0.00000000000E+00 -0.00000000000E+00 -0.50000000000E+03  0.50000000000E+03  0.00000000000E+00 0.  1.
        -11    1    1    2    0    0  0.15854594895E+01 -0.10562406012E+02  0.42609107224E+02  0.43927373254E+02  0.00000000000E+00 0. -1.
         11    1    1    2    0    0  0.41112223491E+01  0.72308365489E+01 -0.49918329719E+03  0.49925259272E+03  0.00000000000E+00 0.  1.
        -15    1    1    2    0    0 -0.95684880607E+01  0.67567981236E+00  0.33551630717E+03  0.33565810375E+03  0.17770000000E+01 0. -1.
         15    1    1    2    0    0  0.38718062221E+01  0.26558896509E+01  0.12105788279E+03  0.12116193027E+03  0.17770000000E+01 0.  1.
</event>
<event>
 6    1  0.1860328E-003  0.5037676E+03  0.7546771E-02  0.9391419E-01
        -11   -1    0    0    0    0  0.00000000000E+00  0.00000000000E+00  0.50000000000E+03  0.50000000000E+03  0.00000000000E+00 0.  1.
         11   -1    0    0    0    0 -0.00000000000E+00 -0.00000000000E+00 -0.50000000000E+03  0.50000000000E+03  0.00000000000E+00 0. -1.
        -11    1    1    2    0    0 -0.57202497088E+01 -0.42052545373E+01  0.49618158475E+03  0.49623237547E+03  0.00000000000E+00 0.  1.
         11    1    1    2    0    0  0.68385173952E+01 -0.57281896848E+00 -0.47396893065E+03  0.47401860793E+03  0.00000000000E+00 0. -1.
        -15    1    1    2    0    0 -0.37392362859E+01 -0.62276809938E+00 -0.23054883507E+02  0.23431925031E+02  0.17770000000E+01 0.  1.
         15    1    1    2    0    0  0.26209685994E+01  0.54008416052E+01  0.84222940810E+00  0.63170915633E+01  0.17770000000E+01 0. -1.
</event>
<event>
 6    1  0.1860328E-003  0.5008195E+03  0.7546771E-02  0.9397978E-01
        -11   -1    0    0    0    0  0.00000000000E+00  0.00000000000E+00  0.50000000000E+03  0.50000000000E+03  0.00000000000E+00 0.  1.
         11   -1    0    0    0    0 -0.00000000000E+00 -0.00000000000E+00 -0.50000000000E+03  0.50000000000E+03  0.00000000000E+00 0. -1.
        -11    1    1    2    0    0  0.15903427096E+02 -0.24954868836E+01  0.49892089922E+03  0.49918053861E+03  0.00000000000E+00 0.  1.
         11    1    1    2    0    0 -0.14496654225E+01 -0.94821340560E+01 -0.28729000301E+03  0.28745009693E+03  0.00000000000E+00 0. -1.
        -15    1    1    2    0    0 -0.15108488779E+02  0.18748531170E+00 -0.11384604184E+03  0.11485808877E+03  0.17770000000E+01 0.  1.
         15    1    1    2    0    0  0.65472710568E+00  0.11790135628E+02 -0.97784854375E+02  0.98511275699E+02  0.17770000000E+01 0. -1.
</event>
<event>
 6    1  0.1860328E-003  0.5002089E+03  0.7546771E-02  0.9399342E-01
        -11   -1    0    0    0    0  0.00000000000E+00  0.00000000000E+00  0.50000000000E+03  0.50000000000E+03  0.00000000000E+00 0.  1.
         11   -1    0    0    0    0 -0.00000000000E+00 -0.00000000000E+00 -0.50000000000E+03  0.50000000000E+03  0.00000000000E+00 0.  1.
        -11    1    1    2    0    0  0.81578678544E+01  0.12137581183E+01  0.49972300844E+03  0.49979106553E+03  0.00000000000E+00 0.  1.
         11    1    1    2    0    0 -0.15611597084E+01  0.47365549920E+01 -0.25977880930E+03  0.25982667672E+03  0.00000000000E+00 0.  1.
        -15    1    1    2    0    0 -0.49121095560E+01 -0.62772137496E+01 -0.79361612257E+02  0.79780670978E+02  0.17770000000E+01 0.  1.
         15    1    1    2    0    0 -0.16845985901E+01  0.32690063934E+00 -0.16058258688E+03  0.16060158678E+03  0.17770000000E+01 0. -1.
</event>
<event>
 6    1  0.1860328E-003  0.5030332E+03  0.7546771E-02  0.9393048E-01
        -11   -1    0    0    0    0  0.00000000000E+00  0.00000000000E+00  0.50000000000E+03  0.50000000000E+03  0.00000000000E+00 0. -1.
         11   -1    0    0    0    0 -0.00000000000E+00 -0.00000000000E+00 -0.50000000000E+03  0.50000000000E+03  0.00000000000E+00 0.  1.
        -11    1    1    2    0    0  0.84622380909E+01 -0.40274799306E+01  0.49687844006E+03  0.49696681405E+03  0.00000000000E+00 0. -1.
         11    1    1    2    0    0  0.20432344224E+01  0.11129504432E+02 -0.47354854267E+03  0.47368371614E+03  0.00000000000E+00 0.  1.
        -15    1    1    2    0    0 -0.42609890133E+01  0.12557411395E+01 -0.13768518267E+01  0.49785904766E+01  0.17770000000E+01 0.  1.
         15    1    1    2    0    0 -0.62444835000E+01 -0.83577656413E+01 -0.21953045570E+02  0.24370879333E+02  0.17770000000E+01 0. -1.
</event>
<event>
 6    1  0.1860328E-003  0.5058130E+03  0.7546771E-02  0.9386896E-01
        -11   -1    0    0    0    0  0.00000000000E+00  0.00000000000E+00  0.50000000000E+03  0.50000000000E+03  0.00000000000E+00 0.  1.
         11   -1    0    0    0    0 -0.00000000000E+00 -0.00000000000E+00 -0.50000000000E+03  0.50000000000E+03  0.00000000000E+00 0. -1.
        -11    1    1    2    0    0 -0.14208865437E+02 -0.87997491539E+00  0.45456118828E+03  0.45478405876E+03  0.00000000000E+00 0.  1.
         11    1    1    2    0    0  0.79701555648E+01  0.35625665359E+01 -0.49410984188E+03  0.49418695967E+03  0.00000000000E+00 0. -1.
        -15    1    1    2    0    0  0.13165300327E+02  0.10416922246E+02  0.16761605115E+02  0.23789630867E+02  0.17770000000E+01 0. -1.
         15    1    1    2    0    0 -0.69265904545E+01 -0.13099513866E+02  0.22787048487E+02  0.27239350701E+02  0.17770000000E+01 0.  1.
</event>
<event>
 6    1  0.1860328E-003  0.5054937E+03  0.7546771E-02  0.9387600E-01
        -11   -1    0    0    0    0  0.00000000000E+00  0.00000000000E+00  0.50000000000E+03  0.50000000000E+03  0.00000000000E+00 0. -1.
         11   -1    0    0    0    0 -0.00000000000E+00 -0.00000000000E+00 -0.50000000000E+03  0.50000000000E+03  0.00000000000E+00 0. -1.
        -11    1    1    2    0    0  0.10318195808E+01 -0.18605524452E+02  0.49415511082E+03  0.49450632325E+03  0.00000000000E+00 0. -1.
         11    1    1    2    0    0 -0.23024519003E+01 -0.91868064671E+01 -0.44099192011E+03  0.44109360945E+03  0.00000000000E+00 0. -1.
        -15    1    1    2    0    0 -0.37684948067E+01  0.24943054110E+02 -0.24879518708E+02  0.35475423628E+02  0.17770000000E+01 0.  1.
         15    1    1    2    0    0  0.50391271262E+01  0.28492768090E+01 -0.28283672000E+02  0.28924643668E+02  0.17770000000E+01 0. -1.
</event>
<event>
 6    1  0.1860328E-003  0.5041555E+03  0.7546771E-02  0.9390559E-01
        -11   -1    0    0    0    0  0.00000000000E+00  0.00000000000E+00  0.50000000000E+03  0.50000000000E+03  0.00000000000E+00 0. -1.
         11   -1    0    0    0    0 -0.00000000000E+00 -0.00000000000E+00 -0.50000000000E+03  0.50000000000E+03  0.00000000000E+00 0. -1.
        -11    1    1    2    0    0 -0.21085693130E+02  0.69791012993E+01  0.49534685103E+03  0.49584454936E+03  0.00000000000E+00 0. -1.
         11    1    1    2    0    0  0.27866291717E+01 -0.20345675366E+01 -0.20783654551E+03  0.20786518327E+03  0.00000000000E+00 0. -1.
        -15    1    1    2    0    0  0.11458987953E+02  0.22408596998E+01 -0.38082968039E+01  0.12409299362E+02  0.17770000000E+01 0.  1.
         15    1    1    2    0    0  0.68400760058E+01 -0.71853934625E+01 -0.28370200871E+03  0.28388096800E+03  0.17770000000E+01 0. -1.
</event>
<event>
 6    1  0.1860328E-003  0.5002545E+03  0.7546771E-02  0.9399240E-01
        -11   -1    0    0    0    0  0.00000000000E+00  0.00000000000E+00  0.50000000000E+03  0.50000000000E+03  0.00000000000E+00 0. -1.
         11   -1    0    0    0    0 -0.00000000000E+00 -0.00000000000E+00 -0.50000000000E+03  0.50000000000E+03  0.00000000000E+00 0. -1.
        -11    1    1    2    0    0 -0.31222096120E+01 -0.11242946364E+01  0.57848378998E+02  0.57943482670E+02  0.00000000000E+00 0. -1.
         11    1    1    2    0    0  0.10634931122E+02  0.95191317474E+01 -0.49954166143E+03  0.49974552238E+03  0.00000000000E+00 0. -1.
        -15    1    1    2    0    0 -0.70177985231E+01 -0.14423687487E+02  0.36598475200E+03  0.36634040001E+03  0.17770000000E+01 0. -1.
         15    1    1    2    0    0 -0.49492298694E+00  0.60288503756E+01  0.75708530439E+02  0.75970594942E+02  0.17770000000E+01 0.  1.
</event>
<event>
 6    1  0.1860328E-003  0.5016937E+03  0.7546771E-02  0.9396028E-01
        -11   -1    0    0    0    0  0.00000000000E+00  0.00000000000E+00  0.50000000000E+03  0.50000000000E+03  0.00000000000E+00 0.  1.
         11   -1    0    0    0    0 -0.00000000000E+00 -0.00000000000E+00 -0.50000000000E+03  0.50000000000E+03  0.00000000000E+00 0.  1.
        -11    1    1    2    0    0 -0.63003848475E+01  0.78923096229E+01  0.49820398114E+03  0.49830632168E+03  0.00000000000E+00 0.  1.
         11    1    1    2    0    0  0.15136845740E+02  0.43021985603E+01 -0.34881043274E+03  0.34916522020E+03  0.00000000000E+00 0.  1.
        -15    1    1    2    0    0 -0.91283715064E+01  0.68565749221E+01 -0.61494178425E+02  0.62570212523E+02  0.17770000000E+01 0. -1.
         15    1    1    2    0    0  0.29191061426E+00 -0.19051083105E+02 -0.87899369978E+02  0.89958245596E+02  0.17770000000E+01 0.  1.
</event>
<event>
 6    1  0.1860328E-003  0.5008644E+03  0.7546771E-02  0.9397878E-01
        -11   -1    0    0    0    0  0.00000000000E+00  0.00000000000E+00  0.50000000000E+03  0.50000000000E+03  0.00000000000E+00 0. -1.
         11   -1    0    0    0    0 -0.00000000000E+00 -0.00000000000E+00 -0.50000000000E+03  0.50000000000E+03  0.00000000000E+00 0. -1.
        -11    1    1    2    0    0 -0.21780550391E+01  0.22222984655E+01  0.18188957013E+03  0.18191618470E+03  0.00000000000E+00 0. -1.
         11    1    1    2    0    0  0.82499222585E+01  0.88698611568E+01 -0.49898856792E+03  0.49913557935E+03  0.00000000000E+00 0. -1.
        -15    1    1    2    0    0 -0.15047827085E+02 -0.36653905745E+01  0.26806545690E+03  0.26851837758E+03  0.17770000000E+01 0. -1.
         15    1    1    2    0    0  0.89759598652E+01 -0.74267690477E+01  0.49033540888E+02  0.50429858368E+02  0.17770000000E+01 0.  1.
</event>
<event>
 6    1  0.1860328E-003  0.5035381E+03  0.7546771E-02  0.9391927E-01
        -11   -1    0    0    0    0  0.00000000000E+00  0.00000000000E+00  0.50000000000E+03  0.50000000000E+03  0.00000000000E+00 0.  1.
         11   -1    0    0    0    0 -0.00000000000E+00 -0.00000000000E+00 -0.50000000000E+03  0.50000000000E+03  0.00000000000E+00 0.  1.
        -11    1    1    2    0    0 -0.47356014717E+01 -0.76519708338E+01  0.49638028980E+03  0.49646185220E+03  0.00000000000E+00 0.  1.
         11    1    1    2    0    0 -0.79576730795E+01 -0.20347813042E+01 -0.29083298480E+03  0.29094894732E+03  0.00000000000E+00 0.  1.
        -15    1    1    2    0    0  0.17407865953E+02  0.10251439992E+01 -0.19296693259E+02  0.26069231232E+02  0.17770000000E+01 0. -1.
         15    1    1    2    0    0 -0.47145914021E+01  0.86616081387E+01 -0.18625061174E+03  0.18651996926E+03  0.17770000000E+01 0.  1.
</event>
<event>
 6    1  0.1860328E-003  0.4688585E+03  0.7546771E-02  0.9472321E-01
        -11   -1    0    0    0    0  0.00000000000E+00  0.00000000000E+00  0.50000000000E+03  0.50000000000E+03  0.00000000000E+00 0.  1.
         11   -1    0    0    0    0 -0.00000000000E+00 -0.00000000000E+00 -0.50000000000E+03  0.50000000000E+03  0.00000000000E+00 0.  1.
        -11    1    1    2    0    0  0.44494120838E+01  0.26767210845E+02  0.47219758183E+03  0.47297657144E+03  0.00000000000E+00 0.  1.
         11    1    1    2    0    0 -0.17394404294E+02  0.90152275347E+01 -0.46512637646E+03  0.46553881225E+03  0.00000000000E+00 0.  1.
        -15    1    1    2    0    0  0.43573780819E+01 -0.37291593517E+01 -0.23612624892E+02  0.24364054599E+02  0.17770000000E+01 0.  1.
         15    1    1    2    0    0  0.85876141284E+01 -0.32053279028E+02  0.16541419529E+02  0.37120561713E+02  0.17770000000E+01 0. -1.
</event>
<event>
 6    1  0.1860328E-003  0.5002600E+03  0.7546771E-02  0.9399228E-01
        -11   -1    0    0    0    0  0.00000000000E+00  0.00000000000E+00  0.50000000000E+03  0.50000000000E+03  0.00000000000E+00 0. -1.
         11   -1    0    0    0    0 -0.00000000000E+00 -0.00000000000E+00 -0.50000000000E+03  0.50000000000E+03  0.00000000000E+00 0.  1.
        -11    1    1    2    0    0  0.12146836985E+00  0.33802742822E+02  0.49859540817E+03  0.49973995360E+03  0.00000000000E+00 0. -1.
         11    1    1    2    0    0  0.40650105834E+00  0.62013499482E+00 -0.42735614091E+02  0.42742046304E+02  0.00000000000E+00 0.  1.
        -15    1    1    2    0    0 -0.16108901113E+01 -0.35764832692E+02 -0.39984458512E+03  0.40144808905E+03  0.17770000000E+01 0.  1.
         15    1    1    2    0    0  0.10829206831E+01  0.13419548750E+01 -0.56015208960E+02  0.56069911039E+02  0.17770000000E+01 0.  1.
</event>
<event>
 6    1  0.1860328E-003  0.5012508E+03  0.7546771E-02  0.9397015E-01
        -11   -1    0    0    0    0  0.00000000000E+00  0.00000000000E+00  0.50000000000E+03  0.50000000000E+03  0.00000000000E+00 0.  1.
         11   -1    0    0    0    0 -0.00000000000E+00 -0.00000000000E+00 -0.50000000000E+03  0.50000000000E+03  0.00000000000E+00 0.  1.
        -11    1    1    2    0    0  0.44616548977E+01 -0.16001262902E+01  0.95831676652E+02  0.95948824998E+02  0.00000000000E+00 0.  1.
         11    1    1    2    0    0  0.84518400519E+01 -0.88256087673E+01 -0.49859948644E+03  0.49874920837E+03  0.00000000000E+00 0.  1.
        -15    1    1    2    0    0  0.43760444327E+01  0.65462667536E+01  0.33894787773E+03  0.33904398670E+03  0.17770000000E+01 0.  1.
         15    1    1    2    0    0 -0.17289539382E+02  0.38794683039E+01  0.63819932067E+02  0.66257979930E+02  0.17770000000E+01 0. -1.
</event>
<event>
 6    1  0.1860328E-003  0.3391092E+03  0.7546771E-02  0.9855682E-01
        -11   -1    0    0    0    0  0.00000000000E+00  0.00000000000E+00  0.50000000000E+03  0.50000000000E+03  0.00000000000E+00 0. -1.
         11   -1    0    0    0    0 -0.00000000000E+00 -0.00000000000E+00 -0.50000000000E+03  0.50000000000E+03  0.00000000000E+00 0. -1.
        -11    1    1    2    0    0  0.10743209869E+01  0.30535177577E+01  0.15222634533E+03  0.15226075775E+03  0.00000000000E+00 0. -1.
         11    1    1    2    0    0  0.71368573820E-01 -0.55854480793E+01 -0.33102328400E+03  0.33107041075E+03  0.00000000000E+00 0. -1.
        -15    1    1    2    0    0 -0.77409652106E+01 -0.97111428145E+01  0.34732858121E+03  0.34755507462E+03  0.17770000000E+01 0. -1.
         15    1    1    2    0    0  0.65952756499E+01  0.12243073136E+02 -0.16853164255E+03  0.16911375689E+03  0.17770000000E+01 0.  1.
</event>
<event>
 6    1  0.1860328E-003  0.5018384E+03  0.7546771E-02  0.9395705E-01
        -11   -1    0    0    0    0  0.00000000000E+00  0.00000000000E+00  0.50000000000E+03  0.50000000000E+03  0.00000000000E+00 0.  1.
         11   -1    0    0    0    0 -0.00000000000E+00 -0.00000000000E+00 -0.50000000000E+03  0.50000000000E+03  0.00000000000E+00 0.  1.
        -11    1    1    2    0    0 -0.13303440785E+02  0.37397192767E+01  0.49796987760E+03  0.49816158627E+03  0.00000000000E+00 0.  1.
         11    1    1    2    0    0 -0.21653726800E+01 -0.78372651757E+01 -0.44291404469E+03  0.44298867091E+03  0.00000000000E+00 0.  1.
        -15    1    1    2    0    0  0.74356790276E-01 -0.11142230163E+01 -0.90681624554E+00  0.22862778846E+01  0.17770000000E+01 0. -1.
         15    1    1    2    0    0  0.15394456675E+02  0.52117689152E+01 -0.54149016662E+02  0.56563464939E+02  0.17770000000E+01 0. -1.
</event>
<event>
 6    1  0.1860328E-003  0.5005927E+03  0.7546771E-02  0.9398484E-01
        -11   -1    0    0    0    0  0.00000000000E+00  0.00000000000E+00  0.50000000000E+03  0.50000000000E+03  0.00000000000E+00 0.  1.
         11   -1    0    0    0    0 -0.00000000000E+00 -0.00000000000E+00 -0.50000000000E+03  0.50000000000E+03  0.00000000000E+00 0. -1.
        -11    1    1    2    0    0 -0.26783131825E+01 -0.50338879840E+01  0.26715815519E+03  0.26721899872E+03  0.00000000000E+00 0.  1.
         11    1    1    2    0    0  0.83636669797E+01  0.69158393617E+01 -0.49928931739E+03  0.49940725087E+03  0.00000000000E+00 0. -1.
        -15    1    1    2    0    0 -0.10743089742E+02  0.42748057112E+00  0.21498945238E+03  0.21526546189E+03  0.17770000000E+01 0.  1.
         15    1    1    2    0    0  0.50577359447E+01 -0.23094319488E+01  0.17141709815E+02  0.18108288522E+02  0.17770000000E+01 0. -1.
</event>
<event>
 6    1  0.1860328E-003  0.5033989E+03  0.7546771E-02  0.9392236E-01
        -11   -1    0    0    0    0  0.00000000000E+00  0.00000000000E+00  0.50000000000E+03  0.50000000000E+03  0.00000000000E+00 0.  1.
         11   -1    0    0    0    0 -0.00000000000E+00 -0.00000000000E+00 -0.50000000000E+03  0.50000000000E+03  0.00000000000E+00 0.  1.
        -11    1    1    2    0    0 -0.16967182010E+02 -0.15229615619E+02  0.49607747769E+03  0.49660113807E+03  0.00000000000E+00 0.  1.
         11    1    1    2    0    0  0.44762817262E-02  0.57466291682E+01 -0.79886292436E+02  0.80092718058E+02  0.00000000000E+00 0.  1.
        -15    1    1    2    0    0 -0.27031345622E+02  0.54519080243E+01 -0.90416698873E+02  0.94544984591E+02  0.17770000000E+01 0.  1.
         15    1    1    2    0    0  0.43994051350E+02  0.40310784265E+01 -0.32577448638E+03  0.32876115928E+03  0.17770000000E+01 0. -1.
</event>
<event>
 6    1  0.1860328E-003  0.5112481E+03  0.7546771E-02  0.9374987E-01
        -11   -1    0    0    0    0  0.00000000000E+00  0.00000000000E+00  0.50000000000E+03  0.50000000000E+03  0.00000000000E+00 0. -1.
         11   -1    0    0    0    0 -0.00000000000E+00 -0.00000000000E+00 -0.50000000000E+03  0.50000000000E+03  0.00000000000E+00 0.  1.
        -11    1    1    2    0    0  0.13382532503E+02  0.55003253937E+01  0.45494838125E+03  0.45517839949E+03  0.00000000000E+00 0. -1.
         11    1    1    2    0    0 -0.56594303439E+00 -0.25792305646E+02 -0.48807056849E+03  0.48875192393E+03  0.00000000000E+00 0.  1.
        -15    1    1    2    0    0  0.57525313785E+01  0.21388732123E+02  0.57926335345E+01  0.22962617694E+02  0.17770000000E+01 0.  1.
         15    1    1    2    0    0 -0.18569120847E+02 -0.10967518713E+01  0.27329553703E+02  0.33107058889E+02  0.17770000000E+01 0. -1.
</event>
<event>
 6    1  0.1860328E-003  0.5033745E+03  0.7546771E-02  0.9392291E-01
        -11   -1    0    0    0    0  0.00000000000E+00  0.00000000000E+00  0.50000000000E+03  0.50000000000E+03  0.00000000000E+00 0.  1.
         11   -1    0    0    0    0 -0.00000000000E+00 -0.00000000000E+00 -0.50000000000E+03  0.50000000000E+03  0.00000000000E+00 0.  1.
        -11    1    1    2    0    0 -0.38825544198E+01 -0.58267640610E+01  0.49657616459E+03  0.49662552557E+03  0.00000000000E+00 0.  1.
         11    1    1    2    0    0 -0.23422254043E+00 -0.60586089661E+01 -0.40748683382E+03  0.40753193905E+03  0.00000000000E+00 0.  1.
        -15    1    1    2    0    0  0.10875505730E+01  0.38239103117E+01 -0.86592158267E+02  0.86701583946E+02  0.17770000000E+01 0.  1.
         15    1    1    2    0    0  0.30292263872E+01  0.80614627155E+01 -0.24971725042E+01  0.91409514348E+01  0.17770000000E+01 0. -1.
</event>
<event>
 6    1  0.1860328E-003  0.5014425E+03  0.7546771E-02  0.9396588E-01
        -11   -1    0    0    0    0  0.00000000000E+00  0.00000000000E+00  0.50000000000E+03  0.50000000000E+03  0.00000000000E+00 0. -1.
         11   -1    0    0    0    0 -0.00000000000E+00 -0.00000000000E+00 -0.50000000000E+03  0.50000000000E+03  0.00000000000E+00 0. -1.
        -11    1    1    2    0    0 -0.11976221719E+02  0.45660613619E+01  0.44153084676E+03  0.44171684079E+03  0.00000000000E+00 0. -1.
         11    1    1    2    0    0  0.98265898880E+01  0.45792515494E+01 -0.49843966128E+03  0.49855754668E+03  0.00000000000E+00 0. -1.
        -15    1    1    2    0    0 -0.11824828710E+01 -0.11109375534E+02  0.23884179837E+02  0.26427793438E+02  0.17770000000E+01 0. -1.
         15    1    1    2    0    0  0.33321147020E+01  0.19640626225E+01  0.33024634690E+02  0.33297819084E+02  0.17770000000E+01 0.  1.
</event>
<event>
 6    1  0.1860328E-003  0.5114926E+03  0.7546771E-02  0.9374455E-01
        -11   -1    0    0    0    0  0.00000000000E+00  0.00000000000E+00  0.50000000000E+03  0.50000000000E+03  0.00000000000E+00 0.  1.
         11   -1    0    0    0    0 -0.00000000000E+00 -0.00000000000E+00 -0.50000000000E+03  0.50000000000E+03  0.00000000000E+00 0.  1.
        -11    1    1    2    0    0 -0.19646780555E+02  0.25681321280E+02  0.48743606419E+03  0.48850736220E+03  0.00000000000E+00 0.  1.
         11    1    1    2    0    0  0.30169485582E+01  0.13304704418E+02 -0.44209504612E+03  0.44230549052E+03  0.00000000000E+00 0.  1.
        -15    1    1    2    0    0  0.19605798939E+00 -0.35258355134E+02 -0.29964015580E+02  0.46305399298E+02  0.17770000000E+01 0. -1.
         15    1    1    2    0    0  0.16433774007E+02 -0.37276705640E+01 -0.15377002493E+02  0.22881747980E+02  0.17770000000E+01 0.  1.
</event>
<event>
 6    1  0.1860328E-003  0.5095830E+03  0.7546771E-02  0.9378619E-01
        -11   -1    0    0    0    0  0.00000000000E+00  0.00000000000E+00  0.50000000000E+03  0.50000000000E+03  0.00000000000E+00 0.  1.
         11   -1    0    0    0    0 -0.00000000000E+00 -0.00000000000E+00 -0.50000000000E+03  0.50000000000E+03  0.00000000000E+00 0.  1.
        -11    1    1    2    0    0  0.60602072887E+01 -0.91384117912E+01  0.49029440561E+03  0.49041700710E+03  0.00000000000E+00 0.  1.
         11    1    1    2    0    0 -0.15826206182E+02  0.61597241437E+01 -0.48065100942E+03  0.48095093706E+03  0.00000000000E+00 0.  1.
        -15    1    1    2    0    0  0.90764712066E+01  0.98575529807E+01  0.32430837616E+01  0.13900683495E+02  0.17770000000E+01 0. -1.
         15    1    1    2    0    0  0.68952768663E+00 -0.68788653332E+01 -0.12886479948E+02  0.14731372345E+02  0.17770000000E+01 0.  1.
</event>
<event>
 6    1  0.1860328E-003  0.5034503E+03  0.7546771E-02  0.9392122E-01
        -11   -1    0    0    0    0  0.00000000000E+00  0.00000000000E+00  0.50000000000E+03  0.50000000000E+03  0.00000000000E+00 0. -1.
         11   -1    0    0    0    0 -0.00000000000E+00 -0.00000000000E+00 -0.50000000000E+03  0.50000000000E+03  0.00000000000E+00 0.  1.
        -11    1    1    2    0    0  0.12440190254E+02  0.13515238183E+01  0.49639198124E+03  0.49654967928E+03  0.00000000000E+00 0. -1.
         11    1    1    2    0    0 -0.10032433458E+02 -0.89885991090E+01 -0.44250541743E+03  0.44271038963E+03  0.00000000000E+00 0.  1.
        -15    1    1    2    0    0  0.75480256652E+01 -0.25690550149E+01 -0.39759968760E+02  0.40590461687E+02  0.17770000000E+01 0. -1.
         15    1    1    2    0    0 -0.99557824613E+01  0.10206130306E+02 -0.14126595056E+02  0.20149469400E+02  0.17770000000E+01 0.  1.
</event>
<event>
 6    1  0.1860328E-003  0.5095927E+03  0.7546771E-02  0.9378597E-01
        -11   -1    0    0    0    0  0.00000000000E+00  0.00000000000E+00  0.50000000000E+03  0.50000000000E+03  0.00000000000E+00 0.  1.
         11   -1    0    0    0    0 -0.00000000000E+00 -0.00000000000E+00 -0.50000000000E+03  0.50000000000E+03  0.00000000000E+00 0. -1.
        -11    1    1    2    0    0  0.78222261435E+01 -0.32664954972E+01  0.49033401530E+03  0.49040728357E+03  0.00000000000E+00 0.  1.
         11    1    1    2    0    0 -0.71670333632E+01  0.69232519262E+01 -0.45746689859E+03  0.45757541574E+03  0.00000000000E+00 0. -1.
        -15    1    1    2    0    0  0.85033302777E+01 -0.45927104203E+01 -0.39388844291E+02  0.40596039196E+02  0.17770000000E+01 0. -1.
         15    1    1    2    0    0 -0.91585230581E+01  0.93595399129E+00  0.65217275797E+01  0.11421261494E+02  0.17770000000E+01 0.  1.
</event>
<event>
 6    1  0.1860328E-003  0.5006528E+03  0.7546771E-02  0.9398350E-01
        -11   -1    0    0    0    0  0.00000000000E+00  0.00000000000E+00  0.50000000000E+03  0.50000000000E+03  0.00000000000E+00 0.  1.
         11   -1    0    0    0    0 -0.00000000000E+00 -0.00000000000E+00 -0.50000000000E+03  0.50000000000E+03  0.00000000000E+00 0.  1.
        -11    1    1    2    0    0 -0.41757083073E+00  0.58243731511E+01  0.33251480899E+03  0.33256607747E+03  0.00000000000E+00 0.  1.
         11    1    1    2    0    0 -0.46772816569E+01 -0.68419420190E+01 -0.49927837678E+03  0.49934716046E+03  0.00000000000E+00 0.  1.
        -15    1    1    2    0    0  0.41491038236E+01  0.46005502336E+01  0.15754933434E+02  0.17022214354E+02  0.17770000000E+01 0. -1.
         15    1    1    2    0    0  0.94574866399E+00 -0.35829813657E+01  0.15100863436E+03  0.15106454772E+03  0.17770000000E+01 0.  1.
</event>
<event>
 6    1  0.1860328E-003  0.5033577E+03  0.7546771E-02  0.9392328E-01
        -11   -1    0    0    0    0  0.00000000000E+00  0.00000000000E+00  0.50000000000E+03  0.50000000000E+03  0.00000000000E+00 0. -1.
         11   -1    0    0    0    0 -0.00000000000E+00 -0.00000000000E+00 -0.50000000000E+03  0.50000000000E+03  0.00000000000E+00 0.  1.
        -11    1    1    2    0    0  0.22182659649E+02 -0.20533580164E+01  0.49614244915E+03  0.49664234265E+03  0.00000000000E+00 0. -1.
         11    1    1    2    0    0 -0.14708207079E+01 -0.61697506417E+01 -0.26500412477E+03  0.26508001675E+03  0.00000000000E+00 0.  1.
        -15    1    1    2    0    0  0.11952686300E+02 -0.13885388888E+02 -0.73706299329E+02  0.75970040307E+02  0.17770000000E+01 0.  1.
         15    1    1    2    0    0 -0.32664525242E+02  0.22108497546E+02 -0.15743202505E+03  0.16230760029E+03  0.17770000000E+01 0. -1.
</event>
<event>
 6    1  0.1860328E-003  0.5063028E+03  0.7546771E-02  0.9385816E-01
        -11   -1    0    0    0    0  0.00000000000E+00  0.00000000000E+00  0.50000000000E+03  0.50000000000E+03  0.00000000000E+00 0.  1.
         11   -1    0    0    0    0 -0.00000000000E+00 -0.00000000000E+00 -0.50000000000E+03  0.50000000000E+03  0.00000000000E+00 0. -1.
        -11    1    1    2    0    0 -0.54178057938E+01 -0.39949380698E+01  0.49365127492E+03  0.49369716769E+03  0.00000000000E+00 0.  1.
         11    1    1    2    0    0  0.10309187814E+02 -0.61128030476E-01 -0.38899639343E+03  0.38913298138E+03  0.00000000000E+00 0. -1.
        -15    1    1    2    0    0 -0.21714476842E+02  0.21111858707E+01 -0.95218084382E+02  0.97701673131E+02  0.17770000000E+01 0.  1.
         15    1    1    2    0    0  0.16823094822E+02  0.19448802296E+01 -0.94367971041E+01  0.19468177806E+02  0.17770000000E+01 0. -1.
</event>
<event>
 6    1  0.1860328E-003  0.5079073E+03  0.7546771E-02  0.9382288E-01
        -11   -1    0    0    0    0  0.00000000000E+00  0.00000000000E+00  0.50000000000E+03  0.50000000000E+03  0.00000000000E+00 0. -1.
         11   -1    0    0    0    0 -0.00000000000E+00 -0.00000000000E+00 -0.50000000000E+03  0.50000000000E+03  0.00000000000E+00 0. -1.
        -11    1    1    2    0    0 -0.64882028214E+01  0.15452264310E+02  0.46199019464E+03  0.46229407220E+03  0.00000000000E+00 0. -1.
         11    1    1    2    0    0  0.11293389542E+02 -0.40465901181E+01 -0.49194646512E+03  0.49209271493E+03  0.00000000000E+00 0. -1.
        -15    1    1    2    0    0 -0.12058603448E+02 -0.24362284156E+01 -0.10586575704E+01  0.12474919272E+02  0.17770000000E+01 0. -1.
         15    1    1    2    0    0  0.72534167270E+01 -0.89694457761E+01  0.31014928056E+02  0.33138293605E+02  0.17770000000E+01 0.  1.
</event>
<event>
 6    1  0.1860328E-003  0.5096705E+03  0.7546771E-02  0.9378427E-01
        -11   -1    0    0    0    0  0.00000000000E+00  0.00000000000E+00  0.50000000000E+03  0.50000000000E+03  0.00000000000E+00 0.  1.
         11   -1    0    0    0    0 -0.00000000000E+00 -0.00000000000E+00 -0.50000000000E+03  0.50000000000E+03  0.00000000000E+00 0.  1.
        -11    1    1    2    0    0  0.25975770319E+00 -0.65467958558E+01  0.48154866124E+03  0.48159323204E+03  0.00000000000E+00 0.  1.
         11    1    1    2    0    0 -0.45283256575E+00  0.13415517477E+02 -0.49014570529E+03  0.49032947452E+03  0.00000000000E+00 0.  1.
        -15    1    1    2    0    0 -0.37933464495E+00 -0.12224379986E+01 -0.91249748735E+01  0.93840899865E+01  0.17770000000E+01 0.  1.
         15    1    1    2    0    0  0.57240950751E+00 -0.56462836225E+01  0.17722018926E+02  0.18693203450E+02  0.17770000000E+01 0. -1.
</event>
<event>
 6    1  0.1860328E-003  0.5080042E+03  0.7546771E-02  0.9382076E-01
        -11   -1    0    0    0    0  0.00000000000E+00  0.00000000000E+00  0.50000000000E+03  0.50000000000E+03  0.00000000000E+00 0. -1.
         11   -1    0    0    0    0 -0.00000000000E+00 -0.00000000000E+00 -0.50000000000E+03  0.50000000000E+03  0.00000000000E+00 0.  1.
        -11    1    1    2    0    0  0.11181811625E+02  0.63638040332E+01  0.47309093500E+03  0.47326584885E+03  0.00000000000E+00 0. -1.
         11    1    1    2    0    0  0.64862312607E+01 -0.18065734880E+01 -0.49194969768E+03  0.49199577229E+03  0.00000000000E+00 0.  1.
        -15    1    1    2    0    0  0.38474861298E+01 -0.49350341019E+01  0.87341417406E+01  0.10890393567E+02  0.17770000000E+01 0. -1.
         15    1    1    2    0    0 -0.21515529016E+02  0.37780355668E+00  0.10124620938E+02  0.23847985292E+02  0.17770000000E+01 0.  1.
</event>
<event>
 6    1  0.1974481E-003  0.5017596E+03  0.7546771E-02  0.9395881E-01
        -11   -1    0    0    0    0  0.00000000000E+00  0.00000000000E+00  0.50000000000E+03  0.50000000000E+03  0.00000000000E+00 0. -1.
         11   -1    0    0    0    0 -0.00000000000E+00 -0.00000000000E+00 -0.50000000000E+03  0.50000000000E+03  0.00000000000E+00 0. -1.
        -11    1    1    2    0    0 -0.74939040845E+01 -0.21833231304E+01 -0.16825659001E+01  0.79847683954E+01  0.00000000000E+00 0. -1.
         11    1    1    2    0    0  0.11140160723E+02  0.27605185741E+01 -0.48933326591E+03  0.48946784243E+03  0.00000000000E+00 0. -1.
        -15    1    1    2    0    0 -0.17858769925E+02  0.27489225249E+02  0.44812627463E+03  0.44932717357E+03  0.17770000000E+01 0. -1.
         15    1    1    2    0    0  0.14212513286E+02 -0.28066420693E+02  0.42889557182E+02  0.53220215601E+02  0.17770000000E+01 0.  1.
</event>
<event>
 6    1  0.1860328E-003  0.5066574E+03  0.7546771E-02  0.9385035E-01
        -11   -1    0    0    0    0  0.00000000000E+00  0.00000000000E+00  0.50000000000E+03  0.50000000000E+03  0.00000000000E+00 0.  1.
         11   -1    0    0    0    0 -0.00000000000E+00 -0.00000000000E+00 -0.50000000000E+03  0.50000000000E+03  0.00000000000E+00 0. -1.
        -11    1    1    2    0    0  0.54110087486E+01  0.38573652787E+01  0.47077979584E+03  0.47082669259E+03  0.00000000000E+00 0.  1.
         11    1    1    2    0    0 -0.87201897838E+01  0.15824218759E+01 -0.49326294462E+03  0.49334255675E+03  0.00000000000E+00 0. -1.
        -15    1    1    2    0    0  0.11434016745E+02 -0.12370022612E+02  0.11977580794E+02  0.20745466228E+02  0.17770000000E+01 0.  1.
         15    1    1    2    0    0 -0.81248357096E+01  0.69302354576E+01  0.10505567977E+02  0.15085284430E+02  0.17770000000E+01 0. -1.
</event>
<event>
 6    1  0.1860328E-003  0.5020911E+03  0.7546771E-02  0.9395143E-01
        -11   -1    0    0    0    0  0.00000000000E+00  0.00000000000E+00  0.50000000000E+03  0.50000000000E+03  0.00000000000E+00 0.  1.
         11   -1    0    0    0    0 -0.00000000000E+00 -0.00000000000E+00 -0.50000000000E+03  0.50000000000E+03  0.00000000000E+00 0. -1.
        -11    1    1    2    0    0 -0.23423989774E+01  0.98086227278E+01  0.48080808565E+03  0.48091382922E+03  0.00000000000E+00 0.  1.
         11    1    1    2    0    0 -0.71610819289E-01 -0.74188985656E+01 -0.49785364245E+03  0.49790892188E+03  0.00000000000E+00 0. -1.
        -15    1    1    2    0    0  0.97341351347E+00 -0.15170483994E+01  0.18266698680E+02  0.18441230419E+02  0.17770000000E+01 0.  1.
         15    1    1    2    0    0  0.14405962833E+01 -0.87267576280E+00 -0.12211418718E+01  0.27360184775E+01  0.17770000000E+01 0. -1.
</event>
<event>
 6    1  0.1860328E-003  0.5303270E+03  0.7546771E-02  0.9334396E-01
        -11   -1    0    0    0    0  0.00000000000E+00  0.00000000000E+00  0.50000000000E+03  0.50000000000E+03  0.00000000000E+00 0. -1.
         11   -1    0    0    0    0 -0.00000000000E+00 -0.00000000000E+00 -0.50000000000E+03  0.50000000000E+03  0.00000000000E+00 0. -1.
        -11    1    1    2    0    0  0.15479927985E+02 -0.24810129745E+01  0.46941128447E+03  0.46967301134E+03  0.00000000000E+00 0. -1.
         11    1    1    2    0    0  0.11955119564E+00  0.15455158290E+02 -0.24589883127E+03  0.24638407301E+03  0.00000000000E+00 0. -1.
        -15    1    1    2    0    0 -0.21356195633E+02 -0.15940607946E+02  0.24258615882E+02  0.36080857073E+02  0.17770000000E+01 0.  1.
         15    1    1    2    0    0  0.57567164521E+01  0.29664626301E+01 -0.24777106907E+03  0.24786205858E+03  0.17770000000E+01 0. -1.
</event>
<event>
 6    1  0.1860328E-003  0.3744043E+03  0.7546771E-02  0.9735206E-01
        -11   -1    0    0    0    0  0.00000000000E+00  0.00000000000E+00  0.50000000000E+03  0.50000000000E+03  0.00000000000E+00 0. -1.
         11   -1    0    0    0    0 -0.00000000000E+00 -0.00000000000E+00 -0.50000000000E+03  0.50000000000E+03  0.00000000000E+00 0.  1.
        -11    1    1    2    0    0 -0.60711079604E+01 -0.57056971365E+01  0.36485607288E+03  0.36495118474E+03  0.00000000000E+00 0. -1.
         11    1    1    2    0    0 -0.85454590878E+02 -0.14704579249E+02 -0.38009495687E+03  0.38986008772E+03  0.00000000000E+00 0.  1.
        -15    1    1    2    0    0  0.83197173200E+02  0.17033842302E+02 -0.99078267380E+02  0.13050510415E+03  0.17770000000E+01 0. -1.
         15    1    1    2    0    0  0.83285256382E+01  0.33764340836E+01  0.11431715138E+03  0.11468362339E+03  0.17770000000E+01 0. -1.
</event>
<event>
 6    1  0.1860328E-003  0.5045144E+03  0.7546771E-02  0.9389765E-01
        -11   -1    0    0    0    0  0.00000000000E+00  0.00000000000E+00  0.50000000000E+03  0.50000000000E+03  0.00000000000E+00 0.  1.
         11   -1    0    0    0    0 -0.00000000000E+00 -0.00000000000E+00 -0.50000000000E+03  0.50000000000E+03  0.00000000000E+00 0.  1.
        -11    1    1    2    0    0  0.26498815783E+01  0.76873712219E+01  0.47873280515E+03  0.47880185492E+03  0.00000000000E+00 0.  1.
         11    1    1    2    0    0 -0.80681702981E+01 -0.54892663594E+01 -0.49538945863E+03  0.49548556300E+03  0.00000000000E+00 0.  1.
        -15    1    1    2    0    0 -0.27146804275E+01  0.23991130544E+01 -0.21982820936E+01  0.45951503168E+01  0.17770000000E+01 0.  1.
         15    1    1    2    0    0  0.81329691472E+01 -0.45972179169E+01  0.18854935577E+02  0.21117431765E+02  0.17770000000E+01 0. -1.
</event>
<event>
 6    1  0.1860328E-003  0.5179222E+03  0.7546771E-02  0.9360577E-01
        -11   -1    0    0    0    0  0.00000000000E+00  0.00000000000E+00  0.50000000000E+03  0.50000000000E+03  0.00000000000E+00 0.  1.
         11   -1    0    0    0    0 -0.00000000000E+00 -0.00000000000E+00 -0.50000000000E+03  0.50000000000E+03  0.00000000000E+00 0. -1.
        -11    1    1    2    0    0  0.75816488438E+01  0.10080361319E+01  0.48201715861E+03  0.48207783472E+03  0.00000000000E+00 0.  1.
         11    1    1    2    0    0 -0.53792949242E+01  0.41001046217E+01 -0.47770116102E+03  0.47774904177E+03  0.00000000000E+00 0. -1.
        -15    1    1    2    0    0  0.47057543954E+01  0.11209564110E-01 -0.20852343188E+02  0.21450459098E+02  0.17770000000E+01 0.  1.
         15    1    1    2    0    0 -0.69081083150E+01 -0.51193503178E+01  0.16536345595E+02  0.18722664415E+02  0.17770000000E+01 0. -1.
</event>
<event>
 6    1  0.1860328E-003  0.5056242E+03  0.7546771E-02  0.9387312E-01
        -11   -1    0    0    0    0  0.00000000000E+00  0.00000000000E+00  0.50000000000E+03  0.50000000000E+03  0.00000000000E+00 0. -1.
         11   -1    0    0    0    0 -0.00000000000E+00 -0.00000000000E+00 -0.50000000000E+03  0.50000000000E+03  0.00000000000E+00 0.  1.
        -11    1    1    2    0    0 -0.94907590064E+01  0.16358467623E+01  0.42468763139E+03  0.42479681585E+03  0.00000000000E+00 0. -1.
         11    1    1    2    0    0 -0.90469529089E+00 -0.10276973722E+02 -0.49426819209E+03  0.49437584930E+03  0.00000000000E+00 0.  1.
        -15    1    1    2    0    0  0.68119702779E+00  0.33600409978E+01 -0.44858959233E+01  0.59190283098E+01  0.17770000000E+01 0.  1.
         15    1    1    2    0    0  0.97142572695E+01  0.52810859621E+01  0.74066456617E+02  0.74908306535E+02  0.17770000000E+01 0. -1.
</event>
<event>
 6    1  0.1860328E-003  0.5257461E+03  0.7546771E-02  0.9343975E-01
        -11   -1    0    0    0    0  0.00000000000E+00  0.00000000000E+00  0.50000000000E+03  0.50000000000E+03  0.00000000000E+00 0. -1.
         11   -1    0    0    0    0 -0.00000000000E+00 -0.00000000000E+00 -0.50000000000E+03  0.50000000000E+03  0.00000000000E+00 0.  1.
        -11    1    1    2    0    0 -0.23982995901E+01  0.64321078144E+02  0.46986570644E+03  0.47425387191E+03  0.00000000000E+00 0. -1.
         11    1    1    2    0    0  0.60419111596E+01 -0.78040292779E+01 -0.41337890222E+03  0.41349670418E+03  0.00000000000E+00 0.  1.
        -15    1    1    2    0    0 -0.70443043433E+01 -0.66425207693E+02 -0.13762642174E+02  0.68223885035E+02  0.17770000000E+01 0. -1.
         15    1    1    2    0    0  0.34006927738E+01  0.99081588266E+01 -0.42724162039E+02  0.44025538880E+02  0.17770000000E+01 0.  1.
</event>
<event>
 6    1  0.2843741E-003  0.5046171E+03  0.7546771E-02  0.9389537E-01
        -11   -1    0    0    0    0  0.00000000000E+00  0.00000000000E+00  0.50000000000E+03  0.50000000000E+03  0.00000000000E+00 0. -1.
         11   -1    0    0    0    0 -0.00000000000E+00 -0.00000000000E+00 -0.50000000000E+03  0.50000000000E+03  0.00000000000E+00 0. -1.
        -11    1    1    2    0    0 -0.44152455482E+01  0.27482427659E+01  0.30156549546E+03  0.30161033683E+03  0.00000000000E+00 0. -1.
         11    1    1    2    0    0  0.23387601297E+02  0.61297663867E+01 -0.49479254915E+03  0.49538290304E+03  0.00000000000E+00 0. -1.
        -15    1    1    2    0    0  0.45975092239E+01 -0.17700239125E+01  0.16666441369E+03  0.16674667791E+03  0.17770000000E+01 0.  1.
         15    1    1    2    0    0 -0.23569864973E+02 -0.71079852401E+01  0.26562640007E+02  0.36260082214E+02  0.17770000000E+01 0. -1.
</event>
<event>
 6    1  0.1860328E-003  0.4963502E+03  0.7546771E-02  0.9408014E-01
        -11   -1    0    0    0    0  0.00000000000E+00  0.00000000000E+00  0.50000000000E+03  0.50000000000E+03  0.00000000000E+00 0.  1.
         11   -1    0    0    0    0 -0.00000000000E+00 -0.00000000000E+00 -0.50000000000E+03  0.50000000000E+03  0.00000000000E+00 0.  1.
        -11    1    1    2    0    0 -0.10226299408E+02 -0.22219909328E+01  0.49685590936E+03  0.49696610459E+03  0.00000000000E+00 0.  1.
         11    1    1    2    0    0 -0.44673513529E+00 -0.79715595982E+00 -0.13119769921E+02  0.13151554763E+02  0.00000000000E+00 0.  1.
        -15    1    1    2    0    0  0.36246349010E+01  0.25747306923E+02 -0.59280072435E+02  0.64756053839E+02  0.17770000000E+01 0. -1.
         15    1    1    2    0    0  0.70483996424E+01 -0.22728160030E+02 -0.42445606700E+03  0.42512628681E+03  0.17770000000E+01 0.  1.
</event>
<event>
 6    1  0.1860328E-003  0.5019988E+03  0.7546771E-02  0.9395348E-01
        -11   -1    0    0    0    0  0.00000000000E+00  0.00000000000E+00  0.50000000000E+03  0.50000000000E+03  0.00000000000E+00 0. -1.
         11   -1    0    0    0    0 -0.00000000000E+00 -0.00000000000E+00 -0.50000000000E+03  0.50000000000E+03  0.00000000000E+00 0. -1.
        -11    1    1    2    0    0 -0.28147811472E+01 -0.14004168579E+02  0.37874136410E+03  0.37901063390E+03  0.00000000000E+00 0. -1.
         11    1    1    2    0    0 -0.67303209843E+01 -0.53206738486E+01 -0.49792733018E+03  0.49800123788E+03  0.00000000000E+00 0. -1.
        -15    1    1    2    0    0  0.22852108058E+01  0.17239858712E+01  0.13810214948E+01  0.36413273789E+01  0.17770000000E+01 0. -1.
         15    1    1    2    0    0  0.72598913256E+01  0.17600856556E+02  0.11780494458E+03  0.11934680084E+03  0.17770000000E+01 0.  1.
</event>
<event>
 6    1  0.1915107E-003  0.5209707E+03  0.7546771E-02  0.9354071E-01
        -11   -1    0    0    0    0  0.00000000000E+00  0.00000000000E+00  0.50000000000E+03  0.50000000000E+03  0.00000000000E+00 0.  1.
         11   -1    0    0    0    0 -0.00000000000E+00 -0.00000000000E+00 -0.50000000000E+03  0.50000000000E+03  0.00000000000E+00 0.  1.
        -11    1    1    2    0    0 -0.12623378570E+02  0.17323255057E+02  0.46019906380E+03  0.46069797392E+03  0.00000000000E+00 0.  1.
         11    1    1    2    0    0  0.56828264732E+01  0.35200673289E+01 -0.47898262308E+03  0.47902926696E+03  0.00000000000E+00 0.  1.
        -15    1    1    2    0    0 -0.89580734837E+00 -0.15693604358E+01 -0.17891192697E+02  0.18069805425E+02  0.17770000000E+01 0. -1.
         15    1    1    2    0    0  0.78363594448E+01 -0.19273961950E+02  0.36674751983E+02  0.42202953695E+02  0.17770000000E+01 0.  1.
</event>
<event>
 6    1  0.1860328E-003  0.5005922E+03  0.7546771E-02  0.9398486E-01
        -11   -1    0    0    0    0  0.00000000000E+00  0.00000000000E+00  0.50000000000E+03  0.50000000000E+03  0.00000000000E+00 0.  1.
         11   -1    0    0    0    0 -0.00000000000E+00 -0.00000000000E+00 -0.50000000000E+03  0.50000000000E+03  0.00000000000E+00 0. -1.
        -11    1    1    2    0    0 -0.15590077666E+01 -0.22959501512E+01  0.17046424087E+03  0.17048683031E+03  0.00000000000E+00 0.  1.
         11    1    1    2    0    0 -0.28652384211E+01 -0.81570481197E+01 -0.49933296704E+03  0.49940780830E+03  0.00000000000E+00 0. -1.
        -15    1    1    2    0    0 -0.35019523493E+01  0.83306486207E+01  0.37453912667E+02  0.38569634167E+02  0.17770000000E+01 0. -1.
         15    1    1    2    0    0  0.79261985371E+01  0.21223496502E+01  0.29141481350E+03  0.29153572722E+03  0.17770000000E+01 0.  1.
</event>
<event>
 6    1  0.1860328E-003  0.5281797E+03  0.7546771E-02  0.9338873E-01
        -11   -1    0    0    0    0  0.00000000000E+00  0.00000000000E+00  0.50000000000E+03  0.50000000000E+03  0.00000000000E+00 0.  1.
         11   -1    0    0    0    0 -0.00000000000E+00 -0.00000000000E+00 -0.50000000000E+03  0.50000000000E+03  0.00000000000E+00 0. -1.
        -11    1    1    2    0    0 -0.26748446874E+02 -0.40487477003E+02  0.28187815583E+03  0.28602449185E+03  0.00000000000E+00 0.  1.
         11    1    1    2    0    0 -0.13291006200E+02 -0.11746632947E+02 -0.47148673436E+03  0.47182027819E+03  0.00000000000E+00 0. -1.
        -15    1    1    2    0    0  0.36400364664E+02 -0.30032044031E+02  0.13578558986E+03  0.14376297979E+03  0.17770000000E+01 0.  1.
         15    1    1    2    0    0  0.36390884093E+01  0.82266153981E+02  0.53822988665E+02  0.98392250168E+02  0.17770000000E+01 0. -1.
</event>
<event>
 6    1  0.1860328E-003  0.5117266E+03  0.7546771E-02  0.9373946E-01
        -11   -1    0    0    0    0  0.00000000000E+00  0.00000000000E+00  0.50000000000E+03  0.50000000000E+03  0.00000000000E+00 0.  1.
         11   -1    0    0    0    0 -0.00000000000E+00 -0.00000000000E+00 -0.50000000000E+03  0.50000000000E+03  0.00000000000E+00 0. -1.
        -11    1    1    2    0    0  0.58850663290E+01  0.74091488712E+00  0.43519610330E+03  0.43523652339E+03  0.00000000000E+00 0.  1.
         11    1    1    2    0    0 -0.48191379404E+01  0.12106341436E+02 -0.48809951821E+03  0.48827341446E+03  0.00000000000E+00 0. -1.
        -15    1    1    2    0    0  0.45547077552E+01  0.41231866685E+01  0.57573684841E+02  0.57927825319E+02  0.17770000000E+01 0.  1.
         15    1    1    2    0    0 -0.56206361439E+01 -0.16970442992E+02 -0.46702699312E+01  0.18562236833E+02  0.17770000000E+01 0. -1.
</event>
<event>
 6    1  0.1860328E-003  0.5012553E+03  0.7546771E-02  0.9397005E-01
        -11   -1    0    0    0    0  0.00000000000E+00  0.00000000000E+00  0.50000000000E+03  0.50000000000E+03  0.00000000000E+00 0. -1.
         11   -1    0    0    0    0 -0.00000000000E+00 -0.00000000000E+00 -0.50000000000E+03  0.50000000000E+03  0.00000000000E+00 0.  1.
        -11    1    1    2    0    0 -0.91510011720E+01  0.48844999576E+01  0.49863678234E+03  0.49874466399E+03  0.00000000000E+00 0. -1.
         11    1    1    2    0    0 -0.87573992432E+01 -0.36854934618E+01 -0.38223244103E+03  0.38235051180E+03  0.00000000000E+00 0.  1.
        -15    1    1    2    0    0  0.16960536462E+02 -0.67488667713E+01 -0.86392269682E+02  0.88317546329E+02  0.17770000000E+01 0.  1.
         15    1    1    2    0    0  0.94786395338E+00  0.55498602756E+01 -0.30012071631E+02  0.30587277874E+02  0.17770000000E+01 0. -1.
</event>
<event>
 6    1  0.1860328E-003  0.5198247E+03  0.7546771E-02  0.9356511E-01
        -11   -1    0    0    0    0  0.00000000000E+00  0.00000000000E+00  0.50000000000E+03  0.50000000000E+03  0.00000000000E+00 0. -1.
         11   -1    0    0    0    0 -0.00000000000E+00 -0.00000000000E+00 -0.50000000000E+03  0.50000000000E+03  0.00000000000E+00 0. -1.
        -11    1    1    2    0    0  0.17564028940E+02  0.12238666902E+02  0.47969781809E+03  0.48017525630E+03  0.00000000000E+00 0. -1.
         11    1    1    2    0    0  0.68511511529E+01  0.10944278403E+02 -0.45140055245E+03  0.45158517940E+03  0.00000000000E+00 0. -1.
        -15    1    1    2    0    0 -0.26145579309E+02 -0.17119778498E+02  0.72191902603E+01  0.32124018588E+02  0.17770000000E+01 0. -1.
         15    1    1    2    0    0  0.17303992163E+01 -0.60631668067E+01 -0.35516455899E+02  0.36115545708E+02  0.17770000000E+01 0. -1.
</event>
<event>
 6    1  0.1860328E-003  0.5081347E+03  0.7546771E-02  0.9381790E-01
        -11   -1    0    0    0    0  0.00000000000E+00  0.00000000000E+00  0.50000000000E+03  0.50000000000E+03  0.00000000000E+00 0.  1.
         11   -1    0    0    0    0 -0.00000000000E+00 -0.00000000000E+00 -0.50000000000E+03  0.50000000000E+03  0.00000000000E+00 0.  1.
        -11    1    1    2    0    0 -0.29128630391E+01  0.68537760021E+01  0.42403967719E+03  0.42410506581E+03  0.00000000000E+00 0.  1.
         11    1    1    2    0    0  0.25053196631E+02 -0.43412134214E+00 -0.49122668362E+03  0.49186533301E+03  0.00000000000E+00 0.  1.
        -15    1    1    2    0    0 -0.28449613887E+02 -0.26768322532E+01  0.17039854394E+02  0.33317567858E+02  0.17770000000E+01 0.  1.
         15    1    1    2    0    0  0.63092802950E+01 -0.37428224068E+01  0.50147152030E+02  0.50712033317E+02  0.17770000000E+01 0. -1.
</event>
<event>
 6    1  0.1860328E-003  0.5207649E+03  0.7546771E-02  0.9354509E-01
        -11   -1    0    0    0    0  0.00000000000E+00  0.00000000000E+00  0.50000000000E+03  0.50000000000E+03  0.00000000000E+00 0.  1.
         11   -1    0    0    0    0 -0.00000000000E+00 -0.00000000000E+00 -0.50000000000E+03  0.50000000000E+03  0.00000000000E+00 0. -1.
        -11    1    1    2    0    0  0.78542506340E+01  0.23318885386E+02  0.47860302238E+03  0.47923513300E+03  0.00000000000E+00 0.  1.
         11    1    1    2    0    0  0.70264274848E+01  0.36519280209E+01 -0.32451204652E+03  0.32460864992E+03  0.00000000000E+00 0. -1.
        -15    1    1    2    0    0 -0.35650892492E+01  0.22763200078E+02 -0.14178720271E+03  0.14365807225E+03  0.17770000000E+01 0. -1.
         15    1    1    2    0    0 -0.11315588870E+02 -0.49734013486E+02 -0.12303773143E+02  0.52498144838E+02  0.17770000000E+01 0.  1.
</event>
<event>
 6    1  0.1860328E-003  0.4209288E+03  0.7546771E-02  0.9596507E-01
        -11   -1    0    0    0    0  0.00000000000E+00  0.00000000000E+00  0.50000000000E+03  0.50000000000E+03  0.00000000000E+00 0. -1.
         11   -1    0    0    0    0 -0.00000000000E+00 -0.00000000000E+00 -0.50000000000E+03  0.50000000000E+03  0.00000000000E+00 0. -1.
        -11    1    1    2    0    0  0.46960906735E+01 -0.57255668320E+02  0.41150991165E+03  0.41550050807E+03  0.00000000000E+00 0. -1.
         11    1    1    2    0    0  0.11489498649E+02  0.56848286415E+01 -0.42806098114E+03  0.42825288023E+03  0.00000000000E+00 0. -1.
        -15    1    1    2    0    0  0.24516456770E+01 -0.82597962371E+01 -0.58100609549E+02  0.58762856971E+02  0.17770000000E+01 0.  1.
         15    1    1    2    0    0 -0.18637235000E+02  0.59830635916E+02  0.74651679038E+02  0.97483754722E+02  0.17770000000E+01 0. -1.
</event>
<event>
 6    1  0.1860328E-003  0.5323340E+03  0.7546771E-02  0.9330232E-01
        -11   -1    0    0    0    0  0.00000000000E+00  0.00000000000E+00  0.50000000000E+03  0.50000000000E+03  0.00000000000E+00 0.  1.
         11   -1    0    0    0    0 -0.00000000000E+00 -0.00000000000E+00 -0.50000000000E+03  0.50000000000E+03  0.00000000000E+00 0. -1.
        -11    1    1    2    0    0 -0.16052741870E+02  0.17550310232E+01  0.46738715242E+03  0.46766603565E+03  0.00000000000E+00 0.  1.
         11    1    1    2    0    0 -0.92365798564E+01 -0.13920553475E+02 -0.12004472889E+03  0.12120162190E+03  0.00000000000E+00 0. -1.
        -15    1    1    2    0    0  0.13141688551E+02 -0.12717943958E+02  0.28694448472E+02  0.34073144537E+02  0.17770000000E+01 0.  1.
         15    1    1    2    0    0  0.12147633176E+02  0.24883466410E+02 -0.37603687200E+03  0.37705919791E+03  0.17770000000E+01 0. -1.
</event>
<event>
 6    1  0.1860328E-003  0.4833294E+03  0.7546771E-02  0.9437904E-01
        -11   -1    0    0    0    0  0.00000000000E+00  0.00000000000E+00  0.50000000000E+03  0.50000000000E+03  0.00000000000E+00 0.  1.
         11   -1    0    0    0    0 -0.00000000000E+00 -0.00000000000E+00 -0.50000000000E+03  0.50000000000E+03  0.00000000000E+00 0. -1.
        -11    1    1    2    0    0  0.66279994750E+01  0.18479744761E+01  0.48426333442E+03  0.48431221588E+03  0.00000000000E+00 0.  1.
         11    1    1    2    0    0 -0.25769954938E+01  0.87430977013E+01 -0.48232892558E+03  0.48241504445E+03  0.00000000000E+00 0. -1.
        -15    1    1    2    0    0 -0.81832780078E+01 -0.90820699116E+01  0.12802580405E+02  0.17790835474E+02  0.17770000000E+01 0.  1.
         15    1    1    2    0    0  0.41322740266E+01 -0.15090022658E+01 -0.14736989246E+02  0.15481904195E+02  0.17770000000E+01 0. -1.
</event>
<event>
 6    1  0.1860328E-003  0.5004139E+03  0.7546771E-02  0.9398884E-01
        -11   -1    0    0    0    0  0.00000000000E+00  0.00000000000E+00  0.50000000000E+03  0.50000000000E+03  0.00000000000E+00 0. -1.
         11   -1    0    0    0    0 -0.00000000000E+00 -0.00000000000E+00 -0.50000000000E+03  0.50000000000E+03  0.00000000000E+00 0.  1.
        -11    1    1    2    0    0  0.29062072702E+01 -0.13508812394E+02  0.49939495684E+03  0.49958608564E+03  0.00000000000E+00 0. -1.
         11    1    1    2    0    0  0.12231710659E+01 -0.15972912212E+01 -0.14682342071E+03  0.14683720359E+03  0.00000000000E+00 0.  1.
        -15    1    1    2    0    0 -0.39622782931E+01  0.12136965248E+01 -0.25137641044E+03  0.25141684543E+03  0.17770000000E+01 0.  1.
         15    1    1    2    0    0 -0.16710004295E+00  0.13892407090E+02 -0.10119512568E+03  0.10215986535E+03  0.17770000000E+01 0.  1.
</event>
<event>
 6    1  0.1860328E-003  0.5026059E+03  0.7546771E-02  0.9393998E-01
        -11   -1    0    0    0    0  0.00000000000E+00  0.00000000000E+00  0.50000000000E+03  0.50000000000E+03  0.00000000000E+00 0. -1.
         11   -1    0    0    0    0 -0.00000000000E+00 -0.00000000000E+00 -0.50000000000E+03  0.50000000000E+03  0.00000000000E+00 0. -1.
        -11    1    1    2    0    0  0.47485497968E+01  0.24139042599E+01  0.23304881125E+03  0.23310968252E+03  0.00000000000E+00 0. -1.
         11    1    1    2    0    0 -0.15395471606E+01 -0.66083536968E+01 -0.49734777254E+03  0.49739405646E+03  0.00000000000E+00 0. -1.
        -15    1    1    2    0    0  0.58503218013E+01 -0.21131061375E+02  0.17009583730E+03  0.17151238910E+03  0.17770000000E+01 0.  1.
         15    1    1    2    0    0 -0.90593244376E+01  0.25325510812E+02  0.94203123991E+02  0.97983871917E+02  0.17770000000E+01 0. -1.
</event>
<event>
 6    1  0.1860328E-003  0.5024198E+03  0.7546771E-02  0.9394411E-01
        -11   -1    0    0    0    0  0.00000000000E+00  0.00000000000E+00  0.50000000000E+03  0.50000000000E+03  0.00000000000E+00 0. -1.
         11   -1    0    0    0    0 -0.00000000000E+00 -0.00000000000E+00 -0.50000000000E+03  0.50000000000E+03  0.00000000000E+00 0. -1.
        -11    1    1    2    0    0 -0.23424080739E+01  0.10792476542E+02  0.49745759798E+03  0.49758017064E+03  0.00000000000E+00 0. -1.
         11    1    1    2    0    0 -0.21077761352E+01 -0.87886611791E+01 -0.37046569341E+03  0.37057592107E+03  0.00000000000E+00 0. -1.
        -15    1    1    2    0    0  0.31325655314E+01  0.11949022571E+02 -0.10477643682E+03  0.10551706757E+03  0.17770000000E+01 0.  1.
         15    1    1    2    0    0  0.13176186777E+01 -0.13952837934E+02 -0.22215467753E+02  0.26326840712E+02  0.17770000000E+01 0. -1.
</event>
<event>
 6    1  0.1860328E-003  0.4754189E+03  0.7546771E-02  0.9456557E-01
        -11   -1    0    0    0    0  0.00000000000E+00  0.00000000000E+00  0.50000000000E+03  0.50000000000E+03  0.00000000000E+00 0.  1.
         11   -1    0    0    0    0 -0.00000000000E+00 -0.00000000000E+00 -0.50000000000E+03  0.50000000000E+03  0.00000000000E+00 0. -1.
        -11    1    1    2    0    0 -0.10424833145E+02 -0.14425838561E+02  0.47366076091E+03  0.47399504047E+03  0.00000000000E+00 0.  1.
         11    1    1    2    0    0 -0.90861607807E+01 -0.62656811464E+01 -0.47714667806E+03  0.47727431259E+03  0.00000000000E+00 0. -1.
        -15    1    1    2    0    0  0.38580634604E+01 -0.11078049961E+02  0.57761985761E+01  0.13195834327E+02  0.17770000000E+01 0.  1.
         15    1    1    2    0    0  0.15652930465E+02  0.31769569668E+02 -0.22902814310E+01  0.35534812608E+02  0.17770000000E+01 0. -1.
</event>
<event>
 6    1  0.1860328E-003  0.5002567E+03  0.7546771E-02  0.9399235E-01
        -11   -1    0    0    0    0  0.00000000000E+00  0.00000000000E+00  0.50000000000E+03  0.50000000000E+03  0.00000000000E+00 0. -1.
         11   -1    0    0    0    0 -0.00000000000E+00 -0.00000000000E+00 -0.50000000000E+03  0.50000000000E+03  0.00000000000E+00 0.  1.
        -11    1    1    2    0    0  0.13020418849E+01 -0.28877776835E+01  0.19510319523E+03  0.19512890960E+03  0.00000000000E+00 0. -1.
         11    1    1    2    0    0 -0.72141150116E+01  0.57366614658E+01 -0.49965825778E+03  0.49974326140E+03  0.00000000000E+00 0.  1.
        -15    1    1    2    0    0 -0.11055774347E+01  0.32246488649E+01  0.22206869789E+03  0.22210196977E+03  0.17770000000E+01 0. -1.
         15    1    1    2    0    0  0.70176505614E+01 -0.60735326471E+01  0.82486364655E+02  0.83025859232E+02  0.17770000000E+01 0. -1.
</event>
<event>
 6    1  0.1860328E-003  0.5042985E+03  0.7546771E-02  0.9390243E-01
        -11   -1    0    0    0    0  0.00000000000E+00  0.00000000000E+00  0.50000000000E+03  0.50000000000E+03  0.00000000000E+00 0.  1.
         11   -1    0    0    0    0 -0.00000000000E+00 -0.00000000000E+00 -0.50000000000E+03  0.50000000000E+03  0.00000000000E+00 0. -1.
        -11    1    1    2    0    0 -0.42587218514E+01  0.50830385777E+01  0.47187244748E+03  0.47191904040E+03  0.00000000000E+00 0.  1.
         11    1    1    2    0    0  0.17561964297E+02 -0.21058530268E+01 -0.49538587324E+03  0.49570154388E+03  0.00000000000E+00 0. -1.
        -15    1    1    2    0    0  0.23981012876E+01  0.18554691235E+01 -0.14998270264E+00  0.35176525219E+01  0.17770000000E+01 0. -1.
         15    1    1    2    0    0 -0.15701343733E+02 -0.48326546744E+01  0.23663408454E+02  0.28861763198E+02  0.17770000000E+01 0.  1.
</event>
<event>
 6    1  0.1860328E-003  0.5062068E+03  0.7546771E-02  0.9386028E-01
        -11   -1    0    0    0    0  0.00000000000E+00  0.00000000000E+00  0.50000000000E+03  0.50000000000E+03  0.00000000000E+00 0. -1.
         11   -1    0    0    0    0 -0.00000000000E+00 -0.00000000000E+00 -0.50000000000E+03  0.50000000000E+03  0.00000000000E+00 0. -1.
        -11    1    1    2    0    0  0.63808087230E+01  0.46910515485E+01  0.41786311005E+03  0.41793815263E+03  0.00000000000E+00 0. -1.
         11    1    1    2    0    0  0.34465329695E+01  0.12526324517E+02 -0.49362228070E+03  0.49379321927E+03  0.00000000000E+00 0. -1.
        -15    1    1    2    0    0  0.28634653544E+01 -0.28180572817E+02  0.45451149536E+02  0.53584595186E+02  0.17770000000E+01 0.  1.
         15    1    1    2    0    0 -0.12690807047E+02  0.10963196752E+02  0.30308021111E+02  0.34684032914E+02  0.17770000000E+01 0. -1.
</event>
<event>
 6    1  0.1860328E-003  0.5017180E+03  0.7546771E-02  0.9395974E-01
        -11   -1    0    0    0    0  0.00000000000E+00  0.00000000000E+00  0.50000000000E+03  0.50000000000E+03  0.00000000000E+00 0.  1.
         11   -1    0    0    0    0 -0.00000000000E+00 -0.00000000000E+00 -0.50000000000E+03  0.50000000000E+03  0.00000000000E+00 0.  1.
        -11    1    1    2    0    0  0.72318902976E+01  0.37056779664E+01  0.49821575352E+03  0.49828201788E+03  0.00000000000E+00 0.  1.
         11    1    1    2    0    0 -0.19272072299E+01  0.18068693688E+02 -0.26884895810E+03  0.26946234262E+03  0.00000000000E+00 0.  1.
        -15    1    1    2    0    0  0.10182946936E+02 -0.63211302355E+01 -0.12615357674E+03  0.12673409861E+03  0.17770000000E+01 0.  1.
         15    1    1    2    0    0 -0.15487630003E+02 -0.15453241419E+02 -0.10321321868E+03  0.10552154089E+03  0.17770000000E+01 0.  1.
</event>
<event>
 6    1  0.1860328E-003  0.5280795E+03  0.7546771E-02  0.9339083E-01
        -11   -1    0    0    0    0  0.00000000000E+00  0.00000000000E+00  0.50000000000E+03  0.50000000000E+03  0.00000000000E+00 0. -1.
         11   -1    0    0    0    0 -0.00000000000E+00 -0.00000000000E+00 -0.50000000000E+03  0.50000000000E+03  0.00000000000E+00 0.  1.
        -11    1    1    2    0    0 -0.99152295556E+01  0.74365847685E+01  0.47175776017E+03  0.47192054294E+03  0.00000000000E+00 0. -1.
         11    1    1    2    0    0 -0.84544069820E+01  0.39725849593E+01 -0.45139022345E+03  0.45148686831E+03  0.00000000000E+00 0.  1.
        -15    1    1    2    0    0  0.54735131606E+01 -0.90657069914E+01  0.26129965642E+02  0.28250295981E+02  0.17770000000E+01 0. -1.
         15    1    1    2    0    0  0.12896123377E+02 -0.23434627364E+01 -0.46497502357E+02  0.48342292769E+02  0.17770000000E+01 0. -1.
</event>
<event>
 6    1  0.1860328E-003  0.5008156E+03  0.7546771E-02  0.9397987E-01
        -11   -1    0    0    0    0  0.00000000000E+00  0.00000000000E+00  0.50000000000E+03  0.50000000000E+03  0.00000000000E+00 0.  1.
         11   -1    0    0    0    0 -0.00000000000E+00 -0.00000000000E+00 -0.50000000000E+03  0.50000000000E+03  0.00000000000E+00 0. -1.
        -11    1    1    2    0    0 -0.15270897086E+01  0.52956507153E+01  0.20668864323E+03  0.20676211249E+03  0.00000000000E+00 0.  1.
         11    1    1    2    0    0 -0.96458252584E+01  0.62002357397E+01 -0.49905272330E+03  0.49918444036E+03  0.00000000000E+00 0. -1.
        -15    1    1    2    0    0 -0.43459718896E+00 -0.48807738828E+01  0.23753336246E+03  0.23759054450E+03  0.17770000000E+01 0.  1.
         15    1    1    2    0    0  0.11607512156E+02 -0.66151125721E+01  0.54830717606E+02  0.56462902644E+02  0.17770000000E+01 0.  1.
</event>
<event>
 6    1  0.1860328E-003  0.5074677E+03  0.7546771E-02  0.9383254E-01
        -11   -1    0    0    0    0  0.00000000000E+00  0.00000000000E+00  0.50000000000E+03  0.50000000000E+03  0.00000000000E+00 0.  1.
         11   -1    0    0    0    0 -0.00000000000E+00 -0.00000000000E+00 -0.50000000000E+03  0.50000000000E+03  0.00000000000E+00 0. -1.
        -11    1    1    2    0    0  0.51319532471E+01 -0.44722627787E+01  0.30317832337E+03  0.30325473424E+03  0.00000000000E+00 0.  1.
         11    1    1    2    0    0  0.19509864996E+02  0.19387302324E+02 -0.49176376242E+03  0.49253233432E+03  0.00000000000E+00 0. -1.
        -15    1    1    2    0    0  0.16247742595E+02  0.85675083985E+01  0.11718569904E+03  0.11862983237E+03  0.17770000000E+01 0.  1.
         15    1    1    2    0    0 -0.40889560838E+02 -0.23482547944E+02  0.71399740008E+02  0.85583099065E+02  0.17770000000E+01 0. -1.
</event>
<event>
 6    1  0.1860328E-003  0.5018475E+03  0.7546771E-02  0.9395685E-01
        -11   -1    0    0    0    0  0.00000000000E+00  0.00000000000E+00  0.50000000000E+03  0.50000000000E+03  0.00000000000E+00 0.  1.
         11   -1    0    0    0    0 -0.00000000000E+00 -0.00000000000E+00 -0.50000000000E+03  0.50000000000E+03  0.00000000000E+00 0. -1.
        -11    1    1    2    0    0 -0.11403699781E+01  0.63323300884E+01  0.46341019236E+03  0.46345485782E+03  0.00000000000E+00 0.  1.
         11    1    1    2    0    0 -0.51205211862E+01  0.58571116003E+01 -0.49809175764E+03  0.49815251131E+03  0.00000000000E+00 0. -1.
        -15    1    1    2    0    0  0.11138874695E+01 -0.50490436294E+01  0.50947069177E+01  0.74731087536E+01  0.17770000000E+01 0. -1.
         15    1    1    2    0    0  0.51470036948E+01 -0.71403980594E+01  0.29586858360E+02  0.30919522120E+02  0.17770000000E+01 0.  1.
</event>
<event>
 6    1  0.1860328E-003  0.5114679E+03  0.7546771E-02  0.9374509E-01
        -11   -1    0    0    0    0  0.00000000000E+00  0.00000000000E+00  0.50000000000E+03  0.50000000000E+03  0.00000000000E+00 0.  1.
         11   -1    0    0    0    0 -0.00000000000E+00 -0.00000000000E+00 -0.50000000000E+03  0.50000000000E+03  0.00000000000E+00 0.  1.
        -11    1    1    2    0    0 -0.90269708031E+01  0.13366943192E+02  0.48826580293E+03  0.48853214396E+03  0.00000000000E+00 0.  1.
         11    1    1    2    0    0  0.76672320321E+01  0.48525867850E+01 -0.46867800051E+03  0.46876582875E+03  0.00000000000E+00 0.  1.
        -15    1    1    2    0    0 -0.37430816675E+01 -0.18706153167E+02 -0.27251330340E+02  0.33312513579E+02  0.17770000000E+01 0. -1.
         15    1    1    2    0    0  0.51028204386E+01  0.48662318968E+00  0.76635279194E+01  0.93895137109E+01  0.17770000000E+01 0.  1.
</event>
<event>
 6    1  0.1860328E-003  0.5018114E+03  0.7546771E-02  0.9395766E-01
        -11   -1    0    0    0    0  0.00000000000E+00  0.00000000000E+00  0.50000000000E+03  0.50000000000E+03  0.00000000000E+00 0. -1.
         11   -1    0    0    0    0 -0.00000000000E+00 -0.00000000000E+00 -0.50000000000E+03  0.50000000000E+03  0.00000000000E+00 0.  1.
        -11    1    1    2    0    0 -0.23535033994E+01  0.96529441241E+01  0.49808955555E+03  0.49818864264E+03  0.00000000000E+00 0. -1.
         11    1    1    2    0    0  0.14585926354E+01 -0.22168023371E+01 -0.17027130952E+03  0.17029198616E+03  0.00000000000E+00 0.  1.
        -15    1    1    2    0    0  0.10059964032E+02 -0.73096825765E+01 -0.20385952457E+02  0.23945336128E+02  0.17770000000E+01 0. -1.
         15    1    1    2    0    0 -0.91650532681E+01 -0.12645921054E+00 -0.30743229357E+03  0.30757403507E+03  0.17770000000E+01 0.  1.
</event>
<event>
 6    1  0.1860328E-003  0.5001355E+03  0.7546771E-02  0.9399507E-01
        -11   -1    0    0    0    0  0.00000000000E+00  0.00000000000E+00  0.50000000000E+03  0.50000000000E+03  0.00000000000E+00 0. -1.
         11   -1    0    0    0    0 -0.00000000000E+00 -0.00000000000E+00 -0.50000000000E+03  0.50000000000E+03  0.00000000000E+00 0. -1.
        -11    1    1    2    0    0 -0.72923990398E+01  0.30586429298E+01  0.49980198430E+03  0.49986453955E+03  0.00000000000E+00 0. -1.
         11    1    1    2    0    0  0.22212910083E+01 -0.67786123271E+01 -0.33512258301E+03  0.33519849248E+03  0.00000000000E+00 0. -1.
        -15    1    1    2    0    0 -0.15980688891E+00  0.23125638675E+01 -0.31358850233E+02  0.31494582182E+02  0.17770000000E+01 0. -1.
         15    1    1    2    0    0  0.52309149204E+01  0.14074055298E+01 -0.13332055106E+03  0.13344238579E+03  0.17770000000E+01 0.  1.
</event>
<event>
 6    1  0.1860328E-003  0.5077741E+03  0.7546771E-02  0.9382581E-01
        -11   -1    0    0    0    0  0.00000000000E+00  0.00000000000E+00  0.50000000000E+03  0.50000000000E+03  0.00000000000E+00 0. -1.
         11   -1    0    0    0    0 -0.00000000000E+00 -0.00000000000E+00 -0.50000000000E+03  0.50000000000E+03  0.00000000000E+00 0. -1.
        -11    1    1    2    0    0 -0.72747819411E+01 -0.13664345349E+02  0.49198243542E+03  0.49222591719E+03  0.00000000000E+00 0. -1.
         11    1    1    2    0    0 -0.47445358044E+00  0.67844283701E+01 -0.43468772669E+03  0.43474092665E+03  0.00000000000E+00 0. -1.
        -15    1    1    2    0    0  0.53792618537E+01 -0.27456576101E+01 -0.61714624209E+02  0.62034890699E+02  0.17770000000E+01 0.  1.
         15    1    1    2    0    0  0.23699736678E+01  0.96255745894E+01  0.44199154713E+01  0.10998265460E+02  0.17770000000E+01 0. -1.
</event>
<event>
 6    1  0.1860328E-003  0.5005490E+03  0.7546771E-02  0.9398582E-01
        -11   -1    0    0    0    0  0.00000000000E+00  0.00000000000E+00  0.50000000000E+03  0.50000000000E+03  0.00000000000E+00 0.  1.
         11   -1    0    0    0    0 -0.00000000000E+00 -0.00000000000E+00 -0.50000000000E+03  0.50000000000E+03  0.00000000000E+00 0. -1.
        -11    1    1    2    0    0  0.81560291597E+01  0.11621763220E+01  0.33765360096E+03  0.33775409058E+03  0.00000000000E+00 0.  1.
         11    1    1    2    0    0  0.47514071001E+01  0.89217287092E+01 -0.49934865737E+03  0.49945095328E+03  0.00000000000E+00 0. -1.
        -15    1    1    2    0    0 -0.98859562304E+01 -0.10196496796E+02  0.10229525201E+03  0.10329170824E+03  0.17770000000E+01 0. -1.
         15    1    1    2    0    0 -0.30214800294E+01  0.11259176529E+00  0.59399804408E+02  0.59503247905E+02  0.17770000000E+01 0.  1.
</event>
<event>
 6    1  0.1860328E-003  0.5024573E+03  0.7546771E-02  0.9394328E-01
        -11   -1    0    0    0    0  0.00000000000E+00  0.00000000000E+00  0.50000000000E+03  0.50000000000E+03  0.00000000000E+00 0.  1.
         11   -1    0    0    0    0 -0.00000000000E+00 -0.00000000000E+00 -0.50000000000E+03  0.50000000000E+03  0.00000000000E+00 0. -1.
        -11    1    1    2    0    0 -0.12238839113E+01 -0.26103885766E+01  0.43037811972E+02  0.43134270362E+02  0.00000000000E+00 0.  1.
         11    1    1    2    0    0 -0.10522519567E+02 -0.86688045369E+01 -0.49735591405E+03  0.49754273869E+03  0.00000000000E+00 0. -1.
        -15    1    1    2    0    0  0.38609777919E+01  0.29448517435E+02  0.97207652131E+02  0.10165927253E+03  0.17770000000E+01 0. -1.
         15    1    1    2    0    0  0.78854256865E+01 -0.18169324322E+02  0.35711044994E+03  0.35766371842E+03  0.17770000000E+01 0.  1.
</event>
<event>
 6    1  0.1860328E-003  0.4579132E+03  0.7546771E-02  0.9499243E-01
        -11   -1    0    0    0    0  0.00000000000E+00  0.00000000000E+00  0.50000000000E+03  0.50000000000E+03  0.00000000000E+00 0. -1.
         11   -1    0    0    0    0 -0.00000000000E+00 -0.00000000000E+00 -0.50000000000E+03  0.50000000000E+03  0.00000000000E+00 0. -1.
        -11    1    1    2    0    0  0.12903551697E+02  0.83076035224E+01  0.45039152817E+03  0.45065291142E+03  0.00000000000E+00 0. -1.
         11    1    1    2    0    0  0.10993604018E+02 -0.50361534751E+00 -0.46551314700E+03  0.46564321427E+03  0.00000000000E+00 0. -1.
        -15    1    1    2    0    0 -0.13617818113E+02 -0.17450774536E+02  0.45243272230E+02  0.50399265006E+02  0.17770000000E+01 0. -1.
         15    1    1    2    0    0 -0.10279337602E+02  0.96467863614E+01 -0.30121653398E+02  0.33304609307E+02  0.17770000000E+01 0. -1.
</event>
<event>
 6    1  0.1860328E-003  0.5136418E+03  0.7546771E-02  0.9369792E-01
        -11   -1    0    0    0    0  0.00000000000E+00  0.00000000000E+00  0.50000000000E+03  0.50000000000E+03  0.00000000000E+00 0.  1.
         11   -1    0    0    0    0 -0.00000000000E+00 -0.00000000000E+00 -0.50000000000E+03  0.50000000000E+03  0.00000000000E+00 0.  1.
        -11    1    1    2    0    0 -0.51622283697E+01  0.16285799023E+02  0.48605805353E+03  0.48635820879E+03  0.00000000000E+00 0.  1.
         11    1    1    2    0    0 -0.68579122494E+01  0.10832431828E+01 -0.45765204667E+03  0.45770470851E+03  0.00000000000E+00 0.  1.
        -15    1    1    2    0    0  0.25219867802E+01 -0.86597362508E+01  0.11060426756E+02  0.14382010230E+02  0.17770000000E+01 0.  1.
         15    1    1    2    0    0  0.94981538389E+01 -0.87093059552E+01 -0.39466433616E+02  0.41555072470E+02  0.17770000000E+01 0.  1.
</event>
<event>
 6    1  0.1860328E-003  0.5045151E+03  0.7546771E-02  0.9389763E-01
        -11   -1    0    0    0    0  0.00000000000E+00  0.00000000000E+00  0.50000000000E+03  0.50000000000E+03  0.00000000000E+00 0.  1.
         11   -1    0    0    0    0 -0.00000000000E+00 -0.00000000000E+00 -0.50000000000E+03  0.50000000000E+03  0.00000000000E+00 0. -1.
        -11    1    1    2    0    0  0.16255015684E+01 -0.66805087641E+01  0.48542414724E+03  0.48547283568E+03  0.00000000000E+00 0.  1.
         11    1    1    2    0    0  0.80793691193E+01  0.43261011625E+01 -0.49540016861E+03  0.49548493259E+03  0.00000000000E+00 0. -1.
        -15    1    1    2    0    0 -0.77210307612E+01 -0.16749005887E+01  0.15692677011E+00  0.80995038743E+01  0.17770000000E+01 0.  1.
         15    1    1    2    0    0 -0.19838399265E+01  0.40293081903E+01  0.98190946009E+01  0.10942727865E+02  0.17770000000E+01 0. -1.
</event>
<event>
 6    1  0.1860328E-003  0.5008876E+03  0.7546771E-02  0.9397826E-01
        -11   -1    0    0    0    0  0.00000000000E+00  0.00000000000E+00  0.50000000000E+03  0.50000000000E+03  0.00000000000E+00 0.  1.
         11   -1    0    0    0    0 -0.00000000000E+00 -0.00000000000E+00 -0.50000000000E+03  0.50000000000E+03  0.00000000000E+00 0. -1.
        -11    1    1    2    0    0 -0.34123033297E+01  0.67470534076E+01  0.49905516034E+03  0.49911243183E+03  0.00000000000E+00 0.  1.
         11    1    1    2    0    0  0.52698462011E+01 -0.30845044600E+01 -0.43011118644E+03  0.43015452822E+03  0.00000000000E+00 0. -1.
        -15    1    1    2    0    0 -0.36595775802E+01 -0.36065976235E+01 -0.76407464337E+01  0.93775684240E+01  0.17770000000E+01 0.  1.
         15    1    1    2    0    0  0.18020347087E+01 -0.55951324199E-01 -0.61303227462E+02  0.61355471524E+02  0.17770000000E+01 0. -1.
</event>
<event>
 6    1  0.1860328E-003  0.5060831E+03  0.7546771E-02  0.9386300E-01
        -11   -1    0    0    0    0  0.00000000000E+00  0.00000000000E+00  0.50000000000E+03  0.50000000000E+03  0.00000000000E+00 0.  1.
         11   -1    0    0    0    0 -0.00000000000E+00 -0.00000000000E+00 -0.50000000000E+03  0.50000000000E+03  0.00000000000E+00 0. -1.
        -11    1    1    2    0    0  0.83805754406E+01 -0.55232890425E+00  0.49384550417E+03  0.49391691720E+03  0.00000000000E+00 0.  1.
         11    1    1    2    0    0  0.26960363541E+01  0.92431525851E+01 -0.47633881575E+03  0.47643611521E+03  0.00000000000E+00 0. -1.
        -15    1    1    2    0    0 -0.78747246161E+01 -0.11319623626E+02 -0.20104871364E+02  0.24443992071E+02  0.17770000000E+01 0. -1.
         15    1    1    2    0    0 -0.32018871786E+01  0.26287999455E+01  0.25981829487E+01  0.52029755230E+01  0.17770000000E+01 0.  1.
</event>
<event>
 6    1  0.1860328E-003  0.5378622E+03  0.7546771E-02  0.9318861E-01
        -11   -1    0    0    0    0  0.00000000000E+00  0.00000000000E+00  0.50000000000E+03  0.50000000000E+03  0.00000000000E+00 0.  1.
         11   -1    0    0    0    0 -0.00000000000E+00 -0.00000000000E+00 -0.50000000000E+03  0.50000000000E+03  0.00000000000E+00 0.  1.
        -11    1    1    2    0    0  0.54153129328E+01 -0.36849686752E+01  0.46209140046E+03  0.46213782250E+03  0.00000000000E+00 0.  1.
         11    1    1    2    0    0  0.52764981981E+02  0.20712910102E+02 -0.40170714517E+03  0.40568682311E+03  0.00000000000E+00 0.  1.
        -15    1    1    2    0    0 -0.32970470674E+02  0.25433867577E+02  0.13041244936E+02  0.43671104346E+02  0.17770000000E+01 0. -1.
         15    1    1    2    0    0 -0.25209824240E+02 -0.42461809004E+02 -0.73425500230E+02  0.88504250040E+02  0.17770000000E+01 0.  1.
</event>
<event>
 6    1  0.1860328E-003  0.5001267E+03  0.7546771E-02  0.9399526E-01
        -11   -1    0    0    0    0  0.00000000000E+00  0.00000000000E+00  0.50000000000E+03  0.50000000000E+03  0.00000000000E+00 0. -1.
         11   -1    0    0    0    0 -0.00000000000E+00 -0.00000000000E+00 -0.50000000000E+03  0.50000000000E+03  0.00000000000E+00 0.  1.
        -11    1    1    2    0    0 -0.56915544379E+00 -0.16927165046E+01  0.33969400180E+02  0.34016310436E+02  0.00000000000E+00 0. -1.
         11    1    1    2    0    0  0.89323647271E+01  0.37679903277E+01 -0.49977932255E+03  0.49987334010E+03  0.00000000000E+00 0.  1.
        -15    1    1    2    0    0 -0.49673194217E+01  0.22064861482E+01  0.62889473571E+02  0.63148922860E+02  0.17770000000E+01 0. -1.
         15    1    1    2    0    0 -0.33958898616E+01 -0.42817599713E+01  0.40292044880E+03  0.40296142660E+03  0.17770000000E+01 0.  1.
</event>
<event>
 6    1  0.1860328E-003  0.5041379E+03  0.7546771E-02  0.9390598E-01
        -11   -1    0    0    0    0  0.00000000000E+00  0.00000000000E+00  0.50000000000E+03  0.50000000000E+03  0.00000000000E+00 0. -1.
         11   -1    0    0    0    0 -0.00000000000E+00 -0.00000000000E+00 -0.50000000000E+03  0.50000000000E+03  0.00000000000E+00 0.  1.
        -11    1    1    2    0    0  0.22898103849E+01 -0.74889742665E+01  0.49580026653E+03  0.49586211012E+03  0.00000000000E+00 0. -1.
         11    1    1    2    0    0  0.13630740861E+02  0.16351885380E+01 -0.45043105860E+03  0.45064022178E+03  0.00000000000E+00 0.  1.
        -15    1    1    2    0    0 -0.83821721395E+01 -0.28102943917E+01 -0.39427664073E+02  0.40445728917E+02  0.17770000000E+01 0.  1.
         15    1    1    2    0    0 -0.75383791065E+01  0.86640801203E+01 -0.59415438546E+01  0.13051939176E+02  0.17770000000E+01 0.  1.
</event>
<event>
 6    1  0.1860328E-003  0.5047283E+03  0.7546771E-02  0.9389292E-01
        -11   -1    0    0    0    0  0.00000000000E+00  0.00000000000E+00  0.50000000000E+03  0.50000000000E+03  0.00000000000E+00 0.  1.
         11   -1    0    0    0    0 -0.00000000000E+00 -0.00000000000E+00 -0.50000000000E+03  0.50000000000E+03  0.00000000000E+00 0. -1.
        -11    1    1    2    0    0  0.19788875224E+01 -0.75300515319E+01  0.49521050864E+03  0.49527170880E+03  0.00000000000E+00 0.  1.
         11    1    1    2    0    0 -0.17770730205E+02 -0.16084186357E-01 -0.45413906090E+03  0.45448661779E+03  0.00000000000E+00 0. -1.
        -15    1    1    2    0    0  0.11488486272E+02  0.30082749535E+01 -0.41992187426E+02  0.43675354250E+02  0.17770000000E+01 0.  1.
         15    1    1    2    0    0  0.43033564112E+01  0.45378607647E+01  0.92073968757E+00  0.65663191587E+01  0.17770000000E+01 0. -1.
</event>
<event>
 6    1  0.1860328E-003  0.5233832E+03  0.7546771E-02  0.9348956E-01
        -11   -1    0    0    0    0  0.00000000000E+00  0.00000000000E+00  0.50000000000E+03  0.50000000000E+03  0.00000000000E+00 0. -1.
         11   -1    0    0    0    0 -0.00000000000E+00 -0.00000000000E+00 -0.50000000000E+03  0.50000000000E+03  0.00000000000E+00 0. -1.
        -11    1    1    2    0    0 -0.10694921289E+02  0.30418699644E+00  0.34545991735E+03  0.34562556092E+03  0.00000000000E+00 0. -1.
         11    1    1    2    0    0 -0.11889371106E+02  0.40648062662E+01 -0.47645110052E+03  0.47661675483E+03  0.00000000000E+00 0. -1.
        -15    1    1    2    0    0  0.60080604203E+01  0.22742230614E+02 -0.15252421440E+02  0.28090922592E+02  0.17770000000E+01 0.  1.
         15    1    1    2    0    0  0.16576231974E+02 -0.27111223876E+02  0.14624360461E+03  0.14966676166E+03  0.17770000000E+01 0. -1.
</event>
<event>
 6    1  0.1860328E-003  0.5064437E+03  0.7546771E-02  0.9385506E-01
        -11   -1    0    0    0    0  0.00000000000E+00  0.00000000000E+00  0.50000000000E+03  0.50000000000E+03  0.00000000000E+00 0.  1.
         11   -1    0    0    0    0 -0.00000000000E+00 -0.00000000000E+00 -0.50000000000E+03  0.50000000000E+03  0.00000000000E+00 0. -1.
        -11    1    1    2    0    0 -0.98370491562E+01 -0.30281429896E+01  0.49344898138E+03  0.49355631331E+03  0.00000000000E+00 0.  1.
         11    1    1    2    0    0 -0.78604359653E+00 -0.70036429521E+01 -0.47747294337E+03  0.47752495278E+03  0.00000000000E+00 0. -1.
        -15    1    1    2    0    0  0.14447519630E+02  0.19227400729E+01 -0.76560210963E+01  0.16558989729E+02  0.17770000000E+01 0. -1.
         15    1    1    2    0    0 -0.38244268768E+01  0.81090458687E+01 -0.83200169099E+01  0.12359744181E+02  0.17770000000E+01 0.  1.
</event>
<event>
 6    1  0.1860328E-003  0.5027763E+03  0.7546771E-02  0.9393619E-01
        -11   -1    0    0    0    0  0.00000000000E+00  0.00000000000E+00  0.50000000000E+03  0.50000000000E+03  0.00000000000E+00 0.  1.
         11   -1    0    0    0    0 -0.00000000000E+00 -0.00000000000E+00 -0.50000000000E+03  0.50000000000E+03  0.00000000000E+00 0.  1.
        -11    1    1    2    0    0  0.74144882586E+01 -0.17981182614E+02  0.49684310781E+03  0.49722366330E+03  0.00000000000E+00 0.  1.
         11    1    1    2    0    0  0.18803410310E+01  0.19229820488E+02 -0.40094400277E+03  0.40140928619E+03  0.00000000000E+00 0.  1.
        -15    1    1    2    0    0 -0.16559075736E+02  0.80870353175E+01 -0.75339547594E+02  0.77580978920E+02  0.17770000000E+01 0. -1.
         15    1    1    2    0    0  0.72642464463E+01 -0.93356731912E+01 -0.20559557448E+02  0.23786071593E+02  0.17770000000E+01 0. -1.
</event>
<event>
 6    1  0.1860328E-003  0.5063475E+03  0.7546771E-02  0.9385718E-01
        -11   -1    0    0    0    0  0.00000000000E+00  0.00000000000E+00  0.50000000000E+03  0.50000000000E+03  0.00000000000E+00 0.  1.
         11   -1    0    0    0    0 -0.00000000000E+00 -0.00000000000E+00 -0.50000000000E+03  0.50000000000E+03  0.00000000000E+00 0. -1.
        -11    1    1    2    0    0  0.59011497841E+01 -0.64200183897E+01  0.24054909743E+03  0.24070710102E+03  0.00000000000E+00 0.  1.
         11    1    1    2    0    0  0.21543033596E+01 -0.11374857276E+02 -0.49351674372E+03  0.49365251415E+03  0.00000000000E+00 0. -1.
        -15    1    1    2    0    0  0.36154941659E+01  0.79207053950E+01  0.24976141068E+03  0.24991944575E+03  0.17770000000E+01 0.  1.
         15    1    1    2    0    0 -0.11670947310E+02  0.98741702703E+01  0.32062356018E+01  0.15720939074E+02  0.17770000000E+01 0. -1.
</event>
<event>
 6    1  0.1860328E-003  0.5078152E+03  0.7546771E-02  0.9382490E-01
        -11   -1    0    0    0    0  0.00000000000E+00  0.00000000000E+00  0.50000000000E+03  0.50000000000E+03  0.00000000000E+00 0.  1.
         11   -1    0    0    0    0 -0.00000000000E+00 -0.00000000000E+00 -0.50000000000E+03  0.50000000000E+03  0.00000000000E+00 0.  1.
        -11    1    1    2    0    0  0.30461396367E+01 -0.59895524343E+01  0.44378070886E+03  0.44383157983E+03  0.00000000000E+00 0.  1.
         11    1    1    2    0    0 -0.62289226301E+01 -0.27919048910E+01 -0.49213744684E+03  0.49218478318E+03  0.00000000000E+00 0.  1.
        -15    1    1    2    0    0  0.53519896775E+01  0.80496784151E+01 -0.46673611292E+01  0.10880400039E+02  0.17770000000E+01 0.  1.
         15    1    1    2    0    0 -0.21692066841E+01  0.73177891014E+00  0.53024099116E+02  0.53103236946E+02  0.17770000000E+01 0. -1.
</event>
<event>
 6    1  0.1860328E-003  0.5130386E+03  0.7546771E-02  0.9371098E-01
        -11   -1    0    0    0    0  0.00000000000E+00  0.00000000000E+00  0.50000000000E+03  0.50000000000E+03  0.00000000000E+00 0.  1.
         11   -1    0    0    0    0 -0.00000000000E+00 -0.00000000000E+00 -0.50000000000E+03  0.50000000000E+03  0.00000000000E+00 0.  1.
        -11    1    1    2    0    0  0.41328335390E+01 -0.20098228394E+02  0.41606883821E+03  0.41657447981E+03  0.00000000000E+00 0.  1.
         11    1    1    2    0    0  0.68533160896E+01  0.34836707035E+01 -0.48690069759E+03  0.48696138781E+03  0.00000000000E+00 0.  1.
        -15    1    1    2    0    0  0.10367645649E+02  0.20427131341E+02  0.71077197418E+02  0.74698604358E+02  0.17770000000E+01 0. -1.
         15    1    1    2    0    0 -0.21353795278E+02 -0.38125736502E+01 -0.24533804069E+00  0.21765528029E+02  0.17770000000E+01 0.  1.
</event>
<event>
 6    1  0.1860328E-003  0.5052551E+03  0.7546771E-02  0.9388127E-01
        -11   -1    0    0    0    0  0.00000000000E+00  0.00000000000E+00  0.50000000000E+03  0.50000000000E+03  0.00000000000E+00 0. -1.
         11   -1    0    0    0    0 -0.00000000000E+00 -0.00000000000E+00 -0.50000000000E+03  0.50000000000E+03  0.00000000000E+00 0.  1.
        -11    1    1    2    0    0  0.12404252630E+02 -0.32279994354E+01  0.49457886462E+03  0.49474492296E+03  0.00000000000E+00 0. -1.
         11    1    1    2    0    0  0.17142715554E+02  0.95402484128E+01 -0.45178694974E+03  0.45221271211E+03  0.00000000000E+00 0.  1.
        -15    1    1    2    0    0 -0.65189803467E+01 -0.16318892647E+01 -0.52256899560E+01  0.86963056437E+01  0.17770000000E+01 0.  1.
         15    1    1    2    0    0 -0.23027987837E+02 -0.46803597126E+01 -0.37566224920E+02  0.44346059291E+02  0.17770000000E+01 0. -1.
</event>
<event>
 6    1  0.1860328E-003  0.5129700E+03  0.7546771E-02  0.9371247E-01
        -11   -1    0    0    0    0  0.00000000000E+00  0.00000000000E+00  0.50000000000E+03  0.50000000000E+03  0.00000000000E+00 0. -1.
         11   -1    0    0    0    0 -0.00000000000E+00 -0.00000000000E+00 -0.50000000000E+03  0.50000000000E+03  0.00000000000E+00 0.  1.
        -11    1    1    2    0    0  0.88508206227E+01  0.29224416117E+01  0.48694084366E+03  0.48703004313E+03  0.00000000000E+00 0. -1.
         11    1    1    2    0    0  0.24409459022E+02  0.11327253217E+02 -0.23603024995E+03  0.23755927102E+03  0.00000000000E+00 0.  1.
        -15    1    1    2    0    0 -0.33462569379E+02 -0.59200734789E+02 -0.16395315477E+03  0.17750567664E+03  0.17770000000E+01 0.  1.
         15    1    1    2    0    0  0.20228973394E+00  0.44951039960E+02 -0.86957438932E+02  0.97905009214E+02  0.17770000000E+01 0. -1.
</event>
<event>
 6    1  0.1860328E-003  0.5191829E+03  0.7546771E-02  0.9357881E-01
        -11   -1    0    0    0    0  0.00000000000E+00  0.00000000000E+00  0.50000000000E+03  0.50000000000E+03  0.00000000000E+00 0.  1.
         11   -1    0    0    0    0 -0.00000000000E+00 -0.00000000000E+00 -0.50000000000E+03  0.50000000000E+03  0.00000000000E+00 0. -1.
        -11    1    1    2    0    0  0.97023699418E+01  0.38890299036E+01  0.32023626407E+03  0.32040681229E+03  0.00000000000E+00 0.  1.
         11    1    1    2    0    0  0.15588898200E+02 -0.29332595610E+01 -0.48055541395E+03  0.48081714158E+03  0.00000000000E+00 0. -1.
        -15    1    1    2    0    0 -0.18580185078E+02  0.12377324770E+02 -0.12267708071E+02  0.25535775616E+02  0.17770000000E+01 0. -1.
         15    1    1    2    0    0 -0.67110830633E+01 -0.13333095112E+02  0.17258685796E+03  0.17324027052E+03  0.17770000000E+01 0.  1.
</event>
<event>
 6    1  0.1860328E-003  0.5062427E+03  0.7546771E-02  0.9385949E-01
        -11   -1    0    0    0    0  0.00000000000E+00  0.00000000000E+00  0.50000000000E+03  0.50000000000E+03  0.00000000000E+00 0. -1.
         11   -1    0    0    0    0 -0.00000000000E+00 -0.00000000000E+00 -0.50000000000E+03  0.50000000000E+03  0.00000000000E+00 0.  1.
        -11    1    1    2    0    0  0.10452686948E+02 -0.81181672231E+01  0.49357990336E+03  0.49375731317E+03  0.00000000000E+00 0. -1.
         11    1    1    2    0    0 -0.12960828835E+01  0.57180878161E+01 -0.37561430642E+03  0.37566006382E+03  0.00000000000E+00 0.  1.
        -15    1    1    2    0    0 -0.24617435282E+02 -0.19187467258E+01 -0.21543865044E+02  0.32817610500E+02  0.17770000000E+01 0.  1.
         15    1    1    2    0    0  0.15460831218E+02  0.43188261328E+01 -0.96421731899E+02  0.97765012517E+02  0.17770000000E+01 0. -1.
</event>
<event>
 6    1  0.1860328E-003  0.5111701E+03  0.7546771E-02  0.9375157E-01
        -11   -1    0    0    0    0  0.00000000000E+00  0.00000000000E+00  0.50000000000E+03  0.50000000000E+03  0.00000000000E+00 0.  1.
         11   -1    0    0    0    0 -0.00000000000E+00 -0.00000000000E+00 -0.50000000000E+03  0.50000000000E+03  0.00000000000E+00 0. -1.
        -11    1    1    2    0    0  0.18450587973E+02 -0.15460856254E+02  0.48823682993E+03  0.48882989308E+03  0.00000000000E+00 0.  1.
         11    1    1    2    0    0  0.11962988630E+02 -0.18849681310E+02 -0.14393906477E+03  0.14566014537E+03  0.00000000000E+00 0. -1.
        -15    1    1    2    0    0 -0.18491736884E+02 -0.99222791236E+00  0.58793118033E+00  0.18612690329E+02  0.17770000000E+01 0.  1.
         15    1    1    2    0    0 -0.11921839719E+02  0.35302765477E+02 -0.34488569634E+03  0.34689727122E+03  0.17770000000E+01 0. -1.
</event>
<event>
 6    1  0.1860328E-003  0.5024875E+03  0.7546771E-02  0.9394261E-01
        -11   -1    0    0    0    0  0.00000000000E+00  0.00000000000E+00  0.50000000000E+03  0.50000000000E+03  0.00000000000E+00 0.  1.
         11   -1    0    0    0    0 -0.00000000000E+00 -0.00000000000E+00 -0.50000000000E+03  0.50000000000E+03  0.00000000000E+00 0.  1.
        -11    1    1    2    0    0  0.73156736905E+01  0.33891622231E+01  0.49744715741E+03  0.49751249222E+03  0.00000000000E+00 0.  1.
         11    1    1    2    0    0  0.39148737577E+01 -0.11001306835E+02 -0.44346514659E+03  0.44361885806E+03  0.00000000000E+00 0.  1.
        -15    1    1    2    0    0 -0.47683282184E+00  0.11060376873E+02 -0.18951108064E+02  0.22019571567E+02  0.17770000000E+01 0.  1.
         15    1    1    2    0    0 -0.10753714626E+02 -0.34482322610E+01 -0.35030902751E+02  0.36849078151E+02  0.17770000000E+01 0. -1.
</event>
<event>
 6    1  0.1860328E-003  0.5002011E+03  0.7546771E-02  0.9399360E-01
        -11   -1    0    0    0    0  0.00000000000E+00  0.00000000000E+00  0.50000000000E+03  0.50000000000E+03  0.00000000000E+00 0. -1.
         11   -1    0    0    0    0 -0.00000000000E+00 -0.00000000000E+00 -0.50000000000E+03  0.50000000000E+03  0.00000000000E+00 0. -1.
        -11    1    1    2    0    0 -0.50398087051E+01  0.60569256657E+01  0.49973683220E+03  0.49979894705E+03  0.00000000000E+00 0. -1.
         11    1    1    2    0    0  0.35881374088E+01  0.30339637989E+00 -0.76422796248E+02  0.76507585021E+02  0.00000000000E+00 0. -1.
        -15    1    1    2    0    0 -0.71641572756E+01 -0.30591165177E+01 -0.24704287681E+03  0.24717205355E+03  0.17770000000E+01 0.  1.
         15    1    1    2    0    0  0.86158285719E+01 -0.33012055279E+01 -0.17627115914E+03  0.17652141438E+03  0.17770000000E+01 0. -1.
</event>
<event>
 6    1  0.1860328E-003  0.4786537E+03  0.7546771E-02  0.9448883E-01
        -11   -1    0    0    0    0  0.00000000000E+00  0.00000000000E+00  0.50000000000E+03  0.50000000000E+03  0.00000000000E+00 0. -1.
         11   -1    0    0    0    0 -0.00000000000E+00 -0.00000000000E+00 -0.50000000000E+03  0.50000000000E+03  0.00000000000E+00 0. -1.
        -11    1    1    2    0    0  0.26337402640E+01 -0.85412405428E+01  0.47777331785E+03  0.47785691648E+03  0.00000000000E+00 0. -1.
         11    1    1    2    0    0  0.23807587697E+02  0.23154078308E+01 -0.47924042797E+03  0.47983700373E+03  0.00000000000E+00 0. -1.
        -15    1    1    2    0    0 -0.12603123158E+02 -0.47806728158E-01  0.16513285052E+02  0.20849156123E+02  0.17770000000E+01 0.  1.
         15    1    1    2    0    0 -0.13838204803E+02  0.62736394402E+01 -0.15046174937E+02  0.21456923666E+02  0.17770000000E+01 0. -1.
</event>
<event>
 6    1  0.1860328E-003  0.5072839E+03  0.7546771E-02  0.9383657E-01
        -11   -1    0    0    0    0  0.00000000000E+00  0.00000000000E+00  0.50000000000E+03  0.50000000000E+03  0.00000000000E+00 0. -1.
         11   -1    0    0    0    0 -0.00000000000E+00 -0.00000000000E+00 -0.50000000000E+03  0.50000000000E+03  0.00000000000E+00 0. -1.
        -11    1    1    2    0    0  0.42868525076E+01 -0.55473089471E+01  0.49266626374E+03  0.49271614259E+03  0.00000000000E+00 0. -1.
         11    1    1    2    0    0  0.79651006643E+01  0.73905322679E+01 -0.44379382778E+03  0.44392682322E+03  0.00000000000E+00 0. -1.
        -15    1    1    2    0    0  0.30344789591E+01  0.14189128323E+02 -0.75859570600E+01  0.16469483861E+02  0.17770000000E+01 0. -1.
         15    1    1    2    0    0 -0.15286432131E+02 -0.16032351644E+02 -0.41286478899E+02  0.46887550324E+02  0.17770000000E+01 0.  1.
</event>
<event>
 6    1  0.1860328E-003  0.5169178E+03  0.7546771E-02  0.9362731E-01
        -11   -1    0    0    0    0  0.00000000000E+00  0.00000000000E+00  0.50000000000E+03  0.50000000000E+03  0.00000000000E+00 0.  1.
         11   -1    0    0    0    0 -0.00000000000E+00 -0.00000000000E+00 -0.50000000000E+03  0.50000000000E+03  0.00000000000E+00 0.  1.
        -11    1    1    2    0    0 -0.13382738996E+02 -0.73029905274E+01  0.48284161502E+03  0.48308224617E+03  0.00000000000E+00 0.  1.
         11    1    1    2    0    0 -0.26929472705E+01  0.93325772615E+01 -0.33574755117E+03  0.33588802759E+03  0.00000000000E+00 0.  1.
        -15    1    1    2    0    0  0.20205302249E+02  0.11113380935E+02  0.86310537895E+01  0.24686317937E+02  0.17770000000E+01 0.  1.
         15    1    1    2    0    0 -0.41296159822E+01 -0.13142967669E+02 -0.15572511764E+03  0.15634340830E+03  0.17770000000E+01 0. -1.
</event>
<event>
 6    1  0.1860328E-003  0.5088264E+03  0.7546771E-02  0.9380274E-01
        -11   -1    0    0    0    0  0.00000000000E+00  0.00000000000E+00  0.50000000000E+03  0.50000000000E+03  0.00000000000E+00 0.  1.
         11   -1    0    0    0    0 -0.00000000000E+00 -0.00000000000E+00 -0.50000000000E+03  0.50000000000E+03  0.00000000000E+00 0.  1.
        -11    1    1    2    0    0 -0.11102130106E+02  0.66163651040E+01  0.49100351305E+03  0.49117357768E+03  0.00000000000E+00 0.  1.
         11    1    1    2    0    0 -0.11158567297E+02  0.51653537056E+01 -0.47132373086E+03  0.47148409705E+03  0.00000000000E+00 0.  1.
        -15    1    1    2    0    0  0.15437675039E+02 -0.15513384027E+02 -0.83628990751E+01  0.23496440252E+02  0.17770000000E+01 0. -1.
         15    1    1    2    0    0  0.68230223649E+01  0.37316652170E+01 -0.11316883117E+02  0.13845885020E+02  0.17770000000E+01 0.  1.
</event>
<event>
 6    1  0.1860328E-003  0.5141176E+03  0.7546771E-02  0.9368763E-01
        -11   -1    0    0    0    0  0.00000000000E+00  0.00000000000E+00  0.50000000000E+03  0.50000000000E+03  0.00000000000E+00 0.  1.
         11   -1    0    0    0    0 -0.00000000000E+00 -0.00000000000E+00 -0.50000000000E+03  0.50000000000E+03  0.00000000000E+00 0.  1.
        -11    1    1    2    0    0 -0.10982068422E+02  0.18248485336E+01  0.42040340181E+03  0.42055077714E+03  0.00000000000E+00 0.  1.
         11    1    1    2    0    0 -0.10450131241E+02 -0.36318881505E+02 -0.48441037534E+03  0.48588237068E+03  0.00000000000E+00 0.  1.
        -15    1    1    2    0    0  0.73301432500E+01 -0.14707911034E+02  0.20754690811E+02  0.26532405973E+02  0.17770000000E+01 0.  1.
         15    1    1    2    0    0  0.14102056412E+02  0.49201944006E+02  0.43252282716E+02  0.67034446206E+02  0.17770000000E+01 0. -1.
</event>
<event>
 6    1  0.1860328E-003  0.5010954E+03  0.7546771E-02  0.9397362E-01
        -11   -1    0    0    0    0  0.00000000000E+00  0.00000000000E+00  0.50000000000E+03  0.50000000000E+03  0.00000000000E+00 0.  1.
         11   -1    0    0    0    0 -0.00000000000E+00 -0.00000000000E+00 -0.50000000000E+03  0.50000000000E+03  0.00000000000E+00 0. -1.
        -11    1    1    2    0    0 -0.52675829774E+01 -0.14371219423E+02  0.41486491120E+03  0.41514717140E+03  0.00000000000E+00 0.  1.
         11    1    1    2    0    0  0.25527926406E+01  0.11902593122E+02 -0.49875606014E+03  0.49890459609E+03  0.00000000000E+00 0. -1.
        -15    1    1    2    0    0  0.27133492423E+01 -0.75198180232E+01  0.29329901852E+02  0.30451778255E+02  0.17770000000E+01 0. -1.
         15    1    1    2    0    0  0.14410944800E-02  0.99884443241E+01  0.54561247090E+02  0.55496454258E+02  0.17770000000E+01 0.  1.
</event>
<event>
 6    1  0.1860328E-003  0.5014527E+03  0.7546771E-02  0.9396565E-01
        -11   -1    0    0    0    0  0.00000000000E+00  0.00000000000E+00  0.50000000000E+03  0.50000000000E+03  0.00000000000E+00 0. -1.
         11   -1    0    0    0    0 -0.00000000000E+00 -0.00000000000E+00 -0.50000000000E+03  0.50000000000E+03  0.00000000000E+00 0. -1.
        -11    1    1    2    0    0  0.31297928535E+01 -0.17230066073E+02  0.49823962109E+03  0.49854728041E+03  0.00000000000E+00 0. -1.
         11    1    1    2    0    0 -0.43165587484E+01 -0.43830788666E+01 -0.37344484318E+03  0.37349550862E+03  0.00000000000E+00 0. -1.
        -15    1    1    2    0    0 -0.32131789142E-01 -0.16934597346E+01 -0.27418120409E+01  0.36802310514E+01  0.17770000000E+01 0. -1.
         15    1    1    2    0    0  0.12188976841E+01  0.23306604675E+02 -0.12205296587E+03  0.12427697993E+03  0.17770000000E+01 0. -1.
</event>
<event>
 6    1  0.1860328E-003  0.4929950E+03  0.7546771E-02  0.9415622E-01
        -11   -1    0    0    0    0  0.00000000000E+00  0.00000000000E+00  0.50000000000E+03  0.50000000000E+03  0.00000000000E+00 0.  1.
         11   -1    0    0    0    0 -0.00000000000E+00 -0.00000000000E+00 -0.50000000000E+03  0.50000000000E+03  0.00000000000E+00 0. -1.
        -11    1    1    2    0    0  0.14740160629E+01 -0.95326604804E+01  0.49187435986E+03  0.49196893218E+03  0.00000000000E+00 0.  1.
         11    1    1    2    0    0 -0.75106135549E+01 -0.39614809845E+00 -0.49403469054E+03  0.49409193649E+03  0.00000000000E+00 0. -1.
        -15    1    1    2    0    0  0.14250745866E+01  0.41107653289E+01  0.39029953596E+01  0.61090368262E+01  0.17770000000E+01 0. -1.
         15    1    1    2    0    0  0.46115229054E+01  0.58180432500E+01 -0.17426646792E+01  0.78300945045E+01  0.17770000000E+01 0.  1.
</event>
<event>
 6    1  0.1860328E-003  0.5001063E+03  0.7546771E-02  0.9399572E-01
        -11   -1    0    0    0    0  0.00000000000E+00  0.00000000000E+00  0.50000000000E+03  0.50000000000E+03  0.00000000000E+00 0.  1.
         11   -1    0    0    0    0 -0.00000000000E+00 -0.00000000000E+00 -0.50000000000E+03  0.50000000000E+03  0.00000000000E+00 0. -1.
        -11    1    1    2    0    0 -0.25617903651E+01 -0.10367838356E+02  0.49977962683E+03  0.49989371894E+03  0.00000000000E+00 0.  1.
         11    1    1    2    0    0 -0.11823231576E+01  0.27631213400E+01 -0.12412326537E+03  0.12415964615E+03  0.00000000000E+00 0. -1.
        -15    1    1    2    0    0 -0.20622123521E+01  0.78673061554E+00 -0.23251763702E+02  0.23423789384E+02  0.17770000000E+01 0.  1.
         15    1    1    2    0    0  0.58063258748E+01  0.68179864004E+01 -0.35240459776E+03  0.35252284552E+03  0.17770000000E+01 0. -1.
</event>
<event>
 6    1  0.1860328E-003  0.5413072E+03  0.7546771E-02  0.9311848E-01
        -11   -1    0    0    0    0  0.00000000000E+00  0.00000000000E+00  0.50000000000E+03  0.50000000000E+03  0.00000000000E+00 0.  1.
         11   -1    0    0    0    0 -0.00000000000E+00 -0.00000000000E+00 -0.50000000000E+03  0.50000000000E+03  0.00000000000E+00 0. -1.
        -11    1    1    2    0    0  0.27931373031E+02 -0.13668135348E+02  0.45763748020E+03  0.45869275426E+03  0.00000000000E+00 0.  1.
         11    1    1    2    0    0 -0.78165045385E+01  0.56352748644E+01 -0.35990422835E+03  0.36003320353E+03  0.00000000000E+00 0. -1.
        -15    1    1    2    0    0 -0.50898191592E+02 -0.23430639557E+02  0.16830266252E+02  0.58532353178E+02  0.17770000000E+01 0. -1.
         15    1    1    2    0    0  0.30783323099E+02  0.31463500041E+02 -0.11456351811E+03  0.12274168903E+03  0.17770000000E+01 0.  1.
</event>
<event>
 6    1  0.1860328E-003  0.5006528E+03  0.7546771E-02  0.9398350E-01
        -11   -1    0    0    0    0  0.00000000000E+00  0.00000000000E+00  0.50000000000E+03  0.50000000000E+03  0.00000000000E+00 0. -1.
         11   -1    0    0    0    0 -0.00000000000E+00 -0.00000000000E+00 -0.50000000000E+03  0.50000000000E+03  0.00000000000E+00 0. -1.
        -11    1    1    2    0    0  0.43821148691E+01  0.24690576087E+00  0.31058132691E+03  0.31061233800E+03  0.00000000000E+00 0. -1.
         11    1    1    2    0    0 -0.35315120111E+01  0.63452753406E+01 -0.49929442967E+03  0.49934723549E+03  0.00000000000E+00 0. -1.
        -15    1    1    2    0    0  0.39399364626E+00 -0.98223578619E+01  0.38435564726E+02  0.39712520819E+02  0.17770000000E+01 0. -1.
         15    1    1    2    0    0 -0.12445965043E+01  0.32301767604E+01  0.15027753803E+03  0.15032790568E+03  0.17770000000E+01 0.  1.
</event>
<event>
 6    1  0.1860328E-003  0.4912569E+03  0.7546771E-02  0.9419588E-01
        -11   -1    0    0    0    0  0.00000000000E+00  0.00000000000E+00  0.50000000000E+03  0.50000000000E+03  0.00000000000E+00 0.  1.
         11   -1    0    0    0    0 -0.00000000000E+00 -0.00000000000E+00 -0.50000000000E+03  0.50000000000E+03  0.00000000000E+00 0. -1.
        -11    1    1    2    0    0 -0.10821465414E+02 -0.43530130042E+01  0.49030139540E+03  0.49044011986E+03  0.00000000000E+00 0.  1.
         11    1    1    2    0    0  0.10652847704E+02  0.74704626167E+01 -0.49190784441E+03  0.49207989023E+03  0.00000000000E+00 0. -1.
        -15    1    1    2    0    0 -0.54407343579E+01 -0.95323904848E+00  0.70824001698E+01  0.91557837568E+01  0.17770000000E+01 0. -1.
         15    1    1    2    0    0  0.56093520677E+01 -0.21642105641E+01 -0.54759511577E+01  0.83242061524E+01  0.17770000000E+01 0.  1.
</event>
<event>
 6    1  0.1860328E-003  0.5114120E+03  0.7546771E-02  0.9374630E-01
        -11   -1    0    0    0    0  0.00000000000E+00  0.00000000000E+00  0.50000000000E+03  0.50000000000E+03  0.00000000000E+00 0. -1.
         11   -1    0    0    0    0 -0.00000000000E+00 -0.00000000000E+00 -0.50000000000E+03  0.50000000000E+03  0.00000000000E+00 0.  1.
        -11    1    1    2    0    0  0.45191597051E+02  0.87025559256E+01  0.48641564012E+03  0.48858795511E+03  0.00000000000E+00 0. -1.
         11    1    1    2    0    0 -0.45890907253E+01 -0.10477440993E+02 -0.44452740904E+03  0.44467454831E+03  0.00000000000E+00 0.  1.
        -15    1    1    2    0    0 -0.19841971822E+01  0.46315769124E+01  0.39949045753E+01  0.66712468639E+01  0.17770000000E+01 0.  1.
         15    1    1    2    0    0 -0.38618309143E+02 -0.28566918451E+01 -0.45883135654E+02  0.60066249723E+02  0.17770000000E+01 0. -1.
</event>
<event>
 6    1  0.1860328E-003  0.5215390E+03  0.7546771E-02  0.9352864E-01
        -11   -1    0    0    0    0  0.00000000000E+00  0.00000000000E+00  0.50000000000E+03  0.50000000000E+03  0.00000000000E+00 0. -1.
         11   -1    0    0    0    0 -0.00000000000E+00 -0.00000000000E+00 -0.50000000000E+03  0.50000000000E+03  0.00000000000E+00 0. -1.
        -11    1    1    2    0    0 -0.96482569888E+01 -0.11798161158E+02  0.36778232000E+03  0.36809797660E+03  0.00000000000E+00 0. -1.
         11    1    1    2    0    0 -0.14546143269E+02 -0.93539626884E+01 -0.47814832043E+03  0.47846097357E+03  0.00000000000E+00 0. -1.
        -15    1    1    2    0    0  0.17867664326E+02  0.89746046916E+01  0.12882038567E+03  0.13037502234E+03  0.17770000000E+01 0. -1.
         15    1    1    2    0    0  0.63267359316E+01  0.12177519155E+02 -0.18454385243E+02  0.23066027487E+02  0.17770000000E+01 0.  1.
</event>
<event>
 6    1  0.1860328E-003  0.5122525E+03  0.7546771E-02  0.9372804E-01
        -11   -1    0    0    0    0  0.00000000000E+00  0.00000000000E+00  0.50000000000E+03  0.50000000000E+03  0.00000000000E+00 0.  1.
         11   -1    0    0    0    0 -0.00000000000E+00 -0.00000000000E+00 -0.50000000000E+03  0.50000000000E+03  0.00000000000E+00 0. -1.
        -11    1    1    2    0    0 -0.18273043790E+02 -0.32193346924E+01  0.48739442440E+03  0.48774746866E+03  0.00000000000E+00 0.  1.
         11    1    1    2    0    0  0.97828038201E+01  0.27036259357E+01 -0.47779834469E+03  0.47790613203E+03  0.00000000000E+00 0. -1.
        -15    1    1    2    0    0  0.19974317589E+02  0.39199480504E+01 -0.86885294538E+01  0.22203324727E+02  0.17770000000E+01 0. -1.
         15    1    1    2    0    0 -0.11484077619E+02 -0.34042392937E+01 -0.90755026259E+00  0.12143074587E+02  0.17770000000E+01 0.  1.
</event>
<event>
 6    1  0.1860328E-003  0.5011348E+03  0.7546771E-02  0.9397274E-01
        -11   -1    0    0    0    0  0.00000000000E+00  0.00000000000E+00  0.50000000000E+03  0.50000000000E+03  0.00000000000E+00 0. -1.
         11   -1    0    0    0    0 -0.00000000000E+00 -0.00000000000E+00 -0.50000000000E+03  0.50000000000E+03  0.00000000000E+00 0. -1.
        -11    1    1    2    0    0 -0.37335383927E+01  0.62550403854E+01  0.36977571010E+03  0.36984745588E+03  0.00000000000E+00 0. -1.
         11    1    1    2    0    0 -0.10959774493E+02  0.29969649271E+01 -0.49873582744E+03  0.49886523634E+03  0.00000000000E+00 0. -1.
        -15    1    1    2    0    0  0.22831662442E+01  0.36553345466E+01  0.53873344552E+02  0.54074664132E+02  0.17770000000E+01 0. -1.
         15    1    1    2    0    0  0.12410146641E+02 -0.12907339859E+02  0.75086772787E+02  0.77212643644E+02  0.17770000000E+01 0.  1.
</event>
<event>
 6    1  0.1860328E-003  0.5091009E+03  0.7546771E-02  0.9379673E-01
        -11   -1    0    0    0    0  0.00000000000E+00  0.00000000000E+00  0.50000000000E+03  0.50000000000E+03  0.00000000000E+00 0. -1.
         11   -1    0    0    0    0 -0.00000000000E+00 -0.00000000000E+00 -0.50000000000E+03  0.50000000000E+03  0.00000000000E+00 0. -1.
        -11    1    1    2    0    0  0.21702762263E+02 -0.50536665163E+01  0.93265424070E+02  0.95890504024E+02  0.00000000000E+00 0. -1.
         11    1    1    2    0    0 -0.47889951300E+01 -0.94612215689E+01 -0.49078450390E+03  0.49089905119E+03  0.00000000000E+00 0. -1.
        -15    1    1    2    0    0  0.42024048076E+02  0.15745192601E+02  0.25574174490E+03  0.25965540533E+03  0.17770000000E+01 0. -1.
         15    1    1    2    0    0 -0.58937815209E+02 -0.12303045161E+01  0.14177733494E+03  0.15355503945E+03  0.17770000000E+01 0.  1.
</event>
<event>
 6    1  0.1860328E-003  0.5024107E+03  0.7546771E-02  0.9394432E-01
        -11   -1    0    0    0    0  0.00000000000E+00  0.00000000000E+00  0.50000000000E+03  0.50000000000E+03  0.00000000000E+00 0. -1.
         11   -1    0    0    0    0 -0.00000000000E+00 -0.00000000000E+00 -0.50000000000E+03  0.50000000000E+03  0.00000000000E+00 0.  1.
        -11    1    1    2    0    0 -0.44360100501E+01 -0.35411311541E+01  0.36093493310E+03  0.36097956137E+03  0.00000000000E+00 0. -1.
         11    1    1    2    0    0  0.88010104073E+01  0.30074362953E+02 -0.49660166517E+03  0.49758932760E+03  0.00000000000E+00 0.  1.
        -15    1    1    2    0    0  0.37595694468E+01 -0.81486095834E+00  0.73750000751E+02  0.73871636645E+02  0.17770000000E+01 0. -1.
         15    1    1    2    0    0 -0.81245698041E+01 -0.25718370840E+02  0.61916731314E+02  0.67559474382E+02  0.17770000000E+01 0. -1.
</event>
<event>
 6    1  0.1860328E-003  0.5035319E+03  0.7546771E-02  0.9391941E-01
        -11   -1    0    0    0    0  0.00000000000E+00  0.00000000000E+00  0.50000000000E+03  0.50000000000E+03  0.00000000000E+00 0. -1.
         11   -1    0    0    0    0 -0.00000000000E+00 -0.00000000000E+00 -0.50000000000E+03  0.50000000000E+03  0.00000000000E+00 0.  1.
        -11    1    1    2    0    0  0.24996462946E+01  0.10753886762E+02  0.38684287457E+03  0.38700039265E+03  0.00000000000E+00 0. -1.
         11    1    1    2    0    0 -0.73135390973E+01 -0.78451751406E+01 -0.49635223264E+03  0.49646809915E+03  0.00000000000E+00 0.  1.
        -15    1    1    2    0    0 -0.16972257792E+02  0.25078012251E+01  0.44030685864E+02  0.47288535906E+02  0.17770000000E+01 0. -1.
         15    1    1    2    0    0  0.21786150594E+02 -0.54165128460E+01  0.65478672207E+02  0.69242972294E+02  0.17770000000E+01 0.  1.
</event>
<event>
 6    1  0.2297768E-003  0.5309187E+03  0.7546771E-02  0.9333166E-01
        -11   -1    0    0    0    0  0.00000000000E+00  0.00000000000E+00  0.50000000000E+03  0.50000000000E+03  0.00000000000E+00 0.  1.
         11   -1    0    0    0    0 -0.00000000000E+00 -0.00000000000E+00 -0.50000000000E+03  0.50000000000E+03  0.00000000000E+00 0. -1.
        -11    1    1    2    0    0 -0.90669636578E+01 -0.20947140126E+01  0.44045068924E+03  0.44054898400E+03  0.00000000000E+00 0.  1.
         11    1    1    2    0    0  0.78284796894E+01 -0.26628599499E+00 -0.46901586082E+03  0.46908126556E+03  0.00000000000E+00 0. -1.
        -15    1    1    2    0    0 -0.26376446718E+01 -0.34125111189E+01 -0.30507785629E+02  0.30862357566E+02  0.17770000000E+01 0. -1.
         15    1    1    2    0    0  0.38761286403E+01  0.57735111265E+01  0.59072957210E+02  0.59507392872E+02  0.17770000000E+01 0.  1.
</event>
<event>
 6    1  0.1860328E-003  0.5085363E+03  0.7546771E-02  0.9380909E-01
        -11   -1    0    0    0    0  0.00000000000E+00  0.00000000000E+00  0.50000000000E+03  0.50000000000E+03  0.00000000000E+00 0.  1.
         11   -1    0    0    0    0 -0.00000000000E+00 -0.00000000000E+00 -0.50000000000E+03  0.50000000000E+03  0.00000000000E+00 0. -1.
        -11    1    1    2    0    0  0.25279098268E+01  0.52716352161E+01  0.21763573535E+03  0.21771424797E+03  0.00000000000E+00 0.  1.
         11    1    1    2    0    0 -0.52227611127E+02  0.49173401020E+00 -0.48868043314E+03  0.49146366183E+03  0.00000000000E+00 0. -1.
        -15    1    1    2    0    0  0.11557505060E+02  0.16587472462E+02  0.47056917925E+01  0.20833180989E+02  0.17770000000E+01 0. -1.
         15    1    1    2    0    0  0.38142196239E+02 -0.22350841688E+02  0.26633900599E+03  0.26998890922E+03  0.17770000000E+01 0.  1.
</event>
<event>
 6    1  0.1860328E-003  0.5074346E+03  0.7546771E-02  0.9383326E-01
        -11   -1    0    0    0    0  0.00000000000E+00  0.00000000000E+00  0.50000000000E+03  0.50000000000E+03  0.00000000000E+00 0. -1.
         11   -1    0    0    0    0 -0.00000000000E+00 -0.00000000000E+00 -0.50000000000E+03  0.50000000000E+03  0.00000000000E+00 0. -1.
        -11    1    1    2    0    0  0.67053671720E+01 -0.28361864839E+01  0.49251159995E+03  0.49256540884E+03  0.00000000000E+00 0. -1.
         11    1    1    2    0    0 -0.86510540564E+01 -0.47937558382E+01 -0.48211577182E+03  0.48221721067E+03  0.00000000000E+00 0. -1.
        -15    1    1    2    0    0 -0.23025085112E+01  0.24725018604E+01  0.61762882946E+01  0.72607903834E+01  0.17770000000E+01 0. -1.
         15    1    1    2    0    0  0.42481953956E+01  0.51574404618E+01 -0.16572116427E+02  0.17956590103E+02  0.17770000000E+01 0.  1.
</event>
<event>
 6    1  0.1860328E-003  0.5066179E+03  0.7546771E-02  0.9385122E-01
        -11   -1    0    0    0    0  0.00000000000E+00  0.00000000000E+00  0.50000000000E+03  0.50000000000E+03  0.00000000000E+00 0.  1.
         11   -1    0    0    0    0 -0.00000000000E+00 -0.00000000000E+00 -0.50000000000E+03  0.50000000000E+03  0.00000000000E+00 0. -1.
        -11    1    1    2    0    0  0.30790507277E+01  0.77789661828E+01  0.49331117200E+03  0.49338210880E+03  0.00000000000E+00 0.  1.
         11    1    1    2    0    0 -0.10948651810E+02 -0.13374871450E+01 -0.41436590298E+03  0.41451268183E+03  0.00000000000E+00 0. -1.
        -15    1    1    2    0    0 -0.12771592557E+02  0.52364621385E+01 -0.60300467995E+02  0.61885687211E+02  0.17770000000E+01 0. -1.
         15    1    1    2    0    0  0.20641193640E+02 -0.11677941176E+02 -0.18644801022E+02  0.30219522153E+02  0.17770000000E+01 0.  1.
</event>
<event>
 6    1  0.1860328E-003  0.5003532E+03  0.7546771E-02  0.9399020E-01
        -11   -1    0    0    0    0  0.00000000000E+00  0.00000000000E+00  0.50000000000E+03  0.50000000000E+03  0.00000000000E+00 0.  1.
         11   -1    0    0    0    0 -0.00000000000E+00 -0.00000000000E+00 -0.50000000000E+03  0.50000000000E+03  0.00000000000E+00 0. -1.
        -11    1    1    2    0    0  0.79914211508E+01  0.39014467552E+01  0.29243269017E+03  0.29256787653E+03  0.00000000000E+00 0.  1.
         11    1    1    2    0    0 -0.42473863630E+01  0.58806680551E+01 -0.49959412387E+03  0.49964678639E+03  0.00000000000E+00 0. -1.
        -15    1    1    2    0    0 -0.36995056756E+01  0.25447536690E+00  0.11281356286E+03  0.11288847946E+03  0.17770000000E+01 0.  1.
         15    1    1    2    0    0 -0.44529112256E-01 -0.10036590177E+02  0.94347870837E+02  0.94896857618E+02  0.17770000000E+01 0. -1.
</event>
<event>
 6    1  0.1860328E-003  0.5045764E+03  0.7546771E-02  0.9389627E-01
        -11   -1    0    0    0    0  0.00000000000E+00  0.00000000000E+00  0.50000000000E+03  0.50000000000E+03  0.00000000000E+00 0.  1.
         11   -1    0    0    0    0 -0.00000000000E+00 -0.00000000000E+00 -0.50000000000E+03  0.50000000000E+03  0.00000000000E+00 0. -1.
        -11    1    1    2    0    0  0.96504377477E+01 -0.47598957109E+01  0.49530670634E+03  0.49542357726E+03  0.00000000000E+00 0.  1.
         11    1    1    2    0    0 -0.64978848609E-01 -0.85333134117E+01 -0.47778620298E+03  0.47786240427E+03  0.00000000000E+00 0. -1.
        -15    1    1    2    0    0 -0.10702631067E+02  0.14174448734E+02 -0.14979968409E+02  0.23302757159E+02  0.17770000000E+01 0. -1.
         15    1    1    2    0    0  0.11171721680E+01 -0.88123961138E+00 -0.25405349529E+01  0.34112613140E+01  0.17770000000E+01 0.  1.
</event>
<event>
 6    1  0.1860328E-003  0.5188711E+03  0.7546771E-02  0.9358547E-01
        -11   -1    0    0    0    0  0.00000000000E+00  0.00000000000E+00  0.50000000000E+03  0.50000000000E+03  0.00000000000E+00 0. -1.
         11   -1    0    0    0    0 -0.00000000000E+00 -0.00000000000E+00 -0.50000000000E+03  0.50000000000E+03  0.00000000000E+00 0. -1.
        -11    1    1    2    0    0  0.26072051701E+01  0.25854295751E+02  0.48042668099E+03  0.48112892028E+03  0.00000000000E+00 0. -1.
         11    1    1    2    0    0 -0.92722026110E+01  0.10724276366E+02 -0.40084517947E+03  0.40109580121E+03  0.00000000000E+00 0. -1.
        -15    1    1    2    0    0 -0.60083511502E+01 -0.15656472994E+02  0.13446722591E+02  0.21568437765E+02  0.17770000000E+01 0.  1.
         15    1    1    2    0    0  0.12673348591E+02 -0.20922099123E+02 -0.93028224104E+02  0.96206840740E+02  0.17770000000E+01 0. -1.
</event>
<event>
 6    1  0.1860328E-003  0.5112638E+03  0.7546771E-02  0.9374953E-01
        -11   -1    0    0    0    0  0.00000000000E+00  0.00000000000E+00  0.50000000000E+03  0.50000000000E+03  0.00000000000E+00 0. -1.
         11   -1    0    0    0    0 -0.00000000000E+00 -0.00000000000E+00 -0.50000000000E+03  0.50000000000E+03  0.00000000000E+00 0. -1.
        -11    1    1    2    0    0  0.52875610534E+01 -0.43261073968E+01  0.48868844787E+03  0.48873619939E+03  0.00000000000E+00 0. -1.
         11    1    1    2    0    0 -0.37055254569E+01  0.56857752126E+01 -0.48529105109E+03  0.48533850376E+03  0.00000000000E+00 0. -1.
        -15    1    1    2    0    0  0.10666504324E+02 -0.40740269088E+01 -0.59536994782E+01  0.12999087515E+02  0.17770000000E+01 0.  1.
         15    1    1    2    0    0 -0.12248539920E+02  0.27143590930E+01  0.25563026940E+01  0.12926209341E+02  0.17770000000E+01 0. -1.
</event>
<event>
 6    1  0.1860328E-003  0.5002475E+03  0.7546771E-02  0.9399256E-01
        -11   -1    0    0    0    0  0.00000000000E+00  0.00000000000E+00  0.50000000000E+03  0.50000000000E+03  0.00000000000E+00 0.  1.
         11   -1    0    0    0    0 -0.00000000000E+00 -0.00000000000E+00 -0.50000000000E+03  0.50000000000E+03  0.00000000000E+00 0.  1.
        -11    1    1    2    0    0 -0.27636985155E+01 -0.67038547389E+01  0.49969988272E+03  0.49975249123E+03  0.00000000000E+00 0.  1.
         11    1    1    2    0    0 -0.53819559856E+01  0.72181563605E+00 -0.28007140254E+03  0.28012403858E+03  0.00000000000E+00 0.  1.
        -15    1    1    2    0    0  0.64300210136E+01  0.33885446441E+01 -0.61366707118E+02  0.61821176602E+02  0.17770000000E+01 0. -1.
         15    1    1    2    0    0  0.17156334875E+01  0.25934944587E+01 -0.15826177307E+03  0.15830229359E+03  0.17770000000E+01 0.  1.
</event>
<event>
 6    1  0.1860328E-003  0.5043354E+03  0.7546771E-02  0.9390161E-01
        -11   -1    0    0    0    0  0.00000000000E+00  0.00000000000E+00  0.50000000000E+03  0.50000000000E+03  0.00000000000E+00 0.  1.
         11   -1    0    0    0    0 -0.00000000000E+00 -0.00000000000E+00 -0.50000000000E+03  0.50000000000E+03  0.00000000000E+00 0. -1.
        -11    1    1    2    0    0  0.20309998907E+02 -0.11903312209E+01  0.49524692536E+03  0.49566463463E+03  0.00000000000E+00 0.  1.
         11    1    1    2    0    0  0.14396945506E+01  0.40723370474E+01 -0.12645500862E+03  0.12652875505E+03  0.00000000000E+00 0. -1.
        -15    1    1    2    0    0  0.92579884771E+01 -0.60391296566E+01 -0.31793643877E+03  0.31813349126E+03  0.17770000000E+01 0. -1.
         15    1    1    2    0    0 -0.31007681935E+02  0.31571238301E+01 -0.50855477969E+02  0.59673119060E+02  0.17770000000E+01 0.  1.
</event>
<event>
 6    1  0.1860328E-003  0.5020278E+03  0.7546771E-02  0.9395284E-01
        -11   -1    0    0    0    0  0.00000000000E+00  0.00000000000E+00  0.50000000000E+03  0.50000000000E+03  0.00000000000E+00 0.  1.
         11   -1    0    0    0    0 -0.00000000000E+00 -0.00000000000E+00 -0.50000000000E+03  0.50000000000E+03  0.00000000000E+00 0. -1.
        -11    1    1    2    0    0  0.42982549446E+01 -0.73840678010E+01  0.38183874573E+03  0.38193432315E+03  0.00000000000E+00 0.  1.
         11    1    1    2    0    0  0.92014554297E+00  0.28571618292E+02 -0.49715102686E+03  0.49797221564E+03  0.00000000000E+00 0. -1.
        -15    1    1    2    0    0  0.42408464512E+01 -0.24070422487E+01  0.33900712359E+01  0.61991082419E+01  0.17770000000E+01 0. -1.
         15    1    1    2    0    0 -0.94592469387E+01 -0.18780508242E+02  0.11192220989E+03  0.11389435297E+03  0.17770000000E+01 0.  1.
</event>
<event>
 6    1  0.1860328E-003  0.5494724E+03  0.7546771E-02  0.9295445E-01
        -11   -1    0    0    0    0  0.00000000000E+00  0.00000000000E+00  0.50000000000E+03  0.50000000000E+03  0.00000000000E+00 0.  1.
         11   -1    0    0    0    0 -0.00000000000E+00 -0.00000000000E+00 -0.50000000000E+03  0.50000000000E+03  0.00000000000E+00 0.  1.
        -11    1    1    2    0    0 -0.27319563232E+01 -0.13931070827E+01  0.18524628877E+03  0.18527167036E+03  0.00000000000E+00 0.  1.
         11    1    1    2    0    0 -0.79137058812E+01  0.56717243723E+01 -0.45042234153E+03  0.45052755848E+03  0.00000000000E+00 0.  1.
        -15    1    1    2    0    0 -0.54560743545E+02  0.94222776244E+01 -0.29027489232E+02  0.62541241688E+02  0.17770000000E+01 0. -1.
         15    1    1    2    0    0  0.65206405749E+02 -0.13700894914E+02  0.29420354199E+03  0.30165952948E+03  0.17770000000E+01 0.  1.
</event>
<event>
 6    1  0.1860328E-003  0.5004473E+03  0.7546771E-02  0.9398809E-01
        -11   -1    0    0    0    0  0.00000000000E+00  0.00000000000E+00  0.50000000000E+03  0.50000000000E+03  0.00000000000E+00 0. -1.
         11   -1    0    0    0    0 -0.00000000000E+00 -0.00000000000E+00 -0.50000000000E+03  0.50000000000E+03  0.00000000000E+00 0.  1.
        -11    1    1    2    0    0 -0.65459734312E+01 -0.40762695944E+01  0.80015819181E+02  0.80386547763E+02  0.00000000000E+00 0. -1.
         11    1    1    2    0    0  0.12096659930E+01  0.10469694319E+02 -0.49944150656E+03  0.49955269618E+03  0.00000000000E+00 0.  1.
        -15    1    1    2    0    0  0.83371023189E+00  0.16813619169E+01  0.60631409356E+01  0.65910134009E+01  0.17770000000E+01 0. -1.
         15    1    1    2    0    0  0.45025972063E+01 -0.80747866417E+01  0.41336254644E+03  0.41346974265E+03  0.17770000000E+01 0. -1.
</event>
<event>
 6    1  0.1860328E-003  0.5217599E+03  0.7546771E-02  0.9352395E-01
        -11   -1    0    0    0    0  0.00000000000E+00  0.00000000000E+00  0.50000000000E+03  0.50000000000E+03  0.00000000000E+00 0. -1.
         11   -1    0    0    0    0 -0.00000000000E+00 -0.00000000000E+00 -0.50000000000E+03  0.50000000000E+03  0.00000000000E+00 0.  1.
        -11    1    1    2    0    0 -0.54631371156E+01 -0.18417856154E+02  0.47785406378E+03  0.47824007524E+03  0.00000000000E+00 0. -1.
         11    1    1    2    0    0  0.10910380412E+02 -0.10988604380E+02 -0.45357909551E+03  0.45384334490E+03  0.00000000000E+00 0.  1.
        -15    1    1    2    0    0  0.87512393711E+00  0.52630723524E-01  0.16849510097E+02  0.16965622046E+02  0.17770000000E+01 0. -1.
         15    1    1    2    0    0 -0.63223672334E+01  0.29353829810E+02 -0.41124478368E+02  0.50950957812E+02  0.17770000000E+01 0.  1.
</event>
<event>
 6    1  0.1860328E-003  0.5040281E+03  0.7546771E-02  0.9390841E-01
        -11   -1    0    0    0    0  0.00000000000E+00  0.00000000000E+00  0.50000000000E+03  0.50000000000E+03  0.00000000000E+00 0.  1.
         11   -1    0    0    0    0 -0.00000000000E+00 -0.00000000000E+00 -0.50000000000E+03  0.50000000000E+03  0.00000000000E+00 0.  1.
        -11    1    1    2    0    0 -0.61055728229E+01  0.29211686384E+01  0.49592566596E+03  0.49597185142E+03  0.00000000000E+00 0.  1.
         11    1    1    2    0    0  0.92921102969E+00  0.72182770495E+01 -0.37550043249E+03  0.37557095436E+03  0.00000000000E+00 0.  1.
        -15    1    1    2    0    0  0.97296410753E+01 -0.66347306415E+01 -0.50679635266E+01  0.12943243390E+02  0.17770000000E+01 0. -1.
         15    1    1    2    0    0 -0.45532792821E+01 -0.35047150463E+01 -0.11535726994E+03  0.11551395083E+03  0.17770000000E+01 0.  1.
</event>
<event>
 6    1  0.1860328E-003  0.5025876E+03  0.7546771E-02  0.9394038E-01
        -11   -1    0    0    0    0  0.00000000000E+00  0.00000000000E+00  0.50000000000E+03  0.50000000000E+03  0.00000000000E+00 0. -1.
         11   -1    0    0    0    0 -0.00000000000E+00 -0.00000000000E+00 -0.50000000000E+03  0.50000000000E+03  0.00000000000E+00 0.  1.
        -11    1    1    2    0    0  0.65427033941E+01  0.16237195008E+01  0.49736675124E+03  0.49741243317E+03  0.00000000000E+00 0. -1.
         11    1    1    2    0    0  0.29350822492E+01 -0.62244075453E+01 -0.46865457156E+03  0.46870509427E+03  0.00000000000E+00 0.  1.
        -15    1    1    2    0    0  0.65280542650E+00 -0.21789606852E+01 -0.28446820069E+00  0.29004612995E+01  0.17770000000E+01 0. -1.
         15    1    1    2    0    0 -0.10130591070E+02  0.67796487297E+01 -0.28427711482E+02  0.30982011256E+02  0.17770000000E+01 0.  1.
</event>
<event>
 6    1  0.1860328E-003  0.5007275E+03  0.7546771E-02  0.9398183E-01
        -11   -1    0    0    0    0  0.00000000000E+00  0.00000000000E+00  0.50000000000E+03  0.50000000000E+03  0.00000000000E+00 0. -1.
         11   -1    0    0    0    0 -0.00000000000E+00 -0.00000000000E+00 -0.50000000000E+03  0.50000000000E+03  0.00000000000E+00 0.  1.
        -11    1    1    2    0    0 -0.10610874527E+00  0.13107689160E+01  0.26354362101E+02  0.26387151721E+02  0.00000000000E+00 0. -1.
         11    1    1    2    0    0  0.19603461722E+01  0.85144807873E+01 -0.49919599510E+03  0.49927245154E+03  0.00000000000E+00 0.  1.
        -15    1    1    2    0    0  0.33869238219E+01  0.58855151743E+01  0.20061732811E+02  0.21254208859E+02  0.17770000000E+01 0.  1.
         15    1    1    2    0    0 -0.52411612488E+01 -0.15710764878E+02  0.45277990019E+03  0.45308618788E+03  0.17770000000E+01 0. -1.
</event>
<event>
 6    1  0.1860328E-003  0.5045431E+03  0.7546771E-02  0.9389701E-01
        -11   -1    0    0    0    0  0.00000000000E+00  0.00000000000E+00  0.50000000000E+03  0.50000000000E+03  0.00000000000E+00 0. -1.
         11   -1    0    0    0    0 -0.00000000000E+00 -0.00000000000E+00 -0.50000000000E+03  0.50000000000E+03  0.00000000000E+00 0.  1.
        -11    1    1    2    0    0 -0.22707031835E+01  0.73889847802E+01  0.48971867736E+03  0.48977968123E+03  0.00000000000E+00 0. -1.
         11    1    1    2    0    0 -0.34028829475E+01 -0.58479072613E+01 -0.49541071497E+03  0.49545691451E+03  0.00000000000E+00 0.  1.
        -15    1    1    2    0    0  0.17403432793E+01  0.50010430706E+01  0.11424926717E+01  0.57010740241E+01  0.17770000000E+01 0. -1.
         15    1    1    2    0    0  0.39332428517E+01 -0.65421205895E+01  0.45495449334E+01  0.90623302323E+01  0.17770000000E+01 0.  1.
</event>
<event>
 6    1  0.1860328E-003  0.4761257E+03  0.7546771E-02  0.9454874E-01
        -11   -1    0    0    0    0  0.00000000000E+00  0.00000000000E+00  0.50000000000E+03  0.50000000000E+03  0.00000000000E+00 0.  1.
         11   -1    0    0    0    0 -0.00000000000E+00 -0.00000000000E+00 -0.50000000000E+03  0.50000000000E+03  0.00000000000E+00 0.  1.
        -11    1    1    2    0    0  0.22148041021E+01  0.15995359797E+02  0.46682544803E+03  0.46710465189E+03  0.00000000000E+00 0.  1.
         11    1    1    2    0    0  0.45066838405E+01  0.20311876534E+02 -0.48560183376E+03  0.48604734695E+03  0.00000000000E+00 0.  1.
        -15    1    1    2    0    0 -0.84073968458E+00 -0.31708547606E+02  0.65884412588E+01  0.32445402167E+02  0.17770000000E+01 0. -1.
         15    1    1    2    0    0 -0.58807482579E+01 -0.45986887249E+01  0.12187944474E+02  0.14402598986E+02  0.17770000000E+01 0.  1.
</event>
<event>
 6    1  0.1860328E-003  0.5692561E+03  0.7546771E-02  0.9256924E-01
        -11   -1    0    0    0    0  0.00000000000E+00  0.00000000000E+00  0.50000000000E+03  0.50000000000E+03  0.00000000000E+00 0. -1.
         11   -1    0    0    0    0 -0.00000000000E+00 -0.00000000000E+00 -0.50000000000E+03  0.50000000000E+03  0.00000000000E+00 0. -1.
        -11    1    1    2    0    0  0.29746698094E+01  0.11077509615E+02  0.39958415615E+03  0.39974874324E+03  0.00000000000E+00 0. -1.
         11    1    1    2    0    0  0.26038770975E+01  0.56569805786E+01 -0.43069890813E+03  0.43074392749E+03  0.00000000000E+00 0. -1.
        -15    1    1    2    0    0 -0.54072436277E+01 -0.25875251894E+00 -0.68392556914E+02  0.68629474767E+02  0.17770000000E+01 0.  1.
         15    1    1    2    0    0 -0.17130327925E+00 -0.16475737675E+02  0.99507308896E+02  0.10087785450E+03  0.17770000000E+01 0. -1.
</event>
<event>
 6    1  0.1860328E-003  0.5295773E+03  0.7546771E-02  0.9335957E-01
        -11   -1    0    0    0    0  0.00000000000E+00  0.00000000000E+00  0.50000000000E+03  0.50000000000E+03  0.00000000000E+00 0. -1.
         11   -1    0    0    0    0 -0.00000000000E+00 -0.00000000000E+00 -0.50000000000E+03  0.50000000000E+03  0.00000000000E+00 0. -1.
        -11    1    1    2    0    0  0.14150530531E+01  0.65885110224E+01  0.45273990500E+03  0.45279005338E+03  0.00000000000E+00 0. -1.
         11    1    1    2    0    0  0.85499996876E-01 -0.86487252143E+01 -0.47034318353E+03  0.47042270146E+03  0.00000000000E+00 0. -1.
        -15    1    1    2    0    0 -0.12284882698E+02  0.14196306551E+02 -0.24911037575E+02  0.31243735127E+02  0.17770000000E+01 0.  1.
         15    1    1    2    0    0  0.10784329648E+02 -0.12136092359E+02  0.42514316102E+02  0.45543510035E+02  0.17770000000E+01 0. -1.
</event>
<event>
 6    1  0.1860328E-003  0.5013857E+03  0.7546771E-02  0.9396714E-01
        -11   -1    0    0    0    0  0.00000000000E+00  0.00000000000E+00  0.50000000000E+03  0.50000000000E+03  0.00000000000E+00 0.  1.
         11   -1    0    0    0    0 -0.00000000000E+00 -0.00000000000E+00 -0.50000000000E+03  0.50000000000E+03  0.00000000000E+00 0.  1.
        -11    1    1    2    0    0  0.62218466969E+01  0.29267095650E+01  0.49856691643E+03  0.49861432708E+03  0.00000000000E+00 0.  1.
         11    1    1    2    0    0  0.58522630981E+01 -0.97959299313E+01 -0.23266855690E+03  0.23294820582E+03  0.00000000000E+00 0.  1.
        -15    1    1    2    0    0 -0.22202870624E+00  0.18370436416E+02 -0.18030486852E+03  0.18124713949E+03  0.17770000000E+01 0. -1.
         15    1    1    2    0    0 -0.11852081089E+02 -0.11501216050E+02 -0.85593491016E+02  0.87190327617E+02  0.17770000000E+01 0.  1.
</event>
<event>
 6    1  0.1860328E-003  0.5154476E+03  0.7546771E-02  0.9365893E-01
        -11   -1    0    0    0    0  0.00000000000E+00  0.00000000000E+00  0.50000000000E+03  0.50000000000E+03  0.00000000000E+00 0.  1.
         11   -1    0    0    0    0 -0.00000000000E+00 -0.00000000000E+00 -0.50000000000E+03  0.50000000000E+03  0.00000000000E+00 0.  1.
        -11    1    1    2    0    0 -0.29016388957E+02 -0.55226861532E+01  0.44996200609E+03  0.45093043567E+03  0.00000000000E+00 0.  1.
         11    1    1    2    0    0 -0.29661279122E+01 -0.83812554803E+01 -0.48447083237E+03  0.48455240251E+03  0.00000000000E+00 0.  1.
        -15    1    1    2    0    0  0.10807414228E+02 -0.60137006814E+01  0.33075704450E+02  0.35357103276E+02  0.17770000000E+01 0.  1.
         15    1    1    2    0    0  0.21175102641E+02  0.19917642315E+02  0.14331218359E+01  0.29160058547E+02  0.17770000000E+01 0.  1.
</event>
<event>
 6    1  0.1860328E-003  0.3388139E+03  0.7546771E-02  0.9856755E-01
        -11   -1    0    0    0    0  0.00000000000E+00  0.00000000000E+00  0.50000000000E+03  0.50000000000E+03  0.00000000000E+00 0.  1.
         11   -1    0    0    0    0 -0.00000000000E+00 -0.00000000000E+00 -0.50000000000E+03  0.50000000000E+03  0.00000000000E+00 0. -1.
        -11    1    1    2    0    0  0.11635611811E+03 -0.19078226687E+02  0.16514539132E+03  0.20291802589E+03  0.00000000000E+00 0.  1.
         11    1    1    2    0    0 -0.62457766923E+01  0.69434957101E+01 -0.36655832509E+03  0.36667727985E+03  0.00000000000E+00 0. -1.
        -15    1    1    2    0    0 -0.19159030393E+01 -0.25057203399E+02 -0.10256025168E+03  0.10560917139E+03  0.17770000000E+01 0. -1.
         15    1    1    2    0    0 -0.10819443838E+03  0.37191934376E+02  0.30397318546E+03  0.32479552288E+03  0.17770000000E+01 0.  1.
</event>
<event>
 6    1  0.1860328E-003  0.5021745E+03  0.7546771E-02  0.9394957E-01
        -11   -1    0    0    0    0  0.00000000000E+00  0.00000000000E+00  0.50000000000E+03  0.50000000000E+03  0.00000000000E+00 0.  1.
         11   -1    0    0    0    0 -0.00000000000E+00 -0.00000000000E+00 -0.50000000000E+03  0.50000000000E+03  0.00000000000E+00 0. -1.
        -11    1    1    2    0    0  0.47290663125E+01  0.54804883253E+01  0.44833125814E+03  0.44838969307E+03  0.00000000000E+00 0.  1.
         11    1    1    2    0    0  0.56220134094E+01  0.48613826933E+01 -0.49777002124E+03  0.49782550569E+03  0.00000000000E+00 0. -1.
        -15    1    1    2    0    0 -0.94603131445E+01 -0.24704483384E+01  0.40535053733E+02  0.41735463935E+02  0.17770000000E+01 0.  1.
         15    1    1    2    0    0 -0.89076657739E+00 -0.78714226802E+01  0.89037093593E+01  0.12049337304E+02  0.17770000000E+01 0. -1.
</event>
<event>
 6    1  0.1860328E-003  0.5006564E+03  0.7546771E-02  0.9398342E-01
        -11   -1    0    0    0    0  0.00000000000E+00  0.00000000000E+00  0.50000000000E+03  0.50000000000E+03  0.00000000000E+00 0. -1.
         11   -1    0    0    0    0 -0.00000000000E+00 -0.00000000000E+00 -0.50000000000E+03  0.50000000000E+03  0.00000000000E+00 0. -1.
        -11    1    1    2    0    0  0.70375443147E+01 -0.16870908120E+01  0.49929112313E+03  0.49934356804E+03  0.00000000000E+00 0. -1.
         11    1    1    2    0    0 -0.21517580469E+01 -0.28793241906E+01 -0.21262574984E+03  0.21265613103E+03  0.00000000000E+00 0. -1.
        -15    1    1    2    0    0 -0.10092906413E+02  0.34456075111E+01 -0.45402133488E+02  0.46671730472E+02  0.17770000000E+01 0. -1.
         15    1    1    2    0    0  0.52071201451E+01  0.11208074915E+01 -0.24126323980E+03  0.24132857046E+03  0.17770000000E+01 0. -1.
</event>
<event>
 6    1  0.1860328E-003  0.4889804E+03  0.7546771E-02  0.9424810E-01
        -11   -1    0    0    0    0  0.00000000000E+00  0.00000000000E+00  0.50000000000E+03  0.50000000000E+03  0.00000000000E+00 0.  1.
         11   -1    0    0    0    0 -0.00000000000E+00 -0.00000000000E+00 -0.50000000000E+03  0.50000000000E+03  0.00000000000E+00 0.  1.
        -11    1    1    2    0    0 -0.43757280494E+01 -0.94736508530E+01  0.49129540884E+03  0.49140622280E+03  0.00000000000E+00 0.  1.
         11    1    1    2    0    0 -0.51477848221E+01 -0.50198785935E+01 -0.48666621278E+03  0.48671932521E+03  0.00000000000E+00 0.  1.
        -15    1    1    2    0    0  0.26415467939E+01  0.12395754261E+01 -0.58615724348E+01  0.67845469348E+01  0.17770000000E+01 0. -1.
         15    1    1    2    0    0  0.68819660776E+01  0.13253954020E+02  0.12323763759E+01  0.15089905063E+02  0.17770000000E+01 0.  1.
</event>
<event>
 6    1  0.1860328E-003  0.5032446E+03  0.7546771E-02  0.9392579E-01
        -11   -1    0    0    0    0  0.00000000000E+00  0.00000000000E+00  0.50000000000E+03  0.50000000000E+03  0.00000000000E+00 0. -1.
         11   -1    0    0    0    0 -0.00000000000E+00 -0.00000000000E+00 -0.50000000000E+03  0.50000000000E+03  0.00000000000E+00 0.  1.
        -11    1    1    2    0    0 -0.13641989289E+01  0.75996193399E+01  0.49669535251E+03  0.49675536078E+03  0.00000000000E+00 0. -1.
         11    1    1    2    0    0 -0.22121323556E+01  0.53917658501E+01 -0.36038489750E+03  0.36043201719E+03  0.00000000000E+00 0.  1.
        -15    1    1    2    0    0  0.16775090865E+01 -0.12729356382E+02 -0.97356560702E+01  0.16210838311E+02  0.17770000000E+01 0.  1.
         15    1    1    2    0    0  0.18988221980E+01 -0.26202880816E+00 -0.12657479895E+03  0.12660178372E+03  0.17770000000E+01 0. -1.
</event>
<event>
 6    1  0.1860328E-003  0.5144090E+03  0.7546771E-02  0.9368133E-01
        -11   -1    0    0    0    0  0.00000000000E+00  0.00000000000E+00  0.50000000000E+03  0.50000000000E+03  0.00000000000E+00 0. -1.
         11   -1    0    0    0    0 -0.00000000000E+00 -0.00000000000E+00 -0.50000000000E+03  0.50000000000E+03  0.00000000000E+00 0. -1.
        -11    1    1    2    0    0  0.62139645941E+01 -0.67679576634E+01  0.46617813305E+03  0.46626866756E+03  0.00000000000E+00 0. -1.
         11    1    1    2    0    0  0.18896903419E+02  0.87347209530E+01 -0.48514453866E+03  0.48559099219E+03  0.00000000000E+00 0. -1.
        -15    1    1    2    0    0 -0.12862807598E+02 -0.32206161983E+01 -0.99426465231E+01  0.16668477342E+02  0.17770000000E+01 0.  1.
         15    1    1    2    0    0 -0.12248060415E+02  0.12538529087E+01  0.28909052129E+02  0.31471862910E+02  0.17770000000E+01 0.  1.
</event>
<event>
 6    1  0.1860328E-003  0.5005102E+03  0.7546771E-02  0.9398669E-01
        -11   -1    0    0    0    0  0.00000000000E+00  0.00000000000E+00  0.50000000000E+03  0.50000000000E+03  0.00000000000E+00 0. -1.
         11   -1    0    0    0    0 -0.00000000000E+00 -0.00000000000E+00 -0.50000000000E+03  0.50000000000E+03  0.00000000000E+00 0. -1.
        -11    1    1    2    0    0 -0.61635760029E-01 -0.55189621710E+01  0.29593169594E+03  0.29598316068E+03  0.00000000000E+00 0. -1.
         11    1    1    2    0    0  0.99968576975E+01  0.83281209960E+01 -0.49932032922E+03  0.49948982565E+03  0.00000000000E+00 0. -1.
        -15    1    1    2    0    0  0.29956510620E+01  0.23660447616E+01  0.11078187655E+03  0.11086186898E+03  0.17770000000E+01 0. -1.
         15    1    1    2    0    0 -0.12930873000E+02 -0.51752035865E+01  0.92606756729E+02  0.93665144689E+02  0.17770000000E+01 0.  1.
</event>
<event>
 6    1  0.1860328E-003  0.4651516E+03  0.7546771E-02  0.9481350E-01
        -11   -1    0    0    0    0  0.00000000000E+00  0.00000000000E+00  0.50000000000E+03  0.50000000000E+03  0.00000000000E+00 0. -1.
         11   -1    0    0    0    0 -0.00000000000E+00 -0.00000000000E+00 -0.50000000000E+03  0.50000000000E+03  0.00000000000E+00 0.  1.
        -11    1    1    2    0    0  0.12289327289E+02 -0.56303333813E+01  0.45835256975E+03  0.45855185793E+03  0.00000000000E+00 0. -1.
         11    1    1    2    0    0  0.17425992128E+02 -0.36369466143E+02 -0.47154496158E+03  0.47326636693E+03  0.00000000000E+00 0.  1.
        -15    1    1    2    0    0 -0.65822732129E+01  0.10343392194E+02  0.24399947255E+02  0.27364707888E+02  0.17770000000E+01 0.  1.
         15    1    1    2    0    0 -0.23133046204E+02  0.31656407330E+02 -0.11207555421E+02  0.40817067254E+02  0.17770000000E+01 0. -1.
</event>
<event>
 6    1  0.1860328E-003  0.4882798E+03  0.7546771E-02  0.9426423E-01
        -11   -1    0    0    0    0  0.00000000000E+00  0.00000000000E+00  0.50000000000E+03  0.50000000000E+03  0.00000000000E+00 0. -1.
         11   -1    0    0    0    0 -0.00000000000E+00 -0.00000000000E+00 -0.50000000000E+03  0.50000000000E+03  0.00000000000E+00 0. -1.
        -11    1    1    2    0    0  0.90892104582E+01  0.47537807717E+00  0.48715442988E+03  0.48723944655E+03  0.00000000000E+00 0. -1.
         11    1    1    2    0    0 -0.52476213999E+00 -0.10254815853E+02 -0.48930122011E+03  0.48940895029E+03  0.00000000000E+00 0. -1.
        -15    1    1    2    0    0 -0.64063339531E+01 -0.27689267720E+01  0.65775960204E+01  0.97534900726E+01  0.17770000000E+01 0.  1.
         15    1    1    2    0    0 -0.21581143651E+01  0.12548364548E+02 -0.44308057833E+01  0.13598113080E+02  0.17770000000E+01 0.  1.
</event>
<event>
 6    1  0.1860328E-003  0.5013629E+03  0.7546771E-02  0.9396765E-01
        -11   -1    0    0    0    0  0.00000000000E+00  0.00000000000E+00  0.50000000000E+03  0.50000000000E+03  0.00000000000E+00 0. -1.
         11   -1    0    0    0    0 -0.00000000000E+00 -0.00000000000E+00 -0.50000000000E+03  0.50000000000E+03  0.00000000000E+00 0. -1.
        -11    1    1    2    0    0  0.95338763821E+01 -0.43950429117E+01  0.49852653194E+03  0.49863705664E+03  0.00000000000E+00 0. -1.
         11    1    1    2    0    0 -0.11187862794E+01  0.84134423698E+01 -0.45788589381E+03  0.45796455043E+03  0.00000000000E+00 0. -1.
        -15    1    1    2    0    0  0.33306708945E+00  0.32448890915E+01 -0.10092469484E+02  0.10754343690E+02  0.17770000000E+01 0. -1.
         15    1    1    2    0    0 -0.87481571922E+01 -0.72632885496E+01 -0.30548168644E+02  0.32644049248E+02  0.17770000000E+01 0.  1.
</event>
<event>
 6    1  0.1860328E-003  0.5129318E+03  0.7546771E-02  0.9371330E-01
        -11   -1    0    0    0    0  0.00000000000E+00  0.00000000000E+00  0.50000000000E+03  0.50000000000E+03  0.00000000000E+00 0.  1.
         11   -1    0    0    0    0 -0.00000000000E+00 -0.00000000000E+00 -0.50000000000E+03  0.50000000000E+03  0.00000000000E+00 0. -1.
        -11    1    1    2    0    0 -0.64738888061E+01 -0.31427490858E+02  0.45543751648E+03  0.45656645720E+03  0.00000000000E+00 0.  1.
         11    1    1    2    0    0  0.68343830533E+01  0.12011991865E+00 -0.48702020337E+03  0.48706816947E+03  0.00000000000E+00 0. -1.
        -15    1    1    2    0    0 -0.25558337294E+01 -0.67812832468E+01  0.10060591183E+02  0.12525626231E+02  0.17770000000E+01 0.  1.
         15    1    1    2    0    0  0.21953394822E+01  0.38088654186E+02  0.21522095708E+02  0.43839747100E+02  0.17770000000E+01 0. -1.
</event>
<event>
 6    1  0.1860328E-003  0.5057975E+03  0.7546771E-02  0.9386930E-01
        -11   -1    0    0    0    0  0.00000000000E+00  0.00000000000E+00  0.50000000000E+03  0.50000000000E+03  0.00000000000E+00 0. -1.
         11   -1    0    0    0    0 -0.00000000000E+00 -0.00000000000E+00 -0.50000000000E+03  0.50000000000E+03  0.00000000000E+00 0. -1.
        -11    1    1    2    0    0 -0.23270202035E+02  0.28066033861E+02  0.49285588910E+03  0.49420252122E+03  0.00000000000E+00 0. -1.
         11    1    1    2    0    0  0.53427092534E+01 -0.27994239556E+02 -0.29829860386E+03  0.29965693560E+03  0.00000000000E+00 0. -1.
        -15    1    1    2    0    0  0.22082327149E+02 -0.11412832966E+02 -0.22270516688E+02  0.33421782884E+02  0.17770000000E+01 0. -1.
         15    1    1    2    0    0 -0.41548343674E+01  0.11341038661E+02 -0.17228676856E+03  0.17271876029E+03  0.17770000000E+01 0.  1.
</event>
<event>
 6    1  0.1860328E-003  0.4820446E+03  0.7546771E-02  0.9440908E-01
        -11   -1    0    0    0    0  0.00000000000E+00  0.00000000000E+00  0.50000000000E+03  0.50000000000E+03  0.00000000000E+00 0.  1.
         11   -1    0    0    0    0 -0.00000000000E+00 -0.00000000000E+00 -0.50000000000E+03  0.50000000000E+03  0.00000000000E+00 0.  1.
        -11    1    1    2    0    0  0.34216970320E+01 -0.12978342683E+02  0.48039996964E+03  0.48058742827E+03  0.00000000000E+00 0.  1.
         11    1    1    2    0    0 -0.81696428149E+01  0.42705809778E+01 -0.48346975602E+03  0.48355763453E+03  0.00000000000E+00 0.  1.
        -15    1    1    2    0    0  0.98960679894E+01 -0.18251991668E+01 -0.12588225245E+02  0.16213718188E+02  0.17770000000E+01 0.  1.
         15    1    1    2    0    0 -0.51481222065E+01  0.10532960872E+02  0.15658011629E+02  0.19641219009E+02  0.17770000000E+01 0.  1.
</event>
<event>
 6    1  0.1860328E-003  0.5004795E+03  0.7546771E-02  0.9398738E-01
        -11   -1    0    0    0    0  0.00000000000E+00  0.00000000000E+00  0.50000000000E+03  0.50000000000E+03  0.00000000000E+00 0. -1.
         11   -1    0    0    0    0 -0.00000000000E+00 -0.00000000000E+00 -0.50000000000E+03  0.50000000000E+03  0.00000000000E+00 0.  1.
        -11    1    1    2    0    0  0.30473522455E+01  0.53846349806E+01  0.22101751043E+03  0.22110409442E+03  0.00000000000E+00 0. -1.
         11    1    1    2    0    0  0.22791281045E+01 -0.73799089375E+01 -0.49946082398E+03  0.49952054229E+03  0.00000000000E+00 0.  1.
        -15    1    1    2    0    0 -0.84748716237E+00  0.48363704605E+01  0.15186900859E+02  0.16059526781E+02  0.17770000000E+01 0.  1.
         15    1    1    2    0    0 -0.44789931876E+01 -0.28410965036E+01  0.26325641268E+03  0.26331583651E+03  0.17770000000E+01 0. -1.
</event>
<event>
 6    1  0.1860328E-003  0.5072494E+03  0.7546771E-02  0.9383733E-01
        -11   -1    0    0    0    0  0.00000000000E+00  0.00000000000E+00  0.50000000000E+03  0.50000000000E+03  0.00000000000E+00 0. -1.
         11   -1    0    0    0    0 -0.00000000000E+00 -0.00000000000E+00 -0.50000000000E+03  0.50000000000E+03  0.00000000000E+00 0.  1.
        -11    1    1    2    0    0  0.55169572569E+01  0.26953832976E+01  0.37471803044E+03  0.37476833411E+03  0.00000000000E+00 0. -1.
         11    1    1    2    0    0 -0.23343003278E+01 -0.16667359871E+02 -0.49246308912E+03  0.49275059004E+03  0.00000000000E+00 0.  1.
        -15    1    1    2    0    0 -0.98352602150E+01 -0.23487131454E+01  0.11389100999E+03  0.11435282542E+03  0.17770000000E+01 0. -1.
         15    1    1    2    0    0  0.66526032860E+01  0.16320689719E+02  0.38540486854E+01  0.18128250430E+02  0.17770000000E+01 0.  1.
</event>
<event>
 6    1  0.1860328E-003  0.5006237E+03  0.7546771E-02  0.9398415E-01
        -11   -1    0    0    0    0  0.00000000000E+00  0.00000000000E+00  0.50000000000E+03  0.50000000000E+03  0.00000000000E+00 0. -1.
         11   -1    0    0    0    0 -0.00000000000E+00 -0.00000000000E+00 -0.50000000000E+03  0.50000000000E+03  0.00000000000E+00 0. -1.
        -11    1    1    2    0    0 -0.24792669995E+01 -0.79209936708E+01  0.98588826365E+02  0.98937584312E+02  0.00000000000E+00 0. -1.
         11    1    1    2    0    0  0.10411127254E+00 -0.19091159155E+02 -0.49901127413E+03  0.49937634596E+03  0.00000000000E+00 0. -1.
        -15    1    1    2    0    0  0.40140823934E+01 -0.27449019645E+00  0.63150889857E+02  0.63303876824E+02  0.17770000000E+01 0.  1.
         15    1    1    2    0    0 -0.16389266664E+01  0.27286643022E+02  0.33727155791E+03  0.33838219290E+03  0.17770000000E+01 0. -1.
</event>
<event>
 6    1  0.1860328E-003  0.5009294E+03  0.7546771E-02  0.9397733E-01
        -11   -1    0    0    0    0  0.00000000000E+00  0.00000000000E+00  0.50000000000E+03  0.50000000000E+03  0.00000000000E+00 0.  1.
         11   -1    0    0    0    0 -0.00000000000E+00 -0.00000000000E+00 -0.50000000000E+03  0.50000000000E+03  0.00000000000E+00 0. -1.
        -11    1    1    2    0    0 -0.14093633876E+02 -0.63317577526E+01  0.49883142528E+03  0.49907064882E+03  0.00000000000E+00 0.  1.
         11    1    1    2    0    0  0.41477685087E+01  0.63475858215E+01 -0.39665377289E+03  0.39672624236E+03  0.00000000000E+00 0. -1.
        -15    1    1    2    0    0  0.30328897986E+01  0.15930329292E+01 -0.89366330985E+02  0.89449622790E+02  0.17770000000E+01 0. -1.
         15    1    1    2    0    0  0.69129755685E+01 -0.16088609980E+01 -0.12811321406E+02  0.14753486032E+02  0.17770000000E+01 0.  1.
</event>
<event>
 6    1  0.1860328E-003  0.5025258E+03  0.7546771E-02  0.9394176E-01
        -11   -1    0    0    0    0  0.00000000000E+00  0.00000000000E+00  0.50000000000E+03  0.50000000000E+03  0.00000000000E+00 0.  1.
         11   -1    0    0    0    0 -0.00000000000E+00 -0.00000000000E+00 -0.50000000000E+03  0.50000000000E+03  0.00000000000E+00 0. -1.
        -11    1    1    2    0    0  0.25457780582E+01  0.93534893047E+01  0.49737976446E+03  0.49747421928E+03  0.00000000000E+00 0.  1.
         11    1    1    2    0    0  0.21604517218E+02 -0.63466198085E+01 -0.22713507542E+03  0.22824849887E+03  0.00000000000E+00 0. -1.
        -15    1    1    2    0    0 -0.10107252838E+02  0.87671066583E+01 -0.22534992187E+03  0.22575376793E+03  0.17770000000E+01 0. -1.
         15    1    1    2    0    0 -0.14043042438E+02 -0.11773976154E+02 -0.44894767173E+02  0.48523513928E+02  0.17770000000E+01 0.  1.
</event>
<event>
 6    1  0.1860328E-003  0.5054624E+03  0.7546771E-02  0.9387669E-01
        -11   -1    0    0    0    0  0.00000000000E+00  0.00000000000E+00  0.50000000000E+03  0.50000000000E+03  0.00000000000E+00 0.  1.
         11   -1    0    0    0    0 -0.00000000000E+00 -0.00000000000E+00 -0.50000000000E+03  0.50000000000E+03  0.00000000000E+00 0. -1.
        -11    1    1    2    0    0  0.74510918240E+01 -0.37093713444E+01  0.49446751964E+03  0.49453756802E+03  0.00000000000E+00 0.  1.
         11    1    1    2    0    0 -0.71252174743E+01 -0.39720309191E-01 -0.45467093547E+03  0.45472676396E+03  0.00000000000E+00 0. -1.
        -15    1    1    2    0    0 -0.34964441919E+01  0.34318174372E+01  0.41350902868E+01  0.66527583444E+01  0.17770000000E+01 0.  1.
         15    1    1    2    0    0  0.31705698422E+01  0.31727421639E+00 -0.43931674452E+02  0.44082909673E+02  0.17770000000E+01 0. -1.
</event>
<event>
 6    1  0.1860328E-003  0.5047183E+03  0.7546771E-02  0.9389314E-01
        -11   -1    0    0    0    0  0.00000000000E+00  0.00000000000E+00  0.50000000000E+03  0.50000000000E+03  0.00000000000E+00 0. -1.
         11   -1    0    0    0    0 -0.00000000000E+00 -0.00000000000E+00 -0.50000000000E+03  0.50000000000E+03  0.00000000000E+00 0.  1.
        -11    1    1    2    0    0  0.11012102996E+01 -0.70144395260E+00  0.81228476083E+02  0.81238968571E+02  0.00000000000E+00 0. -1.
         11    1    1    2    0    0  0.15000344860E+02  0.80167440400E+00 -0.49505386172E+03  0.49528171683E+03  0.00000000000E+00 0.  1.
        -15    1    1    2    0    0  0.11488913139E+01 -0.19638350374E+02  0.38107180162E+03  0.38158335980E+03  0.17770000000E+01 0. -1.
         15    1    1    2    0    0 -0.17250446473E+02  0.19538119923E+02  0.32753584017E+02  0.41895954800E+02  0.17770000000E+01 0.  1.
</event>
<event>
 6    1  0.1860328E-003  0.4855220E+03  0.7546771E-02  0.9432801E-01
        -11   -1    0    0    0    0  0.00000000000E+00  0.00000000000E+00  0.50000000000E+03  0.50000000000E+03  0.00000000000E+00 0.  1.
         11   -1    0    0    0    0 -0.00000000000E+00 -0.00000000000E+00 -0.50000000000E+03  0.50000000000E+03  0.00000000000E+00 0. -1.
        -11    1    1    2    0    0 -0.62354023641E+01  0.97070329511E+01  0.48694220733E+03  0.48707886426E+03  0.00000000000E+00 0.  1.
         11    1    1    2    0    0  0.10864188148E+02 -0.11184602719E+00 -0.48390631723E+03  0.48402827081E+03  0.00000000000E+00 0. -1.
        -15    1    1    2    0    0  0.16907171120E+00  0.91391268371E+01 -0.88857318909E+00  0.93541175907E+01  0.17770000000E+01 0. -1.
         15    1    1    2    0    0 -0.47978574947E+01 -0.18734313761E+02 -0.21473169134E+01  0.19538747339E+02  0.17770000000E+01 0.  1.
</event>
<event>
 6    1  0.1860328E-003  0.5206555E+03  0.7546771E-02  0.9354742E-01
        -11   -1    0    0    0    0  0.00000000000E+00  0.00000000000E+00  0.50000000000E+03  0.50000000000E+03  0.00000000000E+00 0.  1.
         11   -1    0    0    0    0 -0.00000000000E+00 -0.00000000000E+00 -0.50000000000E+03  0.50000000000E+03  0.00000000000E+00 0.  1.
        -11    1    1    2    0    0 -0.18623203821E+02  0.21771997304E+01  0.42364808208E+03  0.42406280357E+03  0.00000000000E+00 0.  1.
         11    1    1    2    0    0  0.61764027475E+01  0.19727279119E+01 -0.47930068868E+03  0.47934454182E+03  0.00000000000E+00 0.  1.
        -15    1    1    2    0    0  0.23491976629E+02 -0.78557590733E+01  0.72157864313E+02  0.76311866887E+02  0.17770000000E+01 0. -1.
         15    1    1    2    0    0 -0.11045175555E+02  0.37058314310E+01 -0.16505257716E+02  0.20280787729E+02  0.17770000000E+01 0.  1.
</event>
<event>
 6    1  0.1860328E-003  0.5008708E+03  0.7546771E-02  0.9397863E-01
        -11   -1    0    0    0    0  0.00000000000E+00  0.00000000000E+00  0.50000000000E+03  0.50000000000E+03  0.00000000000E+00 0.  1.
         11   -1    0    0    0    0 -0.00000000000E+00 -0.00000000000E+00 -0.50000000000E+03  0.50000000000E+03  0.00000000000E+00 0.  1.
        -11    1    1    2    0    0 -0.96651971265E+01  0.49632278849E+01  0.26228176507E+03  0.26250671221E+03  0.00000000000E+00 0.  1.
         11    1    1    2    0    0  0.98932581288E+01  0.59361039399E+01 -0.49899581181E+03  0.49912917576E+03  0.00000000000E+00 0.  1.
        -15    1    1    2    0    0  0.72939900058E+01 -0.39642068186E+01  0.20078740541E+03  0.20096680603E+03  0.17770000000E+01 0. -1.
         15    1    1    2    0    0 -0.75220510081E+01 -0.69351250062E+01  0.35926641335E+02  0.37397306010E+02  0.17770000000E+01 0.  1.
</event>
<event>
 6    1  0.1860328E-003  0.5045456E+03  0.7546771E-02  0.9389696E-01
        -11   -1    0    0    0    0  0.00000000000E+00  0.00000000000E+00  0.50000000000E+03  0.50000000000E+03  0.00000000000E+00 0.  1.
         11   -1    0    0    0    0 -0.00000000000E+00 -0.00000000000E+00 -0.50000000000E+03  0.50000000000E+03  0.00000000000E+00 0. -1.
        -11    1    1    2    0    0 -0.22041958831E+02 -0.12558595903E+02  0.49480446782E+03  0.49545436486E+03  0.00000000000E+00 0.  1.
         11    1    1    2    0    0 -0.12230083730E+02 -0.16920193049E+02 -0.32731554277E+03  0.32798068909E+03  0.00000000000E+00 0. -1.
        -15    1    1    2    0    0  0.17426707571E+01  0.80635759098E+01 -0.57942389148E+01  0.10236654308E+02  0.17770000000E+01 0.  1.
         15    1    1    2    0    0  0.32529371804E+02  0.21415213042E+02 -0.16169468614E+03  0.16632829174E+03  0.17770000000E+01 0. -1.
</event>
<event>
 6    1  0.1860328E-003  0.5010013E+03  0.7546771E-02  0.9397572E-01
        -11   -1    0    0    0    0  0.00000000000E+00  0.00000000000E+00  0.50000000000E+03  0.50000000000E+03  0.00000000000E+00 0. -1.
         11   -1    0    0    0    0 -0.00000000000E+00 -0.00000000000E+00 -0.50000000000E+03  0.50000000000E+03  0.00000000000E+00 0. -1.
        -11    1    1    2    0    0 -0.61112549166E+01 -0.43835049521E+01  0.49894204821E+03  0.49899872748E+03  0.00000000000E+00 0. -1.
         11    1    1    2    0    0  0.61802121030E+01 -0.17674972677E+01 -0.43031291102E+03  0.43036091883E+03  0.00000000000E+00 0. -1.
        -15    1    1    2    0    0  0.37654601670E+01 -0.42654728860E+00 -0.49468601037E+01  0.64799526807E+01  0.17770000000E+01 0. -1.
         15    1    1    2    0    0 -0.38344173534E+01  0.65775495084E+01 -0.63682277088E+02  0.64160401013E+02  0.17770000000E+01 0.  1.
</event>
<event>
 6    1  0.1860328E-003  0.5056211E+03  0.7546771E-02  0.9387319E-01
        -11   -1    0    0    0    0  0.00000000000E+00  0.00000000000E+00  0.50000000000E+03  0.50000000000E+03  0.00000000000E+00 0.  1.
         11   -1    0    0    0    0 -0.00000000000E+00 -0.00000000000E+00 -0.50000000000E+03  0.50000000000E+03  0.00000000000E+00 0. -1.
        -11    1    1    2    0    0  0.77407407310E+00  0.34811531223E+01  0.22270136103E+03  0.22272991227E+03  0.00000000000E+00 0.  1.
         11    1    1    2    0    0 -0.48904819582E+01 -0.97746371472E+01 -0.49425808132E+03  0.49437891470E+03  0.00000000000E+00 0. -1.
        -15    1    1    2    0    0 -0.26479089522E+02 -0.28778813406E+01  0.22394662405E+03  0.22553197675E+03  0.17770000000E+01 0.  1.
         15    1    1    2    0    0  0.30595497407E+02  0.91713653655E+01  0.47610096244E+02  0.57359196277E+02  0.17770000000E+01 0. -1.
</event>
<event>
 6    1  0.1860328E-003  0.5004884E+03  0.7546771E-02  0.9398718E-01
        -11   -1    0    0    0    0  0.00000000000E+00  0.00000000000E+00  0.50000000000E+03  0.50000000000E+03  0.00000000000E+00 0.  1.
         11   -1    0    0    0    0 -0.00000000000E+00 -0.00000000000E+00 -0.50000000000E+03  0.50000000000E+03  0.00000000000E+00 0.  1.
        -11    1    1    2    0    0  0.69636645023E+01 -0.54163109013E+01  0.49943368932E+03  0.49951160054E+03  0.00000000000E+00 0.  1.
         11    1    1    2    0    0 -0.41253845616E+01 -0.42627203242E+01 -0.26986440782E+02  0.27630735937E+02  0.00000000000E+00 0.  1.
        -15    1    1    2    0    0 -0.16504174718E+01  0.64967372011E+00 -0.97721036725E+01  0.10089484276E+02  0.17770000000E+01 0. -1.
         15    1    1    2    0    0 -0.11878624689E+01  0.90293575054E+01 -0.46267514487E+03  0.46276817924E+03  0.17770000000E+01 0.  1.
</event>
<event>
 6    1  0.1860328E-003  0.5086399E+03  0.7546771E-02  0.9380682E-01
        -11   -1    0    0    0    0  0.00000000000E+00  0.00000000000E+00  0.50000000000E+03  0.50000000000E+03  0.00000000000E+00 0.  1.
         11   -1    0    0    0    0 -0.00000000000E+00 -0.00000000000E+00 -0.50000000000E+03  0.50000000000E+03  0.00000000000E+00 0.  1.
        -11    1    1    2    0    0  0.12562060258E+02  0.86624364955E+00  0.47190834588E+03  0.47207631020E+03  0.00000000000E+00 0.  1.
         11    1    1    2    0    0  0.13897528916E+01 -0.84843659046E+01 -0.49128484239E+03  0.49136006374E+03  0.00000000000E+00 0.  1.
        -15    1    1    2    0    0  0.40178535448E+00  0.36438278119E+01 -0.59011594075E+01  0.71707966048E+01  0.17770000000E+01 0.  1.
         15    1    1    2    0    0 -0.14353598504E+02  0.39742944431E+01  0.25277655912E+02  0.29392829461E+02  0.17770000000E+01 0. -1.
</event>
<event>
 6    1  0.1860328E-003  0.5011856E+03  0.7546771E-02  0.9397161E-01
        -11   -1    0    0    0    0  0.00000000000E+00  0.00000000000E+00  0.50000000000E+03  0.50000000000E+03  0.00000000000E+00 0. -1.
         11   -1    0    0    0    0 -0.00000000000E+00 -0.00000000000E+00 -0.50000000000E+03  0.50000000000E+03  0.00000000000E+00 0.  1.
        -11    1    1    2    0    0  0.86252431964E+01 -0.23752118472E+01  0.49873416721E+03  0.49881440035E+03  0.00000000000E+00 0. -1.
         11    1    1    2    0    0  0.10462861248E+02 -0.55783723268E+01 -0.20453249715E+03  0.20487589437E+03  0.00000000000E+00 0.  1.
        -15    1    1    2    0    0 -0.12723235902E+02  0.14313264411E+02 -0.26510667499E+03  0.26580341820E+03  0.17770000000E+01 0.  1.
         15    1    1    2    0    0 -0.63648685426E+01 -0.63596802368E+01 -0.29094995073E+02  0.30506287083E+02  0.17770000000E+01 0. -1.
</event>
<event>
 6    1  0.1860328E-003  0.5514026E+03  0.7546771E-02  0.9291611E-01
        -11   -1    0    0    0    0  0.00000000000E+00  0.00000000000E+00  0.50000000000E+03  0.50000000000E+03  0.00000000000E+00 0.  1.
         11   -1    0    0    0    0 -0.00000000000E+00 -0.00000000000E+00 -0.50000000000E+03  0.50000000000E+03  0.00000000000E+00 0.  1.
        -11    1    1    2    0    0 -0.18550815424E+02 -0.16088425521E+02  0.44792484862E+03  0.44859741440E+03  0.00000000000E+00 0.  1.
         11    1    1    2    0    0  0.13452054593E+02  0.16973664805E+02 -0.42083132543E+03  0.42138826222E+03  0.00000000000E+00 0.  1.
        -15    1    1    2    0    0 -0.14965326581E+02  0.18305525890E+00  0.49014155224E+02  0.51279037142E+02  0.17770000000E+01 0. -1.
         15    1    1    2    0    0  0.20064087413E+02 -0.10682945429E+01 -0.76107678414E+02  0.78735286242E+02  0.17770000000E+01 0.  1.
</event>
<event>
 6    1  0.1860328E-003  0.5145639E+03  0.7546771E-02  0.9367799E-01
        -11   -1    0    0    0    0  0.00000000000E+00  0.00000000000E+00  0.50000000000E+03  0.50000000000E+03  0.00000000000E+00 0.  1.
         11   -1    0    0    0    0 -0.00000000000E+00 -0.00000000000E+00 -0.50000000000E+03  0.50000000000E+03  0.00000000000E+00 0. -1.
        -11    1    1    2    0    0  0.14994186439E+02 -0.39139856007E+02  0.48362327313E+03  0.48543611760E+03  0.00000000000E+00 0.  1.
         11    1    1    2    0    0 -0.79918130468E+00 -0.87298602606E+01 -0.39918413175E+03  0.39928037792E+03  0.00000000000E+00 0. -1.
        -15    1    1    2    0    0 -0.28339045827E+02  0.12035039156E+02 -0.11760149591E+02  0.33006098426E+02  0.17770000000E+01 0.  1.
         15    1    1    2    0    0  0.14144040693E+02  0.35834677112E+02 -0.72678991790E+02  0.82277406057E+02  0.17770000000E+01 0. -1.
</event>
<event>
 6    1  0.1860328E-003  0.5031815E+03  0.7546771E-02  0.9392719E-01
        -11   -1    0    0    0    0  0.00000000000E+00  0.00000000000E+00  0.50000000000E+03  0.50000000000E+03  0.00000000000E+00 0. -1.
         11   -1    0    0    0    0 -0.00000000000E+00 -0.00000000000E+00 -0.50000000000E+03  0.50000000000E+03  0.00000000000E+00 0. -1.
        -11    1    1    2    0    0 -0.17749349675E+01 -0.58389032980E+01  0.42514399928E+03  0.42518779770E+03  0.00000000000E+00 0. -1.
         11    1    1    2    0    0  0.11817294256E+02 -0.15052360716E+02 -0.49644982257E+03  0.49681852656E+03  0.00000000000E+00 0. -1.
        -15    1    1    2    0    0 -0.73169332632E+01  0.19222733522E+02  0.29376688592E+02  0.35905411264E+02  0.17770000000E+01 0.  1.
         15    1    1    2    0    0 -0.27254260252E+01  0.16685304920E+01  0.41929134698E+02  0.42088264475E+02  0.17770000000E+01 0. -1.
</event>
<event>
 6    1  0.1860328E-003  0.5018169E+03  0.7546771E-02  0.9395754E-01
        -11   -1    0    0    0    0  0.00000000000E+00  0.00000000000E+00  0.50000000000E+03  0.50000000000E+03  0.00000000000E+00 0. -1.
         11   -1    0    0    0    0 -0.00000000000E+00 -0.00000000000E+00 -0.50000000000E+03  0.50000000000E+03  0.00000000000E+00 0. -1.
        -11    1    1    2    0    0  0.46763246407E+00 -0.67129943778E+01  0.49813769666E+03  0.49818314685E+03  0.00000000000E+00 0. -1.
         11    1    1    2    0    0 -0.32932550227E+01 -0.36841436674E+01 -0.20838683214E+03  0.20844541313E+03  0.00000000000E+00 0. -1.
        -15    1    1    2    0    0  0.18823520800E+01  0.31383735669E+01 -0.58800193584E+00  0.41104882040E+01  0.17770000000E+01 0.  1.
         15    1    1    2    0    0  0.94327047856E+00  0.72587644783E+01 -0.28916286258E+03  0.28926095182E+03  0.17770000000E+01 0. -1.
</event>
<event>
 6    1  0.1860328E-003  0.5007756E+03  0.7546771E-02  0.9398076E-01
        -11   -1    0    0    0    0  0.00000000000E+00  0.00000000000E+00  0.50000000000E+03  0.50000000000E+03  0.00000000000E+00 0.  1.
         11   -1    0    0    0    0 -0.00000000000E+00 -0.00000000000E+00 -0.50000000000E+03  0.50000000000E+03  0.00000000000E+00 0.  1.
        -11    1    1    2    0    0  0.14638232657E+02 -0.40993060850E+01  0.49899293276E+03  0.49922442760E+03  0.00000000000E+00 0.  1.
         11    1    1    2    0    0  0.45490252986E+01 -0.44930156601E+01 -0.14285438182E+03  0.14299739588E+03  0.00000000000E+00 0.  1.
        -15    1    1    2    0    0 -0.96454615104E+01  0.10396246812E+02 -0.31989704749E+03  0.32021617011E+03  0.17770000000E+01 0.  1.
         15    1    1    2    0    0 -0.95417964456E+01 -0.18039250666E+01 -0.36241503444E+02  0.37562006416E+02  0.17770000000E+01 0. -1.
</event>
<event>
 6    1  0.1860328E-003  0.5008213E+03  0.7546771E-02  0.9397974E-01
        -11   -1    0    0    0    0  0.00000000000E+00  0.00000000000E+00  0.50000000000E+03  0.50000000000E+03  0.00000000000E+00 0. -1.
         11   -1    0    0    0    0 -0.00000000000E+00 -0.00000000000E+00 -0.50000000000E+03  0.50000000000E+03  0.00000000000E+00 0.  1.
        -11    1    1    2    0    0  0.39377162306E+01  0.32347254074E+01  0.34731705390E+03  0.34735443712E+03  0.00000000000E+00 0. -1.
         11    1    1    2    0    0  0.45205868669E+01  0.61342272110E+01 -0.49912054461E+03  0.49917870798E+03  0.00000000000E+00 0.  1.
        -15    1    1    2    0    0 -0.10597332970E+02 -0.10980490835E+02  0.73063021406E+02  0.74660816169E+02  0.17770000000E+01 0. -1.
         15    1    1    2    0    0  0.21390298725E+01  0.16115382169E+01  0.78740469305E+02  0.78806038725E+02  0.17770000000E+01 0.  1.
</event>
<event>
 6    1  0.1860328E-003  0.4812460E+03  0.7546771E-02  0.9442780E-01
        -11   -1    0    0    0    0  0.00000000000E+00  0.00000000000E+00  0.50000000000E+03  0.50000000000E+03  0.00000000000E+00 0.  1.
         11   -1    0    0    0    0 -0.00000000000E+00 -0.00000000000E+00 -0.50000000000E+03  0.50000000000E+03  0.00000000000E+00 0.  1.
        -11    1    1    2    0    0  0.74651855957E+01  0.89926686772E+01  0.48464754341E+03  0.48478844708E+03  0.00000000000E+00 0.  1.
         11    1    1    2    0    0 -0.88820802415E+01  0.36522083384E+01 -0.47771608273E+03  0.47781260519E+03  0.00000000000E+00 0.  1.
        -15    1    1    2    0    0 -0.33945645297E+01 -0.15981323904E+01  0.13217957962E+02  0.13854574594E+02  0.17770000000E+01 0.  1.
         15    1    1    2    0    0  0.48114591756E+01 -0.11046744625E+02 -0.20149418640E+02  0.23544373144E+02  0.17770000000E+01 0.  1.
</event>
<event>
 6    1  0.1860328E-003  0.5024400E+03  0.7546771E-02  0.9394366E-01
        -11   -1    0    0    0    0  0.00000000000E+00  0.00000000000E+00  0.50000000000E+03  0.50000000000E+03  0.00000000000E+00 0. -1.
         11   -1    0    0    0    0 -0.00000000000E+00 -0.00000000000E+00 -0.50000000000E+03  0.50000000000E+03  0.00000000000E+00 0.  1.
        -11    1    1    2    0    0  0.30369559010E+01  0.20418831688E+02  0.32798947996E+03  0.32863848033E+03  0.00000000000E+00 0. -1.
         11    1    1    2    0    0 -0.24408509686E+01  0.84722670794E+01 -0.49748186181E+03  0.49755998623E+03  0.00000000000E+00 0.  1.
        -15    1    1    2    0    0 -0.19840153144E+01 -0.25121877007E+02  0.16668563273E+03  0.16858915418E+03  0.17770000000E+01 0. -1.
         15    1    1    2    0    0  0.13879103820E+01 -0.37692217609E+01  0.28067491253E+01  0.52123792613E+01  0.17770000000E+01 0.  1.
</event>
<event>
 6    1  0.1860328E-003  0.5186209E+03  0.7546771E-02  0.9359082E-01
        -11   -1    0    0    0    0  0.00000000000E+00  0.00000000000E+00  0.50000000000E+03  0.50000000000E+03  0.00000000000E+00 0. -1.
         11   -1    0    0    0    0 -0.00000000000E+00 -0.00000000000E+00 -0.50000000000E+03  0.50000000000E+03  0.00000000000E+00 0.  1.
        -11    1    1    2    0    0  0.46654448256E+02  0.32257202283E+02  0.47802575950E+03  0.48137905167E+03  0.00000000000E+00 0. -1.
         11    1    1    2    0    0  0.14629487400E+01 -0.57082178540E+01 -0.39995218196E+03  0.39999558976E+03  0.00000000000E+00 0.  1.
        -15    1    1    2    0    0 -0.10409269545E+02 -0.45548268483E+02 -0.36197447007E+02  0.59130453686E+02  0.17770000000E+01 0.  1.
         15    1    1    2    0    0 -0.37708127452E+02  0.18999284055E+02 -0.41876130526E+02  0.59494904886E+02  0.17770000000E+01 0. -1.
</event>
<event>
 6    1  0.1860328E-003  0.5022516E+03  0.7546771E-02  0.9394786E-01
        -11   -1    0    0    0    0  0.00000000000E+00  0.00000000000E+00  0.50000000000E+03  0.50000000000E+03  0.00000000000E+00 0.  1.
         11   -1    0    0    0    0 -0.00000000000E+00 -0.00000000000E+00 -0.50000000000E+03  0.50000000000E+03  0.00000000000E+00 0. -1.
        -11    1    1    2    0    0 -0.61644547374E+01 -0.34582551079E+01  0.49769824818E+03  0.49774843674E+03  0.00000000000E+00 0.  1.
         11    1    1    2    0    0  0.17802559326E+01 -0.90909401564E+01 -0.33185096253E+03  0.33198023411E+03  0.00000000000E+00 0. -1.
        -15    1    1    2    0    0 -0.44014257529E+01  0.23337706978E+02 -0.11941862583E+03  0.12177022230E+03  0.17770000000E+01 0.  1.
         15    1    1    2    0    0  0.87856245577E+01 -0.10788511714E+02 -0.46428659822E+02  0.48501106851E+02  0.17770000000E+01 0. -1.
</event>
<event>
 6    1  0.1860328E-003  0.5072490E+03  0.7546771E-02  0.9383734E-01
        -11   -1    0    0    0    0  0.00000000000E+00  0.00000000000E+00  0.50000000000E+03  0.50000000000E+03  0.00000000000E+00 0.  1.
         11   -1    0    0    0    0 -0.00000000000E+00 -0.00000000000E+00 -0.50000000000E+03  0.50000000000E+03  0.00000000000E+00 0.  1.
        -11    1    1    2    0    0  0.16439096823E+02 -0.15034652797E+02  0.39212689303E+03  0.39275919458E+03  0.00000000000E+00 0.  1.
         11    1    1    2    0    0 -0.11844272896E+02 -0.12214578890E+02 -0.49245720598E+03  0.49275103496E+03  0.00000000000E+00 0.  1.
        -15    1    1    2    0    0 -0.16702508950E+02  0.23422986479E+02  0.97071801668E+02  0.10126056739E+03  0.17770000000E+01 0.  1.
         15    1    1    2    0    0  0.12107685022E+02  0.38262452075E+01  0.32585112822E+01  0.13229203066E+02  0.17770000000E+01 0. -1.
</event>
<event>
 6    1  0.1860328E-003  0.5037706E+03  0.7546771E-02  0.9391412E-01
        -11   -1    0    0    0    0  0.00000000000E+00  0.00000000000E+00  0.50000000000E+03  0.50000000000E+03  0.00000000000E+00 0. -1.
         11   -1    0    0    0    0 -0.00000000000E+00 -0.00000000000E+00 -0.50000000000E+03  0.50000000000E+03  0.00000000000E+00 0.  1.
        -11    1    1    2    0    0 -0.54682060904E+01  0.39362291610E+01  0.43369407466E+03  0.43374640699E+03  0.00000000000E+00 0. -1.
         11    1    1    2    0    0  0.12922119692E+02 -0.13090907367E+02 -0.49588834972E+03  0.49622939092E+03  0.00000000000E+00 0.  1.
        -15    1    1    2    0    0  0.11189061201E+01 -0.29092186723E+01 -0.20098138962E+01  0.41124913478E+01  0.17770000000E+01 0. -1.
         15    1    1    2    0    0 -0.85728197214E+01  0.12063896879E+02  0.64204088950E+02  0.65911710741E+02  0.17770000000E+01 0.  1.
</event>
<event>
 6    1  0.1860328E-003  0.5140196E+03  0.7546771E-02  0.9368975E-01
        -11   -1    0    0    0    0  0.00000000000E+00  0.00000000000E+00  0.50000000000E+03  0.50000000000E+03  0.00000000000E+00 0.  1.
         11   -1    0    0    0    0 -0.00000000000E+00 -0.00000000000E+00 -0.50000000000E+03  0.50000000000E+03  0.00000000000E+00 0.  1.
        -11    1    1    2    0    0  0.85351791980E+01 -0.29479966834E+02  0.45475714684E+03  0.45579159748E+03  0.00000000000E+00 0.  1.
         11    1    1    2    0    0 -0.17888075734E+01 -0.10320934946E+02 -0.48586750817E+03  0.48598040807E+03  0.00000000000E+00 0.  1.
        -15    1    1    2    0    0 -0.11746479275E+02  0.10422664515E+02  0.21858938081E+02  0.26973739340E+02  0.17770000000E+01 0.  1.
         15    1    1    2    0    0  0.50001076504E+01  0.29378237265E+02  0.92514232491E+01  0.31254255110E+02  0.17770000000E+01 0. -1.
</event>
<event>
 6    1  0.1860328E-003  0.4776199E+03  0.7546771E-02  0.9451328E-01
        -11   -1    0    0    0    0  0.00000000000E+00  0.00000000000E+00  0.50000000000E+03  0.50000000000E+03  0.00000000000E+00 0. -1.
         11   -1    0    0    0    0 -0.00000000000E+00 -0.00000000000E+00 -0.50000000000E+03  0.50000000000E+03  0.00000000000E+00 0.  1.
        -11    1    1    2    0    0  0.12115129990E+02  0.18631908825E+02  0.47571611263E+03  0.47623496745E+03  0.00000000000E+00 0. -1.
         11    1    1    2    0    0  0.83819025581E+01 -0.29895054643E+02 -0.47828782314E+03  0.47929449439E+03  0.00000000000E+00 0.  1.
        -15    1    1    2    0    0 -0.15731876381E+02 -0.56373829032E+01  0.15286781413E+02  0.22718174122E+02  0.17770000000E+01 0. -1.
         15    1    1    2    0    0 -0.47651561669E+01  0.16900528721E+02 -0.12715070902E+02  0.21752364041E+02  0.17770000000E+01 0.  1.
</event>
<event>
 6    1  0.1860328E-003  0.5080895E+03  0.7546771E-02  0.9381889E-01
        -11   -1    0    0    0    0  0.00000000000E+00  0.00000000000E+00  0.50000000000E+03  0.50000000000E+03  0.00000000000E+00 0.  1.
         11   -1    0    0    0    0 -0.00000000000E+00 -0.00000000000E+00 -0.50000000000E+03  0.50000000000E+03  0.00000000000E+00 0.  1.
        -11    1    1    2    0    0 -0.56184507993E+01  0.86112232634E+01  0.47979799706E+03  0.47990815594E+03  0.00000000000E+00 0.  1.
         11    1    1    2    0    0  0.78591837974E+01  0.48372918870E+00 -0.49184747640E+03  0.49191050081E+03  0.00000000000E+00 0.  1.
        -15    1    1    2    0    0 -0.75847722239E+01 -0.41004758757E+01 -0.45829177002E+01  0.99248947472E+01  0.17770000000E+01 0. -1.
         15    1    1    2    0    0  0.53440392258E+01 -0.49944765764E+01  0.16632397046E+02  0.18256448505E+02  0.17770000000E+01 0.  1.
</event>
<event>
 6    1  0.1860328E-003  0.5025987E+03  0.7546771E-02  0.9394014E-01
        -11   -1    0    0    0    0  0.00000000000E+00  0.00000000000E+00  0.50000000000E+03  0.50000000000E+03  0.00000000000E+00 0.  1.
         11   -1    0    0    0    0 -0.00000000000E+00 -0.00000000000E+00 -0.50000000000E+03  0.50000000000E+03  0.00000000000E+00 0. -1.
        -11    1    1    2    0    0  0.14925923834E+02 -0.34540426018E+01  0.49716535393E+03  0.49740134978E+03  0.00000000000E+00 0.  1.
         11    1    1    2    0    0 -0.60661697040E+01  0.18108863957E+01 -0.41144330532E+03  0.41149200627E+03  0.00000000000E+00 0. -1.
        -15    1    1    2    0    0  0.28633678149E+01  0.68133813928E+01 -0.44424906812E+01  0.88042315791E+01  0.17770000000E+01 0. -1.
         15    1    1    2    0    0 -0.11723121945E+02 -0.51702251866E+01 -0.81279557928E+02  0.82302412374E+02  0.17770000000E+01 0.  1.
</event>
<event>
 6    1  0.1860328E-003  0.5007342E+03  0.7546771E-02  0.9398168E-01
        -11   -1    0    0    0    0  0.00000000000E+00  0.00000000000E+00  0.50000000000E+03  0.50000000000E+03  0.00000000000E+00 0. -1.
         11   -1    0    0    0    0 -0.00000000000E+00 -0.00000000000E+00 -0.50000000000E+03  0.50000000000E+03  0.00000000000E+00 0.  1.
        -11    1    1    2    0    0 -0.82856844860E+01  0.36432823709E+01  0.49918374191E+03  0.49926579520E+03  0.00000000000E+00 0. -1.
         11    1    1    2    0    0 -0.62628148191E+01 -0.71079478777E+01 -0.39386326975E+03  0.39397718339E+03  0.00000000000E+00 0.  1.
        -15    1    1    2    0    0  0.10799847693E+02  0.14222331971E+01 -0.91939551894E+02  0.92599667326E+02  0.17770000000E+01 0. -1.
         15    1    1    2    0    0  0.37486516118E+01  0.20424323097E+01 -0.13380920259E+02  0.14157354082E+02  0.17770000000E+01 0.  1.
</event>
<event>
 6    1  0.1860328E-003  0.5024856E+03  0.7546771E-02  0.9394265E-01
        -11   -1    0    0    0    0  0.00000000000E+00  0.00000000000E+00  0.50000000000E+03  0.50000000000E+03  0.00000000000E+00 0. -1.
         11   -1    0    0    0    0 -0.00000000000E+00 -0.00000000000E+00 -0.50000000000E+03  0.50000000000E+03  0.00000000000E+00 0.  1.
        -11    1    1    2    0    0  0.13445826872E+02  0.71223809588E+01  0.45984478109E+03  0.46009644779E+03  0.00000000000E+00 0. -1.
         11    1    1    2    0    0 -0.91451595735E+01 -0.15115231496E+01 -0.49742801097E+03  0.49751436636E+03  0.00000000000E+00 0.  1.
        -15    1    1    2    0    0  0.60106163839E+01 -0.51559997797E+01  0.23333364287E+02  0.24704563566E+02  0.17770000000E+01 0.  1.
         15    1    1    2    0    0 -0.10311283683E+02 -0.45485802950E+00  0.14249865589E+02  0.17684622284E+02  0.17770000000E+01 0. -1.
</event>
<event>
 6    1  0.1860328E-003  0.5010991E+03  0.7546771E-02  0.9397354E-01
        -11   -1    0    0    0    0  0.00000000000E+00  0.00000000000E+00  0.50000000000E+03  0.50000000000E+03  0.00000000000E+00 0. -1.
         11   -1    0    0    0    0 -0.00000000000E+00 -0.00000000000E+00 -0.50000000000E+03  0.50000000000E+03  0.00000000000E+00 0. -1.
        -11    1    1    2    0    0 -0.78050887791E+01  0.10043507222E+02  0.27667449297E+03  0.27696672455E+03  0.00000000000E+00 0. -1.
         11    1    1    2    0    0 -0.26782431991E+01  0.76114602219E+01 -0.49883566444E+03  0.49890091945E+03  0.00000000000E+00 0. -1.
        -15    1    1    2    0    0 -0.46183673797E+01 -0.53523872227E+01  0.26126606093E+02  0.27124428864E+02  0.17770000000E+01 0.  1.
         15    1    1    2    0    0  0.15101699358E+02 -0.12302580221E+02  0.19603456537E+03  0.19700792713E+03  0.17770000000E+01 0. -1.
</event>
<event>
 6    1  0.1860328E-003  0.4672329E+03  0.7546771E-02  0.9476269E-01
        -11   -1    0    0    0    0  0.00000000000E+00  0.00000000000E+00  0.50000000000E+03  0.50000000000E+03  0.00000000000E+00 0. -1.
         11   -1    0    0    0    0 -0.00000000000E+00 -0.00000000000E+00 -0.50000000000E+03  0.50000000000E+03  0.00000000000E+00 0.  1.
        -11    1    1    2    0    0 -0.23239891095E+02 -0.90385599663E+01  0.47088018908E+03  0.47153996710E+03  0.00000000000E+00 0. -1.
         11    1    1    2    0    0  0.10528311870E+01  0.65508926574E+01 -0.46317677399E+03  0.46322429407E+03  0.00000000000E+00 0.  1.
        -15    1    1    2    0    0  0.66760652035E+01  0.46529775924E+01 -0.33765716154E+02  0.34777886127E+02  0.17770000000E+01 0. -1.
         15    1    1    2    0    0  0.15510994705E+02 -0.21653102835E+01  0.26062301067E+02  0.30457852703E+02  0.17770000000E+01 0.  1.
</event>
<event>
 6    1  0.1860328E-003  0.5055454E+03  0.7546771E-02  0.9387486E-01
        -11   -1    0    0    0    0  0.00000000000E+00  0.00000000000E+00  0.50000000000E+03  0.50000000000E+03  0.00000000000E+00 0. -1.
         11   -1    0    0    0    0 -0.00000000000E+00 -0.00000000000E+00 -0.50000000000E+03  0.50000000000E+03  0.00000000000E+00 0. -1.
        -11    1    1    2    0    0  0.77797984208E+01 -0.17434314106E+01  0.30025763037E+03  0.30036346217E+03  0.00000000000E+00 0. -1.
         11    1    1    2    0    0 -0.23116851700E+02  0.86112516818E+01 -0.49383886907E+03  0.49445461986E+03  0.00000000000E+00 0. -1.
        -15    1    1    2    0    0 -0.11195597370E+02  0.89450337256E+01  0.15526203256E+03  0.15593207339E+03  0.17770000000E+01 0.  1.
         15    1    1    2    0    0  0.26532650650E+02 -0.15812853997E+02  0.38319206149E+02  0.49249844578E+02  0.17770000000E+01 0.  1.
</event>
<event>
 6    1  0.1860328E-003  0.5058976E+03  0.7546771E-02  0.9386709E-01
        -11   -1    0    0    0    0  0.00000000000E+00  0.00000000000E+00  0.50000000000E+03  0.50000000000E+03  0.00000000000E+00 0.  1.
         11   -1    0    0    0    0 -0.00000000000E+00 -0.00000000000E+00 -0.50000000000E+03  0.50000000000E+03  0.00000000000E+00 0. -1.
        -11    1    1    2    0    0 -0.12017233860E+02 -0.20405640893E+02  0.49353461591E+03  0.49410243997E+03  0.00000000000E+00 0.  1.
         11    1    1    2    0    0  0.65395660923E+01 -0.33606517316E+01 -0.38343563356E+03  0.38350612119E+03  0.00000000000E+00 0. -1.
        -15    1    1    2    0    0  0.61692275002E+01  0.21083084434E+02 -0.13729186660E+02  0.25965440735E+02  0.17770000000E+01 0.  1.
         15    1    1    2    0    0 -0.69155973299E+00  0.26832081904E+01 -0.96369795686E+02  0.96425998105E+02  0.17770000000E+01 0. -1.
</event>
<event>
 6    1  0.1860328E-003  0.5509515E+03  0.7546771E-02  0.9292506E-01
        -11   -1    0    0    0    0  0.00000000000E+00  0.00000000000E+00  0.50000000000E+03  0.50000000000E+03  0.00000000000E+00 0.  1.
         11   -1    0    0    0    0 -0.00000000000E+00 -0.00000000000E+00 -0.50000000000E+03  0.50000000000E+03  0.00000000000E+00 0.  1.
        -11    1    1    2    0    0  0.20871055465E+02 -0.29129169564E+02  0.40368209093E+03  0.40526946593E+03  0.00000000000E+00 0.  1.
         11    1    1    2    0    0  0.10147341216E+02 -0.25831029263E+01 -0.44892640332E+03  0.44904850133E+03  0.00000000000E+00 0.  1.
        -15    1    1    2    0    0 -0.49136304611E+01  0.25641148454E+02  0.89866689788E+02  0.93599102137E+02  0.17770000000E+01 0.  1.
         15    1    1    2    0    0 -0.26104766221E+02  0.60711240363E+01 -0.44622377400E+02  0.52082930604E+02  0.17770000000E+01 0. -1.
</event>
<event>
 6    1  0.1860328E-003  0.5147016E+03  0.7546771E-02  0.9367502E-01
        -11   -1    0    0    0    0  0.00000000000E+00  0.00000000000E+00  0.50000000000E+03  0.50000000000E+03  0.00000000000E+00 0.  1.
         11   -1    0    0    0    0 -0.00000000000E+00 -0.00000000000E+00 -0.50000000000E+03  0.50000000000E+03  0.00000000000E+00 0. -1.
        -11    1    1    2    0    0  0.35692176470E+02  0.27949700504E+02  0.48317642000E+03  0.48529843402E+03  0.00000000000E+00 0.  1.
         11    1    1    2    0    0 -0.21348641260E+02 -0.13075701967E+02 -0.10992180852E+03  0.11273660654E+03  0.00000000000E+00 0. -1.
        -15    1    1    2    0    0 -0.29439043449E+02 -0.36839164277E+02 -0.26379863155E+02  0.54063261212E+02  0.17770000000E+01 0.  1.
         15    1    1    2    0    0  0.15095508239E+02  0.21965165740E+02 -0.34687474832E+03  0.34790169823E+03  0.17770000000E+01 0.  1.
</event>
<event>
 6    1  0.1860328E-003  0.5020202E+03  0.7546771E-02  0.9395301E-01
        -11   -1    0    0    0    0  0.00000000000E+00  0.00000000000E+00  0.50000000000E+03  0.50000000000E+03  0.00000000000E+00 0. -1.
         11   -1    0    0    0    0 -0.00000000000E+00 -0.00000000000E+00 -0.50000000000E+03  0.50000000000E+03  0.00000000000E+00 0. -1.
        -11    1    1    2    0    0 -0.14757120934E+01  0.80336702129E+01  0.49791276159E+03  0.49797975435E+03  0.00000000000E+00 0. -1.
         11    1    1    2    0    0  0.58022336343E+01  0.11318032452E+01 -0.42829533037E+03  0.42833612609E+03  0.00000000000E+00 0. -1.
        -15    1    1    2    0    0 -0.83055899669E+01 -0.29185832201E+01 -0.62870977006E+02  0.63509199581E+02  0.17770000000E+01 0.  1.
         15    1    1    2    0    0  0.39790684260E+01 -0.62468902380E+01 -0.67464542153E+01  0.10174919983E+02  0.17770000000E+01 0. -1.
</event>
<event>
 6    1  0.1860328E-003  0.5034708E+03  0.7546771E-02  0.9392077E-01
        -11   -1    0    0    0    0  0.00000000000E+00  0.00000000000E+00  0.50000000000E+03  0.50000000000E+03  0.00000000000E+00 0. -1.
         11   -1    0    0    0    0 -0.00000000000E+00 -0.00000000000E+00 -0.50000000000E+03  0.50000000000E+03  0.00000000000E+00 0. -1.
        -11    1    1    2    0    0 -0.94263381296E+01 -0.62274797785E+01  0.44554929915E+03  0.44569251208E+03  0.00000000000E+00 0. -1.
         11    1    1    2    0    0 -0.97484818982E+01  0.13212168451E+01 -0.49643171036E+03  0.49652917494E+03  0.00000000000E+00 0. -1.
        -15    1    1    2    0    0  0.34230989331E+01  0.95031028440E+01  0.13844860673E+02  0.17229755252E+02  0.17770000000E+01 0.  1.
         15    1    1    2    0    0  0.15751721095E+02 -0.45968399106E+01  0.37037550543E+02  0.40548557728E+02  0.17770000000E+01 0. -1.
</event>
<event>
 6    1  0.1860328E-003  0.5233105E+03  0.7546771E-02  0.9349110E-01
        -11   -1    0    0    0    0  0.00000000000E+00  0.00000000000E+00  0.50000000000E+03  0.50000000000E+03  0.00000000000E+00 0. -1.
         11   -1    0    0    0    0 -0.00000000000E+00 -0.00000000000E+00 -0.50000000000E+03  0.50000000000E+03  0.00000000000E+00 0.  1.
        -11    1    1    2    0    0 -0.74951231526E+01 -0.14929828096E+02  0.47639673048E+03  0.47668954409E+03  0.00000000000E+00 0. -1.
         11    1    1    2    0    0  0.19853006020E+01 -0.38545435291E+01 -0.23142465801E+03  0.23146527009E+03  0.00000000000E+00 0.  1.
        -15    1    1    2    0    0  0.26046634632E+02  0.47987135417E+01  0.15129522430E+02  0.30553477793E+02  0.17770000000E+01 0.  1.
         15    1    1    2    0    0 -0.20536812082E+02  0.13985658084E+02 -0.26010159490E+03  0.26129170802E+03  0.17770000000E+01 0. -1.
</event>
<event>
 6    1  0.1860328E-003  0.5020201E+03  0.7546771E-02  0.9395301E-01
        -11   -1    0    0    0    0  0.00000000000E+00  0.00000000000E+00  0.50000000000E+03  0.50000000000E+03  0.00000000000E+00 0.  1.
         11   -1    0    0    0    0 -0.00000000000E+00 -0.00000000000E+00 -0.50000000000E+03  0.50000000000E+03  0.00000000000E+00 0.  1.
        -11    1    1    2    0    0 -0.33124510105E+01  0.11537347441E+02  0.49783520698E+03  0.49797989520E+03  0.00000000000E+00 0.  1.
         11    1    1    2    0    0  0.68448467094E+01 -0.23422123755E+00 -0.43362070824E+03  0.43367479221E+03  0.00000000000E+00 0.  1.
        -15    1    1    2    0    0 -0.38554436271E+01  0.52466586200E+01 -0.18004293573E+02  0.19227693265E+02  0.17770000000E+01 0. -1.
         15    1    1    2    0    0  0.32304792820E+00 -0.16549784824E+02 -0.46210205165E+02  0.49117619324E+02  0.17770000000E+01 0.  1.
</event>
<event>
 6    1  0.1860328E-003  0.5049628E+03  0.7546771E-02  0.9388773E-01
        -11   -1    0    0    0    0  0.00000000000E+00  0.00000000000E+00  0.50000000000E+03  0.50000000000E+03  0.00000000000E+00 0.  1.
         11   -1    0    0    0    0 -0.00000000000E+00 -0.00000000000E+00 -0.50000000000E+03  0.50000000000E+03  0.00000000000E+00 0. -1.
        -11    1    1    2    0    0 -0.97275896332E+00 -0.90657071866E+01  0.44136144586E+03  0.44145561407E+03  0.00000000000E+00 0.  1.
         11    1    1    2    0    0 -0.14361027049E+02  0.25633466093E+01 -0.49482224368E+03  0.49503723364E+03  0.00000000000E+00 0. -1.
        -15    1    1    2    0    0  0.16411961239E+02  0.68463360341E+01  0.56807644317E+02  0.59552422038E+02  0.17770000000E+01 0. -1.
         15    1    1    2    0    0 -0.10781752274E+01 -0.34397545679E+00 -0.33468464888E+01  0.39547302507E+01  0.17770000000E+01 0. -1.
</event>
<event>
 6    1  0.1860328E-003  0.5268404E+03  0.7546771E-02  0.9341677E-01
        -11   -1    0    0    0    0  0.00000000000E+00  0.00000000000E+00  0.50000000000E+03  0.50000000000E+03  0.00000000000E+00 0.  1.
         11   -1    0    0    0    0 -0.00000000000E+00 -0.00000000000E+00 -0.50000000000E+03  0.50000000000E+03  0.00000000000E+00 0.  1.
        -11    1    1    2    0    0 -0.83964626177E+01  0.64894722198E+01  0.47304054049E+03  0.47315955743E+03  0.00000000000E+00 0.  1.
         11    1    1    2    0    0  0.35795602614E+01  0.11619998315E+02 -0.44369265583E+03  0.44385922368E+03  0.00000000000E+00 0.  1.
        -15    1    1    2    0    0 -0.30356289169E+01 -0.12955823949E+02 -0.54470982152E+02  0.56100927289E+02  0.17770000000E+01 0.  1.
         15    1    1    2    0    0  0.78525312732E+01 -0.51536465857E+01  0.25123097483E+02  0.26880291603E+02  0.17770000000E+01 0.  1.
</event>
<event>
 6    1  0.1860328E-003  0.5032440E+03  0.7546771E-02  0.9392580E-01
        -11   -1    0    0    0    0  0.00000000000E+00  0.00000000000E+00  0.50000000000E+03  0.50000000000E+03  0.00000000000E+00 0. -1.
         11   -1    0    0    0    0 -0.00000000000E+00 -0.00000000000E+00 -0.50000000000E+03  0.50000000000E+03  0.00000000000E+00 0.  1.
        -11    1    1    2    0    0 -0.34637764667E+01 -0.10652072305E+02  0.49662972668E+03  0.49675602645E+03  0.00000000000E+00 0. -1.
         11    1    1    2    0    0  0.94741041551E+00  0.12636970556E+02 -0.48458622793E+03  0.48475189830E+03  0.00000000000E+00 0.  1.
        -15    1    1    2    0    0  0.71083075086E-01  0.33483397834E+01 -0.11759097727E+02  0.12355182737E+02  0.17770000000E+01 0.  1.
         15    1    1    2    0    0  0.24452829761E+01 -0.53332380335E+01 -0.28440102496E+00  0.61368925116E+01  0.17770000000E+01 0. -1.
</event>
<event>
 6    1  0.1860328E-003  0.5193041E+03  0.7546771E-02  0.9357622E-01
        -11   -1    0    0    0    0  0.00000000000E+00  0.00000000000E+00  0.50000000000E+03  0.50000000000E+03  0.00000000000E+00 0. -1.
         11   -1    0    0    0    0 -0.00000000000E+00 -0.00000000000E+00 -0.50000000000E+03  0.50000000000E+03  0.00000000000E+00 0.  1.
        -11    1    1    2    0    0 -0.71546384861E+01  0.17800876090E+02  0.48031286863E+03  0.48069586208E+03  0.00000000000E+00 0. -1.
         11    1    1    2    0    0  0.95271505186E+00 -0.84779393894E+00 -0.85522435157E+02  0.85531943365E+02  0.00000000000E+00 0.  1.
        -15    1    1    2    0    0  0.20119732469E+02 -0.16947479342E+02  0.10396839492E+02  0.28342065751E+02  0.17770000000E+01 0. -1.
         15    1    1    2    0    0 -0.13917809034E+02 -0.56028092165E-02 -0.40518727297E+03  0.40543012881E+03  0.17770000000E+01 0.  1.
</event>
<event>
 6    1  0.1860328E-003  0.5061436E+03  0.7546771E-02  0.9386167E-01
        -11   -1    0    0    0    0  0.00000000000E+00  0.00000000000E+00  0.50000000000E+03  0.50000000000E+03  0.00000000000E+00 0. -1.
         11   -1    0    0    0    0 -0.00000000000E+00 -0.00000000000E+00 -0.50000000000E+03  0.50000000000E+03  0.00000000000E+00 0. -1.
        -11    1    1    2    0    0 -0.59360399502E+01  0.10028908531E+02  0.49371892226E+03  0.49385644652E+03  0.00000000000E+00 0. -1.
         11    1    1    2    0    0  0.65709412682E+01 -0.47195603374E+01 -0.40336476750E+03  0.40344589126E+03  0.00000000000E+00 0. -1.
        -15    1    1    2    0    0 -0.10023192858E+02 -0.18701749274E+02 -0.81043934806E+02  0.83794372835E+02  0.17770000000E+01 0. -1.
         15    1    1    2    0    0  0.93882915404E+01  0.13392401080E+02 -0.93102199567E+01  0.18903289380E+02  0.17770000000E+01 0.  1.
</event>
<event>
 6    1  0.1860328E-003  0.5003719E+03  0.7546771E-02  0.9398978E-01
        -11   -1    0    0    0    0  0.00000000000E+00  0.00000000000E+00  0.50000000000E+03  0.50000000000E+03  0.00000000000E+00 0. -1.
         11   -1    0    0    0    0 -0.00000000000E+00 -0.00000000000E+00 -0.50000000000E+03  0.50000000000E+03  0.00000000000E+00 0.  1.
        -11    1    1    2    0    0 -0.71319191296E+01  0.55210606351E+01  0.49954664379E+03  0.49962805736E+03  0.00000000000E+00 0. -1.
         11    1    1    2    0    0 -0.38852950973E+01 -0.34348483978E+01 -0.23900021787E+03  0.23905647417E+03  0.00000000000E+00 0.  1.
        -15    1    1    2    0    0  0.11108535928E+02 -0.62697448219E+01 -0.11878078332E+03  0.11947694960E+03  0.17770000000E+01 0.  1.
         15    1    1    2    0    0 -0.91321700944E-01  0.41835325845E+01 -0.14176564260E+03  0.14183851887E+03  0.17770000000E+01 0. -1.
</event>
<event>
 6    1  0.1860328E-003  0.5013425E+03  0.7546771E-02  0.9396811E-01
        -11   -1    0    0    0    0  0.00000000000E+00  0.00000000000E+00  0.50000000000E+03  0.50000000000E+03  0.00000000000E+00 0. -1.
         11   -1    0    0    0    0 -0.00000000000E+00 -0.00000000000E+00 -0.50000000000E+03  0.50000000000E+03  0.00000000000E+00 0.  1.
        -11    1    1    2    0    0  0.50224224594E+01 -0.29223568873E+01  0.38945761163E+03  0.38950095783E+03  0.00000000000E+00 0. -1.
         11    1    1    2    0    0  0.16073413458E+01  0.69994863578E+01 -0.49860582701E+03  0.49865754490E+03  0.00000000000E+00 0.  1.
        -15    1    1    2    0    0  0.32282463304E+01 -0.10544941369E+02  0.34959017778E+02  0.36700245447E+02  0.17770000000E+01 0.  1.
         15    1    1    2    0    0 -0.98580101355E+01  0.64678118984E+01  0.74189197605E+02  0.75141251819E+02  0.17770000000E+01 0.  1.
</event>
<event>
 6    1  0.1860328E-003  0.5327959E+03  0.7546771E-02  0.9329276E-01
        -11   -1    0    0    0    0  0.00000000000E+00  0.00000000000E+00  0.50000000000E+03  0.50000000000E+03  0.00000000000E+00 0.  1.
         11   -1    0    0    0    0 -0.00000000000E+00 -0.00000000000E+00 -0.50000000000E+03  0.50000000000E+03  0.00000000000E+00 0.  1.
        -11    1    1    2    0    0 -0.16764540850E+01  0.77241257676E+01  0.43376948856E+03  0.43384149389E+03  0.00000000000E+00 0.  1.
         11    1    1    2    0    0  0.13225792933E+02 -0.54820040799E-01 -0.46701689695E+03  0.46720413809E+03  0.00000000000E+00 0.  1.
        -15    1    1    2    0    0 -0.41399439708E+01 -0.47830071217E+01 -0.32270053949E+02  0.32932209220E+02  0.17770000000E+01 0.  1.
         15    1    1    2    0    0 -0.74093948769E+01 -0.28862986051E+01  0.65517462345E+02  0.66022158804E+02  0.17770000000E+01 0. -1.
</event>
<event>
 6    1  0.1860328E-003  0.5012721E+03  0.7546771E-02  0.9396968E-01
        -11   -1    0    0    0    0  0.00000000000E+00  0.00000000000E+00  0.50000000000E+03  0.50000000000E+03  0.00000000000E+00 0. -1.
         11   -1    0    0    0    0 -0.00000000000E+00 -0.00000000000E+00 -0.50000000000E+03  0.50000000000E+03  0.00000000000E+00 0. -1.
        -11    1    1    2    0    0 -0.29673775083E+01  0.71954553662E+01  0.35943861217E+03  0.35952287246E+03  0.00000000000E+00 0. -1.
         11    1    1    2    0    0  0.42847920475E+01 -0.71092505227E+01 -0.49865886526E+03  0.49872794667E+03  0.00000000000E+00 0. -1.
        -15    1    1    2    0    0 -0.93655052540E+01  0.96969864188E+01  0.61708028179E+02  0.63188469716E+02  0.17770000000E+01 0. -1.
         15    1    1    2    0    0  0.80480907148E+01 -0.97831912623E+01  0.77512224920E+02  0.78560711150E+02  0.17770000000E+01 0.  1.
</event>
<event>
 6    1  0.1860328E-003  0.5012236E+03  0.7546771E-02  0.9397076E-01
        -11   -1    0    0    0    0  0.00000000000E+00  0.00000000000E+00  0.50000000000E+03  0.50000000000E+03  0.00000000000E+00 0. -1.
         11   -1    0    0    0    0 -0.00000000000E+00 -0.00000000000E+00 -0.50000000000E+03  0.50000000000E+03  0.00000000000E+00 0.  1.
        -11    1    1    2    0    0  0.40941783035E+01 -0.32555892957E+01  0.30473654464E+03  0.30478143447E+03  0.00000000000E+00 0. -1.
         11    1    1    2    0    0 -0.22206942544E+01  0.10788013976E+02 -0.49865473498E+03  0.49877636015E+03  0.00000000000E+00 0.  1.
        -15    1    1    2    0    0 -0.81758820987E+00 -0.18262564365E+02  0.15267995658E+03  0.15378074190E+03  0.17770000000E+01 0. -1.
         15    1    1    2    0    0 -0.10558958392E+01  0.10730139685E+02  0.41238233762E+02  0.42661463483E+02  0.17770000000E+01 0.  1.
</event>
<event>
 6    1  0.1860328E-003  0.5010382E+03  0.7546771E-02  0.9397490E-01
        -11   -1    0    0    0    0  0.00000000000E+00  0.00000000000E+00  0.50000000000E+03  0.50000000000E+03  0.00000000000E+00 0. -1.
         11   -1    0    0    0    0 -0.00000000000E+00 -0.00000000000E+00 -0.50000000000E+03  0.50000000000E+03  0.00000000000E+00 0. -1.
        -11    1    1    2    0    0  0.35381274185E+01  0.51788851246E+01  0.39727039926E+03  0.39731990804E+03  0.00000000000E+00 0. -1.
         11    1    1    2    0    0 -0.97748314467E+01  0.41715851031E+01 -0.49884859362E+03  0.49896179093E+03  0.00000000000E+00 0. -1.
        -15    1    1    2    0    0  0.64782936612E+01 -0.29822594752E+01  0.13326087123E+02  0.15218557335E+02  0.17770000000E+01 0.  1.
         15    1    1    2    0    0 -0.24158963297E+00 -0.63682107524E+01  0.88252107236E+02  0.88499743696E+02  0.17770000000E+01 0. -1.
</event>
<event>
 6    1  0.1860328E-003  0.5090912E+03  0.7546771E-02  0.9379694E-01
        -11   -1    0    0    0    0  0.00000000000E+00  0.00000000000E+00  0.50000000000E+03  0.50000000000E+03  0.00000000000E+00 0. -1.
         11   -1    0    0    0    0 -0.00000000000E+00 -0.00000000000E+00 -0.50000000000E+03  0.50000000000E+03  0.00000000000E+00 0.  1.
        -11    1    1    2    0    0 -0.18441657788E+01 -0.10954341736E+02  0.45087692440E+03  0.45101374647E+03  0.00000000000E+00 0. -1.
         11    1    1    2    0    0 -0.90462591952E+01  0.51119246572E+01 -0.49079882055E+03  0.49090879890E+03  0.00000000000E+00 0.  1.
        -15    1    1    2    0    0  0.20254820775E+02 -0.47797997199E+00  0.44661555098E+01  0.20822836106E+02  0.17770000000E+01 0. -1.
         15    1    1    2    0    0 -0.93643958006E+01  0.63203970506E+01  0.35455740649E+02  0.37254618526E+02  0.17770000000E+01 0.  1.
</event>
<event>
 6    1  0.1860328E-003  0.5007346E+03  0.7546771E-02  0.9398168E-01
        -11   -1    0    0    0    0  0.00000000000E+00  0.00000000000E+00  0.50000000000E+03  0.50000000000E+03  0.00000000000E+00 0.  1.
         11   -1    0    0    0    0 -0.00000000000E+00 -0.00000000000E+00 -0.50000000000E+03  0.50000000000E+03  0.00000000000E+00 0.  1.
        -11    1    1    2    0    0 -0.58833465058E+01 -0.68269995214E+01  0.14793618825E+03  0.14821044998E+03  0.00000000000E+00 0.  1.
         11    1    1    2    0    0 -0.94061210875E+01  0.31076257184E+01 -0.49916714631E+03  0.49926543282E+03  0.00000000000E+00 0.  1.
        -15    1    1    2    0    0  0.19249245254E+02 -0.90782447842E+00  0.15680691652E+03  0.15799659612E+03  0.17770000000E+01 0.  1.
         15    1    1    2    0    0 -0.39597776604E+01  0.46271982814E+01  0.19442404153E+03  0.19452752108E+03  0.17770000000E+01 0. -1.
</event>
<event>
 6    1  0.1860328E-003  0.5070844E+03  0.7546771E-02  0.9384096E-01
        -11   -1    0    0    0    0  0.00000000000E+00  0.00000000000E+00  0.50000000000E+03  0.50000000000E+03  0.00000000000E+00 0. -1.
         11   -1    0    0    0    0 -0.00000000000E+00 -0.00000000000E+00 -0.50000000000E+03  0.50000000000E+03  0.00000000000E+00 0.  1.
        -11    1    1    2    0    0  0.91817881601E+01 -0.51100403783E+01  0.49280356303E+03  0.49291558048E+03  0.00000000000E+00 0. -1.
         11    1    1    2    0    0  0.40457928843E+01  0.74038491989E+01 -0.44990978616E+03  0.44998888998E+03  0.00000000000E+00 0.  1.
        -15    1    1    2    0    0 -0.64444339945E+01 -0.10288767428E+01  0.51657412813E+01  0.85106949685E+01  0.17770000000E+01 0. -1.
         15    1    1    2    0    0 -0.67831470499E+01 -0.12649320778E+01 -0.48059518147E+02  0.48584834574E+02  0.17770000000E+01 0.  1.
</event>
<event>
 6    1  0.1860328E-003  0.5134357E+03  0.7546771E-02  0.9370238E-01
        -11   -1    0    0    0    0  0.00000000000E+00  0.00000000000E+00  0.50000000000E+03  0.50000000000E+03  0.00000000000E+00 0.  1.
         11   -1    0    0    0    0 -0.00000000000E+00 -0.00000000000E+00 -0.50000000000E+03  0.50000000000E+03  0.00000000000E+00 0. -1.
        -11    1    1    2    0    0 -0.23874044291E+01  0.72037020191E+01  0.48650516108E+03  0.48656434803E+03  0.00000000000E+00 0.  1.
         11    1    1    2    0    0 -0.11395528618E+02 -0.17691104312E+00 -0.29313820841E+03  0.29335967447E+03  0.00000000000E+00 0. -1.
        -15    1    1    2    0    0  0.25022624198E+00 -0.83487499259E+01 -0.20308777852E+03  0.20326723236E+03  0.17770000000E+01 0. -1.
         15    1    1    2    0    0  0.13532706806E+02  0.13219589499E+01  0.97208258538E+01  0.16808745141E+02  0.17770000000E+01 0.  1.
</event>
<event>
 6    1  0.1860328E-003  0.4783573E+03  0.7546771E-02  0.9449583E-01
        -11   -1    0    0    0    0  0.00000000000E+00  0.00000000000E+00  0.50000000000E+03  0.50000000000E+03  0.00000000000E+00 0.  1.
         11   -1    0    0    0    0 -0.00000000000E+00 -0.00000000000E+00 -0.50000000000E+03  0.50000000000E+03  0.00000000000E+00 0.  1.
        -11    1    1    2    0    0 -0.94412518601E+01 -0.33962769876E+01  0.48284360256E+03  0.48294784032E+03  0.00000000000E+00 0.  1.
         11    1    1    2    0    0 -0.17933158250E+01 -0.75478460185E+01 -0.47387380011E+03  0.47393730007E+03  0.00000000000E+00 0.  1.
        -15    1    1    2    0    0  0.65545188322E+01  0.18074488304E+02 -0.20827570076E+02  0.28400602966E+02  0.17770000000E+01 0.  1.
         15    1    1    2    0    0  0.46800488529E+01 -0.71303652974E+01  0.11857767629E+02  0.14714256647E+02  0.17770000000E+01 0. -1.
</event>
<event>
 6    1  0.1860328E-003  0.5034601E+03  0.7546771E-02  0.9392101E-01
        -11   -1    0    0    0    0  0.00000000000E+00  0.00000000000E+00  0.50000000000E+03  0.50000000000E+03  0.00000000000E+00 0. -1.
         11   -1    0    0    0    0 -0.00000000000E+00 -0.00000000000E+00 -0.50000000000E+03  0.50000000000E+03  0.00000000000E+00 0. -1.
        -11    1    1    2    0    0  0.56892181348E+01  0.62898604088E+01  0.49646750654E+03  0.49653994260E+03  0.00000000000E+00 0. -1.
         11    1    1    2    0    0  0.18708390612E+02 -0.14355950164E+01 -0.33826668865E+03  0.33878668430E+03  0.00000000000E+00 0. -1.
        -15    1    1    2    0    0 -0.20212483169E+02  0.97990290118E+00 -0.15546563265E+03  0.15678719766E+03  0.17770000000E+01 0. -1.
         15    1    1    2    0    0 -0.41851255770E+01 -0.58341682936E+01 -0.27351852389E+01  0.78861754396E+01  0.17770000000E+01 0.  1.
</event>
<event>
 6    1  0.1860328E-003  0.5004110E+03  0.7546771E-02  0.9398891E-01
        -11   -1    0    0    0    0  0.00000000000E+00  0.00000000000E+00  0.50000000000E+03  0.50000000000E+03  0.00000000000E+00 0. -1.
         11   -1    0    0    0    0 -0.00000000000E+00 -0.00000000000E+00 -0.50000000000E+03  0.50000000000E+03  0.00000000000E+00 0. -1.
        -11    1    1    2    0    0  0.35553311810E-02 -0.32478155336E+01  0.22173026424E+03  0.22175404934E+03  0.00000000000E+00 0. -1.
         11    1    1    2    0    0  0.97231706851E+01 -0.93302600238E+00 -0.49949350448E+03  0.49958900269E+03  0.00000000000E+00 0. -1.
        -15    1    1    2    0    0 -0.39969001889E+00  0.36098495825E+01  0.22543243142E+03  0.22546868881E+03  0.17770000000E+01 0. -1.
         15    1    1    2    0    0 -0.93270359974E+01  0.57099195349E+00  0.52330808820E+02  0.53188259166E+02  0.17770000000E+01 0.  1.
</event>
<event>
 6    1  0.1860328E-003  0.5047395E+03  0.7546771E-02  0.9389267E-01
        -11   -1    0    0    0    0  0.00000000000E+00  0.00000000000E+00  0.50000000000E+03  0.50000000000E+03  0.00000000000E+00 0. -1.
         11   -1    0    0    0    0 -0.00000000000E+00 -0.00000000000E+00 -0.50000000000E+03  0.50000000000E+03  0.00000000000E+00 0. -1.
        -11    1    1    2    0    0 -0.65308295227E+01 -0.12417972131E+01  0.47804424263E+03  0.47809046393E+03  0.00000000000E+00 0. -1.
         11    1    1    2    0    0 -0.75469746256E+00  0.83082715243E+01 -0.49519024041E+03  0.49526050836E+03  0.00000000000E+00 0. -1.
        -15    1    1    2    0    0 -0.45849998964E+01 -0.68027988583E+01  0.71853112157E+01  0.11049286068E+02  0.17770000000E+01 0.  1.
         15    1    1    2    0    0  0.11870526882E+02 -0.26367545280E+00  0.99606865671E+01  0.15599741635E+02  0.17770000000E+01 0. -1.
</event>
<event>
 6    1  0.1860328E-003  0.5025312E+03  0.7546771E-02  0.9394164E-01
        -11   -1    0    0    0    0  0.00000000000E+00  0.00000000000E+00  0.50000000000E+03  0.50000000000E+03  0.00000000000E+00 0. -1.
         11   -1    0    0    0    0 -0.00000000000E+00 -0.00000000000E+00 -0.50000000000E+03  0.50000000000E+03  0.00000000000E+00 0. -1.
        -11    1    1    2    0    0 -0.11374695736E+02  0.90181235151E+00  0.37522795638E+03  0.37540140679E+03  0.00000000000E+00 0. -1.
         11    1    1    2    0    0  0.64113895460E+01 -0.50441083554E+01 -0.49740186890E+03  0.49746876096E+03  0.00000000000E+00 0. -1.
        -15    1    1    2    0    0 -0.10995148972E+02  0.11397944596E+02  0.77193566682E+02  0.78821386108E+02  0.17770000000E+01 0. -1.
         15    1    1    2    0    0  0.15958455162E+02 -0.72556485923E+01  0.44980345843E+02  0.48308446144E+02  0.17770000000E+01 0.  1.
</event>
<event>
 6    1  0.1860328E-003  0.5045620E+03  0.7546771E-02  0.9389659E-01
        -11   -1    0    0    0    0  0.00000000000E+00  0.00000000000E+00  0.50000000000E+03  0.50000000000E+03  0.00000000000E+00 0. -1.
         11   -1    0    0    0    0 -0.00000000000E+00 -0.00000000000E+00 -0.50000000000E+03  0.50000000000E+03  0.00000000000E+00 0. -1.
        -11    1    1    2    0    0 -0.99371846387E+01 -0.48509873213E-01  0.49533835172E+03  0.49543802102E+03  0.00000000000E+00 0. -1.
         11    1    1    2    0    0  0.20932996712E+01 -0.57206959173E+01 -0.39604579210E+03  0.39609263779E+03  0.00000000000E+00 0. -1.
        -15    1    1    2    0    0  0.12595528779E+02  0.26965993574E+01 -0.49076445764E+01  0.13898262395E+02  0.17770000000E+01 0.  1.
         15    1    1    2    0    0 -0.47516438114E+01  0.30726064331E+01 -0.94384915038E+02  0.94571078798E+02  0.17770000000E+01 0. -1.
</event>
<event>
 6    1  0.1860328E-003  0.5123673E+03  0.7546771E-02  0.9372554E-01
        -11   -1    0    0    0    0  0.00000000000E+00  0.00000000000E+00  0.50000000000E+03  0.50000000000E+03  0.00000000000E+00 0. -1.
         11   -1    0    0    0    0 -0.00000000000E+00 -0.00000000000E+00 -0.50000000000E+03  0.50000000000E+03  0.00000000000E+00 0.  1.
        -11    1    1    2    0    0 -0.29722407254E+02  0.54146969722E+01  0.48669595312E+03  0.48763274216E+03  0.00000000000E+00 0. -1.
         11    1    1    2    0    0 -0.14983511351E+02 -0.19279331355E+01 -0.35571869297E+03  0.35603933922E+03  0.00000000000E+00 0.  1.
        -15    1    1    2    0    0  0.36640088121E+02 -0.16825716267E+01 -0.13954237889E+03  0.14429331357E+03  0.17770000000E+01 0.  1.
         15    1    1    2    0    0  0.80658304846E+01 -0.18041922101E+01  0.85651187415E+01  0.12034605062E+02  0.17770000000E+01 0. -1.
</event>
<event>
 6    1  0.1860328E-003  0.5021883E+03  0.7546771E-02  0.9394927E-01
        -11   -1    0    0    0    0  0.00000000000E+00  0.00000000000E+00  0.50000000000E+03  0.50000000000E+03  0.00000000000E+00 0. -1.
         11   -1    0    0    0    0 -0.00000000000E+00 -0.00000000000E+00 -0.50000000000E+03  0.50000000000E+03  0.00000000000E+00 0. -1.
        -11    1    1    2    0    0 -0.10633007827E+02  0.34638182390E+01  0.49768610048E+03  0.49781172496E+03  0.00000000000E+00 0. -1.
         11    1    1    2    0    0 -0.38321411730E+01  0.61913536386E+01 -0.42178261329E+03  0.42184545872E+03  0.00000000000E+00 0. -1.
        -15    1    1    2    0    0  0.86680774222E+01 -0.57627734141E+01 -0.70627470958E+02  0.71412481448E+02  0.17770000000E+01 0.  1.
         15    1    1    2    0    0  0.57970715776E+01 -0.38923984635E+01 -0.52760162337E+01  0.89303348746E+01  0.17770000000E+01 0. -1.
</event>
<event>
 6    1  0.1860328E-003  0.5006535E+03  0.7546771E-02  0.9398349E-01
        -11   -1    0    0    0    0  0.00000000000E+00  0.00000000000E+00  0.50000000000E+03  0.50000000000E+03  0.00000000000E+00 0. -1.
         11   -1    0    0    0    0 -0.00000000000E+00 -0.00000000000E+00 -0.50000000000E+03  0.50000000000E+03  0.00000000000E+00 0. -1.
        -11    1    1    2    0    0  0.32292925422E+01 -0.40230071617E+01  0.32983554751E+03  0.32987588775E+03  0.00000000000E+00 0. -1.
         11    1    1    2    0    0 -0.27476586595E+01  0.81773088144E+01 -0.49927197053E+03  0.49934649149E+03  0.00000000000E+00 0. -1.
        -15    1    1    2    0    0  0.35173604927E+00 -0.82846502289E+01  0.27737505634E+02  0.29004932261E+02  0.17770000000E+01 0.  1.
         15    1    1    2    0    0 -0.83336993197E+00  0.41303485762E+01  0.14169891739E+03  0.14177268849E+03  0.17770000000E+01 0. -1.
</event>
<event>
 6    1  0.2826299E-003  0.5336902E+03  0.7546771E-02  0.9327428E-01
        -11   -1    0    0    0    0  0.00000000000E+00  0.00000000000E+00  0.50000000000E+03  0.50000000000E+03  0.00000000000E+00 0.  1.
         11   -1    0    0    0    0 -0.00000000000E+00 -0.00000000000E+00 -0.50000000000E+03  0.50000000000E+03  0.00000000000E+00 0.  1.
        -11    1    1    2    0    0  0.37899573755E+00 -0.14962570535E+02  0.39605553795E+03  0.39633825364E+03  0.00000000000E+00 0.  1.
         11    1    1    2    0    0 -0.25169116092E+02  0.12024061413E+02 -0.46547481890E+03  0.46630984279E+03  0.00000000000E+00 0.  1.
        -15    1    1    2    0    0  0.26328743894E+02 -0.85045310787E+01 -0.27900489203E+02  0.39333507734E+02  0.17770000000E+01 0. -1.
         15    1    1    2    0    0 -0.15386235393E+01  0.11443040201E+02  0.97319770151E+02  0.98018395838E+02  0.17770000000E+01 0. -1.
</event>
<event>
 6    1  0.1860328E-003  0.5027486E+03  0.7546771E-02  0.9393681E-01
        -11   -1    0    0    0    0  0.00000000000E+00  0.00000000000E+00  0.50000000000E+03  0.50000000000E+03  0.00000000000E+00 0.  1.
         11   -1    0    0    0    0 -0.00000000000E+00 -0.00000000000E+00 -0.50000000000E+03  0.50000000000E+03  0.00000000000E+00 0. -1.
        -11    1    1    2    0    0 -0.28823766870E+01  0.60777138857E+01  0.49720593656E+03  0.49725143544E+03  0.00000000000E+00 0.  1.
         11    1    1    2    0    0  0.66973486055E+01  0.32141808293E+01 -0.43919778346E+03  0.43926060423E+03  0.00000000000E+00 0. -1.
        -15    1    1    2    0    0 -0.46811483970E+01 -0.37749903833E+01 -0.57234190666E+02  0.57576679419E+02  0.17770000000E+01 0. -1.
         15    1    1    2    0    0  0.86617647840E+00 -0.55169043317E+01 -0.77396243923E+00  0.59112809064E+01  0.17770000000E+01 0.  1.
</event>
<event>
 6    1  0.1860328E-003  0.5109754E+03  0.7546771E-02  0.9375581E-01
        -11   -1    0    0    0    0  0.00000000000E+00  0.00000000000E+00  0.50000000000E+03  0.50000000000E+03  0.00000000000E+00 0. -1.
         11   -1    0    0    0    0 -0.00000000000E+00 -0.00000000000E+00 -0.50000000000E+03  0.50000000000E+03  0.00000000000E+00 0. -1.
        -11    1    1    2    0    0 -0.58141074231E+00  0.75131059226E+01  0.48896658190E+03  0.48902464459E+03  0.00000000000E+00 0. -1.
         11    1    1    2    0    0  0.44419444601E+01 -0.33791973076E+01 -0.35972989171E+03  0.35977318527E+03  0.00000000000E+00 0. -1.
        -15    1    1    2    0    0  0.20706228732E+02 -0.16433202865E+02 -0.11886557371E+03  0.12178251273E+03  0.17770000000E+01 0. -1.
         15    1    1    2    0    0 -0.24566762449E+02  0.12299294250E+02 -0.10371116479E+02  0.29419657413E+02  0.17770000000E+01 0.  1.
</event>
<event>
 6    1  0.1860328E-003  0.5058284E+03  0.7546771E-02  0.9386862E-01
        -11   -1    0    0    0    0  0.00000000000E+00  0.00000000000E+00  0.50000000000E+03  0.50000000000E+03  0.00000000000E+00 0.  1.
         11   -1    0    0    0    0 -0.00000000000E+00 -0.00000000000E+00 -0.50000000000E+03  0.50000000000E+03  0.00000000000E+00 0.  1.
        -11    1    1    2    0    0  0.28371701580E+01  0.74354305710E+01  0.49410752137E+03  0.49417160768E+03  0.00000000000E+00 0.  1.
         11    1    1    2    0    0 -0.40717252730E+01 -0.61667047246E+01 -0.49080810910E+03  0.49086373583E+03  0.00000000000E+00 0.  1.
        -15    1    1    2    0    0  0.27444087823E+01  0.20879034140E+01 -0.79059222115E+01  0.88063871846E+01  0.17770000000E+01 0.  1.
         15    1    1    2    0    0 -0.15098536674E+01 -0.33566292603E+01  0.46065099403E+01  0.61582693119E+01  0.17770000000E+01 0. -1.
</event>
<event>
 6    1  0.1860328E-003  0.4549003E+03  0.7546771E-02  0.9506794E-01
        -11   -1    0    0    0    0  0.00000000000E+00  0.00000000000E+00  0.50000000000E+03  0.50000000000E+03  0.00000000000E+00 0.  1.
         11   -1    0    0    0    0 -0.00000000000E+00 -0.00000000000E+00 -0.50000000000E+03  0.50000000000E+03  0.00000000000E+00 0. -1.
        -11    1    1    2    0    0 -0.18428412630E+01  0.80078040827E+01  0.46669947116E+03  0.46677180439E+03  0.00000000000E+00 0.  1.
         11    1    1    2    0    0 -0.29238301334E+02  0.94731659263E+01 -0.44297156686E+03  0.44403651672E+03  0.00000000000E+00 0. -1.
        -15    1    1    2    0    0  0.55027386624E+02 -0.68819432106E+01 -0.28715236697E+02  0.62474770657E+02  0.17770000000E+01 0. -1.
         15    1    1    2    0    0 -0.23946244027E+02 -0.10599026798E+02  0.49873323962E+01  0.26716908233E+02  0.17770000000E+01 0.  1.
</event>
<event>
 6    1  0.1860328E-003  0.5090563E+03  0.7546771E-02  0.9379770E-01
        -11   -1    0    0    0    0  0.00000000000E+00  0.00000000000E+00  0.50000000000E+03  0.50000000000E+03  0.00000000000E+00 0. -1.
         11   -1    0    0    0    0 -0.00000000000E+00 -0.00000000000E+00 -0.50000000000E+03  0.50000000000E+03  0.00000000000E+00 0.  1.
        -11    1    1    2    0    0  0.41613053308E+01  0.97320533286E+01  0.49082958148E+03  0.49094369064E+03  0.00000000000E+00 0. -1.
         11    1    1    2    0    0  0.81605027227E+00  0.73975301892E+01 -0.45724568110E+03  0.45730624561E+03  0.00000000000E+00 0.  1.
        -15    1    1    2    0    0 -0.32020947810E+01 -0.10536717654E+02  0.52157991112E+01  0.12314143059E+02  0.17770000000E+01 0. -1.
         15    1    1    2    0    0 -0.17752608220E+01 -0.65928658638E+01 -0.38799699488E+02  0.39435920689E+02  0.17770000000E+01 0. -1.
</event>
<event>
 6    1  0.1860328E-003  0.5012290E+03  0.7546771E-02  0.9397064E-01
        -11   -1    0    0    0    0  0.00000000000E+00  0.00000000000E+00  0.50000000000E+03  0.50000000000E+03  0.00000000000E+00 0. -1.
         11   -1    0    0    0    0 -0.00000000000E+00 -0.00000000000E+00 -0.50000000000E+03  0.50000000000E+03  0.00000000000E+00 0. -1.
        -11    1    1    2    0    0  0.14299536682E+01 -0.10166871684E+02  0.36264111588E+03  0.36278642336E+03  0.00000000000E+00 0. -1.
         11    1    1    2    0    0  0.92528884348E+01 -0.31574840757E+00 -0.49868505188E+03  0.49877098613E+03  0.00000000000E+00 0. -1.
        -15    1    1    2    0    0 -0.49833164200E+00 -0.21173695116E+01  0.80694147817E+02  0.80743017091E+02  0.17770000000E+01 0.  1.
         15    1    1    2    0    0 -0.10184510461E+02  0.12599989603E+02  0.55349788186E+02  0.57699573418E+02  0.17770000000E+01 0. -1.
</event>
<event>
 6    1  0.1860328E-003  0.5135980E+03  0.7546771E-02  0.9369887E-01
        -11   -1    0    0    0    0  0.00000000000E+00  0.00000000000E+00  0.50000000000E+03  0.50000000000E+03  0.00000000000E+00 0. -1.
         11   -1    0    0    0    0 -0.00000000000E+00 -0.00000000000E+00 -0.50000000000E+03  0.50000000000E+03  0.00000000000E+00 0.  1.
        -11    1    1    2    0    0 -0.86440296809E+01 -0.54085035946E+01  0.46723181889E+03  0.46734306857E+03  0.00000000000E+00 0. -1.
         11    1    1    2    0    0 -0.22264992928E+00 -0.79616895677E+01 -0.48633674507E+03  0.48640196102E+03  0.00000000000E+00 0.  1.
        -15    1    1    2    0    0  0.16749082393E+02  0.14430764795E+02 -0.32909183169E+01  0.22422457625E+02  0.17770000000E+01 0. -1.
         15    1    1    2    0    0 -0.78824027825E+01 -0.10605716325E+01  0.22395844502E+02  0.23832512788E+02  0.17770000000E+01 0.  1.
</event>
<event>
 6    1  0.1860328E-003  0.5059442E+03  0.7546771E-02  0.9386606E-01
        -11   -1    0    0    0    0  0.00000000000E+00  0.00000000000E+00  0.50000000000E+03  0.50000000000E+03  0.00000000000E+00 0. -1.
         11   -1    0    0    0    0 -0.00000000000E+00 -0.00000000000E+00 -0.50000000000E+03  0.50000000000E+03  0.00000000000E+00 0. -1.
        -11    1    1    2    0    0  0.64556551355E+01 -0.13562202360E+01  0.48113578978E+03  0.48118100858E+03  0.00000000000E+00 0. -1.
         11    1    1    2    0    0 -0.10393438499E+02  0.10465548579E+02 -0.49383559115E+03  0.49405580895E+03  0.00000000000E+00 0. -1.
        -15    1    1    2    0    0  0.46458010554E+01 -0.10266118246E+02 -0.45800168683E+00  0.11416836069E+02  0.17770000000E+01 0. -1.
         15    1    1    2    0    0 -0.70801769201E+00  0.11567899028E+01  0.13157803057E+02  0.13346346400E+02  0.17770000000E+01 0.  1.
</event>
<event>
 6    1  0.1860328E-003  0.5026067E+03  0.7546771E-02  0.9393996E-01
        -11   -1    0    0    0    0  0.00000000000E+00  0.00000000000E+00  0.50000000000E+03  0.50000000000E+03  0.00000000000E+00 0. -1.
         11   -1    0    0    0    0 -0.00000000000E+00 -0.00000000000E+00 -0.50000000000E+03  0.50000000000E+03  0.00000000000E+00 0. -1.
        -11    1    1    2    0    0 -0.88062513016E+01  0.37022473704E+01  0.49730151446E+03  0.49739325787E+03  0.00000000000E+00 0. -1.
         11    1    1    2    0    0 -0.96516840460E+01 -0.33601729407E+00 -0.46049328641E+03  0.46059454485E+03  0.00000000000E+00 0. -1.
        -15    1    1    2    0    0  0.47967391823E+00 -0.73091177428E+00 -0.41117914757E+01  0.45638664780E+01  0.17770000000E+01 0.  1.
         15    1    1    2    0    0  0.17978261429E+02 -0.26353183021E+01 -0.32696436566E+02  0.37448330800E+02  0.17770000000E+01 0. -1.
</event>
<event>
 6    1  0.1860328E-003  0.5067168E+03  0.7546771E-02  0.9384904E-01
        -11   -1    0    0    0    0  0.00000000000E+00  0.00000000000E+00  0.50000000000E+03  0.50000000000E+03  0.00000000000E+00 0.  1.
         11   -1    0    0    0    0 -0.00000000000E+00 -0.00000000000E+00 -0.50000000000E+03  0.50000000000E+03  0.00000000000E+00 0.  1.
        -11    1    1    2    0    0  0.11195012406E+02 -0.44420755640E+01  0.49313612745E+03  0.49328318493E+03  0.00000000000E+00 0.  1.
         11    1    1    2    0    0  0.60329314653E+01 -0.16902951262E+01 -0.43188059695E+03  0.43192603924E+03  0.00000000000E+00 0.  1.
        -15    1    1    2    0    0 -0.49513948039E+01  0.81280553070E+01  0.23444211372E+01  0.99617083397E+01  0.17770000000E+01 0. -1.
         15    1    1    2    0    0 -0.12276549068E+02 -0.19956846167E+01 -0.63599951639E+02  0.64829067489E+02  0.17770000000E+01 0.  1.
</event>
<event>
 6    1  0.1860328E-003  0.5058455E+03  0.7546771E-02  0.9386824E-01
        -11   -1    0    0    0    0  0.00000000000E+00  0.00000000000E+00  0.50000000000E+03  0.50000000000E+03  0.00000000000E+00 0. -1.
         11   -1    0    0    0    0 -0.00000000000E+00 -0.00000000000E+00 -0.50000000000E+03  0.50000000000E+03  0.00000000000E+00 0. -1.
        -11    1    1    2    0    0 -0.14287885880E+02 -0.19786911210E+00  0.46212933155E+03  0.46235019403E+03  0.00000000000E+00 0. -1.
         11    1    1    2    0    0  0.20900119721E+01  0.99669627976E+01 -0.49404954432E+03  0.49415449077E+03  0.00000000000E+00 0. -1.
        -15    1    1    2    0    0  0.53532136082E+01 -0.15692655374E+02  0.93619834929E+01  0.19123827874E+02  0.17770000000E+01 0.  1.
         15    1    1    2    0    0  0.68446603001E+01  0.59235616887E+01  0.22558229276E+02  0.24371487332E+02  0.17770000000E+01 0.  1.
</event>
<event>
 6    1  0.1860328E-003  0.5002056E+03  0.7546771E-02  0.9399350E-01
        -11   -1    0    0    0    0  0.00000000000E+00  0.00000000000E+00  0.50000000000E+03  0.50000000000E+03  0.00000000000E+00 0.  1.
         11   -1    0    0    0    0 -0.00000000000E+00 -0.00000000000E+00 -0.50000000000E+03  0.50000000000E+03  0.00000000000E+00 0.  1.
        -11    1    1    2    0    0  0.62507473279E+01 -0.42291510218E+01  0.49973744393E+03  0.49979442817E+03  0.00000000000E+00 0.  1.
         11    1    1    2    0    0 -0.48808440847E+00 -0.21233068493E+01 -0.24951499901E+02  0.25046436986E+02  0.00000000000E+00 0.  1.
        -15    1    1    2    0    0  0.24017084976E+01  0.81922158467E+01 -0.14481979094E+03  0.14508208084E+03  0.17770000000E+01 0. -1.
         15    1    1    2    0    0 -0.81643714170E+01 -0.18397579756E+01 -0.32996615309E+03  0.33007705401E+03  0.17770000000E+01 0.  1.
</event>
<event>
 6    1  0.1860328E-003  0.5031054E+03  0.7546771E-02  0.9392888E-01
        -11   -1    0    0    0    0  0.00000000000E+00  0.00000000000E+00  0.50000000000E+03  0.50000000000E+03  0.00000000000E+00 0.  1.
         11   -1    0    0    0    0 -0.00000000000E+00 -0.00000000000E+00 -0.50000000000E+03  0.50000000000E+03  0.00000000000E+00 0.  1.
        -11    1    1    2    0    0  0.71031467160E+01  0.54638792683E+01  0.49681375415E+03  0.49689457129E+03  0.00000000000E+00 0.  1.
         11    1    1    2    0    0 -0.10974779200E+02 -0.58239329381E+00 -0.39459628493E+03  0.39474930405E+03  0.00000000000E+00 0.  1.
        -15    1    1    2    0    0  0.20411662963E+01  0.15138897567E+02 -0.36446777093E+02  0.39558537243E+02  0.17770000000E+01 0.  1.
         15    1    1    2    0    0  0.18304661878E+01 -0.20020383542E+02 -0.65770692120E+02  0.68797587418E+02  0.17770000000E+01 0. -1.
</event>
<event>
 6    1  0.1860328E-003  0.5337663E+03  0.7546771E-02  0.9327271E-01
        -11   -1    0    0    0    0  0.00000000000E+00  0.00000000000E+00  0.50000000000E+03  0.50000000000E+03  0.00000000000E+00 0. -1.
         11   -1    0    0    0    0 -0.00000000000E+00 -0.00000000000E+00 -0.50000000000E+03  0.50000000000E+03  0.00000000000E+00 0.  1.
        -11    1    1    2    0    0  0.39844959269E+01  0.50626493229E+01  0.46618920051E+03  0.46623371531E+03  0.00000000000E+00 0. -1.
         11    1    1    2    0    0  0.39672314332E+01 -0.11824475101E+02 -0.44244632261E+03  0.44262207980E+03  0.00000000000E+00 0.  1.
        -15    1    1    2    0    0 -0.27118910683E+02 -0.76935905254E+01 -0.48807909294E+02  0.56391456715E+02  0.17770000000E+01 0. -1.
         15    1    1    2    0    0  0.19167183323E+02  0.14455416304E+02  0.25065031402E+02  0.34752748168E+02  0.17770000000E+01 0.  1.
</event>
<event>
 6    1  0.1860328E-003  0.5042000E+03  0.7546771E-02  0.9390461E-01
        -11   -1    0    0    0    0  0.00000000000E+00  0.00000000000E+00  0.50000000000E+03  0.50000000000E+03  0.00000000000E+00 0. -1.
         11   -1    0    0    0    0 -0.00000000000E+00 -0.00000000000E+00 -0.50000000000E+03  0.50000000000E+03  0.00000000000E+00 0.  1.
        -11    1    1    2    0    0 -0.29994992674E+01 -0.98862248926E+01  0.49569233247E+03  0.49579998277E+03  0.00000000000E+00 0. -1.
         11    1    1    2    0    0  0.61752622842E+01 -0.57809292562E+01 -0.47559723482E+03  0.47567245325E+03  0.00000000000E+00 0.  1.
        -15    1    1    2    0    0  0.10275087204E+01  0.47954951567E+01  0.14445084975E-01  0.52163670911E+01  0.17770000000E+01 0.  1.
         15    1    1    2    0    0 -0.42032717373E+01  0.10871658992E+02 -0.20109542739E+02  0.23311196895E+02  0.17770000000E+01 0. -1.
</event>
<event>
 6    1  0.1860328E-003  0.5007353E+03  0.7546771E-02  0.9398166E-01
        -11   -1    0    0    0    0  0.00000000000E+00  0.00000000000E+00  0.50000000000E+03  0.50000000000E+03  0.00000000000E+00 0.  1.
         11   -1    0    0    0    0 -0.00000000000E+00 -0.00000000000E+00 -0.50000000000E+03  0.50000000000E+03  0.00000000000E+00 0. -1.
        -11    1    1    2    0    0  0.24816946833E+01  0.57539634365E+01  0.46210859312E+02  0.46633790561E+02  0.00000000000E+00 0.  1.
         11    1    1    2    0    0  0.19933952348E+01  0.14729508316E+02 -0.49904339040E+03  0.49926469687E+03  0.00000000000E+00 0. -1.
        -15    1    1    2    0    0  0.10115932414E+02 -0.51866696120E+01  0.10647351843E+03  0.10709342410E+03  0.17770000000E+01 0. -1.
         15    1    1    2    0    0 -0.14591022332E+02 -0.15296802140E+02  0.34635901265E+03  0.34700808847E+03  0.17770000000E+01 0.  1.
</event>
<event>
 6    1  0.1860328E-003  0.4870395E+03  0.7546771E-02  0.9429286E-01
        -11   -1    0    0    0    0  0.00000000000E+00  0.00000000000E+00  0.50000000000E+03  0.50000000000E+03  0.00000000000E+00 0.  1.
         11   -1    0    0    0    0 -0.00000000000E+00 -0.00000000000E+00 -0.50000000000E+03  0.50000000000E+03  0.00000000000E+00 0.  1.
        -11    1    1    2    0    0  0.10254084788E+02 -0.24425941988E+01  0.48911193287E+03  0.48922550567E+03  0.00000000000E+00 0.  1.
         11    1    1    2    0    0 -0.97567274338E+01 -0.11806903942E+02 -0.48472577351E+03  0.48496770224E+03  0.00000000000E+00 0.  1.
        -15    1    1    2    0    0  0.26259554432E+01  0.12584823982E+02  0.62883449015E+01  0.14421319193E+02  0.17770000000E+01 0.  1.
         15    1    1    2    0    0 -0.31233127975E+01  0.16646741581E+01 -0.10674504258E+02  0.11385472894E+02  0.17770000000E+01 0. -1.
</event>
<event>
 6    1  0.1860328E-003  0.5004246E+03  0.7546771E-02  0.9398860E-01
        -11   -1    0    0    0    0  0.00000000000E+00  0.00000000000E+00  0.50000000000E+03  0.50000000000E+03  0.00000000000E+00 0. -1.
         11   -1    0    0    0    0 -0.00000000000E+00 -0.00000000000E+00 -0.50000000000E+03  0.50000000000E+03  0.00000000000E+00 0.  1.
        -11    1    1    2    0    0 -0.89881375465E+01 -0.17843860251E+01  0.49949132770E+03  0.49957537679E+03  0.00000000000E+00 0. -1.
         11    1    1    2    0    0  0.43271847517E+01 -0.67966025855E+01 -0.28450963293E+03  0.28462369818E+03  0.00000000000E+00 0.  1.
        -15    1    1    2    0    0  0.59666993562E+00  0.65987729139E+01 -0.19848859496E+03  0.19860709926E+03  0.17770000000E+01 0.  1.
         15    1    1    2    0    0  0.40642828592E+01  0.19822156967E+01 -0.16493099806E+02  0.17193825765E+02  0.17770000000E+01 0. -1.
</event>
<event>
 6    1  0.1860328E-003  0.5089038E+03  0.7546771E-02  0.9380104E-01
        -11   -1    0    0    0    0  0.00000000000E+00  0.00000000000E+00  0.50000000000E+03  0.50000000000E+03  0.00000000000E+00 0. -1.
         11   -1    0    0    0    0 -0.00000000000E+00 -0.00000000000E+00 -0.50000000000E+03  0.50000000000E+03  0.00000000000E+00 0.  1.
        -11    1    1    2    0    0  0.12494072131E+02 -0.26222563559E+02  0.49023639672E+03  0.49109617118E+03  0.00000000000E+00 0. -1.
         11    1    1    2    0    0  0.52638683243E+01  0.35006572467E+01 -0.38289915102E+03  0.38295133210E+03  0.00000000000E+00 0.  1.
        -15    1    1    2    0    0 -0.11371428609E+02  0.11916667273E+02  0.12625887777E+01  0.16615300386E+02  0.17770000000E+01 0.  1.
         15    1    1    2    0    0 -0.63865118460E+01  0.10805239039E+02 -0.10859983448E+03  0.10933719633E+03  0.17770000000E+01 0. -1.
</event>
<event>
 6    1  0.1860328E-003  0.5014101E+03  0.7546771E-02  0.9396660E-01
        -11   -1    0    0    0    0  0.00000000000E+00  0.00000000000E+00  0.50000000000E+03  0.50000000000E+03  0.00000000000E+00 0.  1.
         11   -1    0    0    0    0 -0.00000000000E+00 -0.00000000000E+00 -0.50000000000E+03  0.50000000000E+03  0.00000000000E+00 0.  1.
        -11    1    1    2    0    0 -0.75379529634E+01 -0.12177791915E+02  0.49838411943E+03  0.49858986136E+03  0.00000000000E+00 0.  1.
         11    1    1    2    0    0  0.67755048052E+01  0.80989355851E+01 -0.41063332040E+03  0.41076906413E+03  0.00000000000E+00 0.  1.
        -15    1    1    2    0    0  0.96839490515E+01  0.66242266659E+01 -0.32719079223E+02  0.34804527325E+02  0.17770000000E+01 0. -1.
         15    1    1    2    0    0 -0.89215008933E+01 -0.25453703363E+01 -0.55031719803E+02  0.55836547187E+02  0.17770000000E+01 0.  1.
</event>
<event>
 6    1  0.1860328E-003  0.5497734E+03  0.7546771E-02  0.9294846E-01
        -11   -1    0    0    0    0  0.00000000000E+00  0.00000000000E+00  0.50000000000E+03  0.50000000000E+03  0.00000000000E+00 0.  1.
         11   -1    0    0    0    0 -0.00000000000E+00 -0.00000000000E+00 -0.50000000000E+03  0.50000000000E+03  0.00000000000E+00 0. -1.
        -11    1    1    2    0    0 -0.48845200621E+02 -0.16839638749E+02  0.44725223975E+03  0.45022660186E+03  0.00000000000E+00 0.  1.
         11    1    1    2    0    0 -0.60824982328E+02  0.96911947720E+01 -0.21491285352E+03  0.22356460440E+03  0.00000000000E+00 0. -1.
        -15    1    1    2    0    0  0.78187718654E+02  0.21028102008E+02 -0.26599240982E+03  0.27804787400E+03  0.17770000000E+01 0. -1.
         15    1    1    2    0    0  0.31482464295E+02 -0.13879658030E+02  0.33653023592E+02  0.48160919749E+02  0.17770000000E+01 0.  1.
</event>
<event>
 6    1  0.1860328E-003  0.5003928E+03  0.7546771E-02  0.9398931E-01
        -11   -1    0    0    0    0  0.00000000000E+00  0.00000000000E+00  0.50000000000E+03  0.50000000000E+03  0.00000000000E+00 0.  1.
         11   -1    0    0    0    0 -0.00000000000E+00 -0.00000000000E+00 -0.50000000000E+03  0.50000000000E+03  0.00000000000E+00 0. -1.
        -11    1    1    2    0    0  0.50922994059E+01 -0.10908970655E+01  0.37770382277E+03  0.37773972429E+03  0.00000000000E+00 0.  1.
         11    1    1    2    0    0  0.45525517441E+00  0.79730915498E+01 -0.49954339020E+03  0.49960722187E+03  0.00000000000E+00 0. -1.
        -15    1    1    2    0    0 -0.59030639490E+01 -0.16470752461E+01  0.96700732476E+02  0.96911033486E+02  0.17770000000E+01 0. -1.
         15    1    1    2    0    0  0.35550936864E+00 -0.52351192382E+01  0.25138834953E+02  0.25742020359E+02  0.17770000000E+01 0.  1.
</event>
<event>
 6    1  0.1860328E-003  0.5086773E+03  0.7546771E-02  0.9380600E-01
        -11   -1    0    0    0    0  0.00000000000E+00  0.00000000000E+00  0.50000000000E+03  0.50000000000E+03  0.00000000000E+00 0.  1.
         11   -1    0    0    0    0 -0.00000000000E+00 -0.00000000000E+00 -0.50000000000E+03  0.50000000000E+03  0.00000000000E+00 0. -1.
        -11    1    1    2    0    0  0.47945909542E+02 -0.16790295010E+02  0.48868937086E+03  0.49132273043E+03  0.00000000000E+00 0.  1.
         11    1    1    2    0    0 -0.69363132710E+01  0.76456489599E+01 -0.17412134124E+03  0.17442709039E+03  0.00000000000E+00 0. -1.
        -15    1    1    2    0    0 -0.63938623868E+01 -0.12526321058E+02 -0.28099488923E+03  0.28135222710E+03  0.17770000000E+01 0.  1.
         15    1    1    2    0    0 -0.34615733884E+02  0.21670967108E+02 -0.33573140399E+02  0.52897952068E+02  0.17770000000E+01 0. -1.
</event>
<event>
 6    1  0.1860328E-003  0.5031438E+03  0.7546771E-02  0.9392803E-01
        -11   -1    0    0    0    0  0.00000000000E+00  0.00000000000E+00  0.50000000000E+03  0.50000000000E+03  0.00000000000E+00 0.  1.
         11   -1    0    0    0    0 -0.00000000000E+00 -0.00000000000E+00 -0.50000000000E+03  0.50000000000E+03  0.00000000000E+00 0. -1.
        -11    1    1    2    0    0  0.68162814284E+01  0.42070146137E+01  0.49679162807E+03  0.49685619890E+03  0.00000000000E+00 0.  1.
         11    1    1    2    0    0 -0.49903919688E+01 -0.10106601946E+02 -0.38614025048E+03  0.38630472487E+03  0.00000000000E+00 0. -1.
        -15    1    1    2    0    0  0.74231258059E+01  0.18217029622E+02 -0.41361761983E+02  0.45835750766E+02  0.17770000000E+01 0. -1.
         15    1    1    2    0    0 -0.92490152655E+01 -0.12317442290E+02 -0.69289615606E+02  0.71003325470E+02  0.17770000000E+01 0.  1.
</event>
<event>
 6    1  0.1860328E-003  0.5036706E+03  0.7546771E-02  0.9391634E-01
        -11   -1    0    0    0    0  0.00000000000E+00  0.00000000000E+00  0.50000000000E+03  0.50000000000E+03  0.00000000000E+00 0.  1.
         11   -1    0    0    0    0 -0.00000000000E+00 -0.00000000000E+00 -0.50000000000E+03  0.50000000000E+03  0.00000000000E+00 0.  1.
        -11    1    1    2    0    0 -0.14448777613E+02 -0.25659734475E+01  0.49611238046E+03  0.49632937193E+03  0.00000000000E+00 0.  1.
         11    1    1    2    0    0  0.17224203797E+01  0.11746335414E+02 -0.42108510158E+03  0.42125242539E+03  0.00000000000E+00 0.  1.
        -15    1    1    2    0    0  0.22557575460E+02 -0.72069221446E+01 -0.48454667899E+02  0.53961064738E+02  0.17770000000E+01 0.  1.
         15    1    1    2    0    0 -0.98312182274E+01 -0.19734398217E+01 -0.26572610981E+02  0.28457137943E+02  0.17770000000E+01 0. -1.
</event>
<event>
 6    1  0.1860328E-003  0.5006276E+03  0.7546771E-02  0.9398407E-01
        -11   -1    0    0    0    0  0.00000000000E+00  0.00000000000E+00  0.50000000000E+03  0.50000000000E+03  0.00000000000E+00 0.  1.
         11   -1    0    0    0    0 -0.00000000000E+00 -0.00000000000E+00 -0.50000000000E+03  0.50000000000E+03  0.00000000000E+00 0. -1.
        -11    1    1    2    0    0  0.23199664371E+01 -0.64881118991E+01  0.49932490192E+03  0.49937244169E+03  0.00000000000E+00 0.  1.
         11    1    1    2    0    0  0.51421133068E+01  0.50496452554E+01 -0.39820746516E+03  0.39827267739E+03  0.00000000000E+00 0. -1.
        -15    1    1    2    0    0  0.44777317770E+00  0.47046809225E+01 -0.15710341816E+02  0.16501729981E+02  0.17770000000E+01 0.  1.
         15    1    1    2    0    0 -0.79098529216E+01 -0.32662142788E+01 -0.85407094945E+02  0.85853150931E+02  0.17770000000E+01 0. -1.
</event>
<event>
 6    1  0.1860328E-003  0.5086533E+03  0.7546771E-02  0.9380653E-01
        -11   -1    0    0    0    0  0.00000000000E+00  0.00000000000E+00  0.50000000000E+03  0.50000000000E+03  0.00000000000E+00 0.  1.
         11   -1    0    0    0    0 -0.00000000000E+00 -0.00000000000E+00 -0.50000000000E+03  0.50000000000E+03  0.00000000000E+00 0.  1.
        -11    1    1    2    0    0  0.83762631490E+01 -0.18255497588E+02  0.49093601496E+03  0.49134671644E+03  0.00000000000E+00 0.  1.
         11    1    1    2    0    0  0.33188422453E+01  0.73924621897E+01 -0.46310109407E+03  0.46317198376E+03  0.00000000000E+00 0.  1.
        -15    1    1    2    0    0 -0.16236261970E+02  0.19520014754E+02 -0.16151554400E+02  0.30144280009E+02  0.17770000000E+01 0.  1.
         15    1    1    2    0    0  0.45411565753E+01 -0.86569793562E+01 -0.11683366486E+02  0.15337019790E+02  0.17770000000E+01 0. -1.
</event>
<event>
 6    1  0.1860328E-003  0.5007315E+03  0.7546771E-02  0.9398174E-01
        -11   -1    0    0    0    0  0.00000000000E+00  0.00000000000E+00  0.50000000000E+03  0.50000000000E+03  0.00000000000E+00 0.  1.
         11   -1    0    0    0    0 -0.00000000000E+00 -0.00000000000E+00 -0.50000000000E+03  0.50000000000E+03  0.00000000000E+00 0. -1.
        -11    1    1    2    0    0  0.36902461260E+00 -0.71277554298E+01  0.32825374969E+03  0.32833133457E+03  0.00000000000E+00 0.  1.
         11    1    1    2    0    0 -0.63983472050E+01 -0.43891385092E+01 -0.49920821253E+03  0.49926850776E+03  0.00000000000E+00 0. -1.
        -15    1    1    2    0    0  0.70820767510E+01  0.10846659400E+02  0.16891760885E+03  0.16942290913E+03  0.17770000000E+01 0.  1.
         15    1    1    2    0    0 -0.10527541586E+01  0.67023453924E+00  0.20368539959E+01  0.29772485379E+01  0.17770000000E+01 0. -1.
</event>
<event>
 6    1  0.1860328E-003  0.5015067E+03  0.7546771E-02  0.9396445E-01
        -11   -1    0    0    0    0  0.00000000000E+00  0.00000000000E+00  0.50000000000E+03  0.50000000000E+03  0.00000000000E+00 0.  1.
         11   -1    0    0    0    0 -0.00000000000E+00 -0.00000000000E+00 -0.50000000000E+03  0.50000000000E+03  0.00000000000E+00 0. -1.
        -11    1    1    2    0    0  0.11516734655E+01 -0.74844764578E+01  0.39360976849E+03  0.39368260514E+03  0.00000000000E+00 0.  1.
         11    1    1    2    0    0  0.78177593350E+01 -0.96001210843E+01 -0.49833958274E+03  0.49849334942E+03  0.00000000000E+00 0. -1.
        -15    1    1    2    0    0 -0.24101270117E+01  0.25219839102E+01  0.62772349755E+02  0.62894314034E+02  0.17770000000E+01 0.  1.
         15    1    1    2    0    0 -0.65593057888E+01  0.14562613632E+02  0.41957464500E+02  0.44929731409E+02  0.17770000000E+01 0. -1.
</event>
<event>
 6    1  0.2302609E-003  0.5123590E+03  0.7546771E-02  0.9372572E-01
        -11   -1    0    0    0    0  0.00000000000E+00  0.00000000000E+00  0.50000000000E+03  0.50000000000E+03  0.00000000000E+00 0.  1.
         11   -1    0    0    0    0 -0.00000000000E+00 -0.00000000000E+00 -0.50000000000E+03  0.50000000000E+03  0.00000000000E+00 0. -1.
        -11    1    1    2    0    0 -0.11161040891E+02 -0.79032145308E+01  0.48744918137E+03  0.48764098889E+03  0.00000000000E+00 0.  1.
         11    1    1    2    0    0  0.39514775639E+01  0.46856244410E+01 -0.42607498932E+03  0.42611907464E+03  0.00000000000E+00 0. -1.
        -15    1    1    2    0    0 -0.32861306918E+01 -0.27525639851E+01 -0.70717303481E+02  0.70869386931E+02  0.17770000000E+01 0. -1.
         15    1    1    2    0    0  0.10495694019E+02  0.59701540749E+01  0.93431114356E+01  0.15370549532E+02  0.17770000000E+01 0.  1.
</event>
<event>
 6    1  0.1860328E-003  0.5049240E+03  0.7546771E-02  0.9388859E-01
        -11   -1    0    0    0    0  0.00000000000E+00  0.00000000000E+00  0.50000000000E+03  0.50000000000E+03  0.00000000000E+00 0.  1.
         11   -1    0    0    0    0 -0.00000000000E+00 -0.00000000000E+00 -0.50000000000E+03  0.50000000000E+03  0.00000000000E+00 0.  1.
        -11    1    1    2    0    0  0.30701956733E+01 -0.58007214295E+01  0.47771889368E+03  0.47776397504E+03  0.00000000000E+00 0.  1.
         11    1    1    2    0    0 -0.25785187531E+01 -0.69974243292E+01 -0.49501982171E+03  0.49507599073E+03  0.00000000000E+00 0.  1.
        -15    1    1    2    0    0 -0.37819510674E+01  0.14133332745E+02  0.17853813291E+02  0.23151039423E+02  0.17770000000E+01 0.  1.
         15    1    1    2    0    0  0.32902741472E+01 -0.13351869867E+01 -0.55288525883E+00  0.40089948070E+01  0.17770000000E+01 0. -1.
</event>
<event>
 6    1  0.1860328E-003  0.3026471E+03  0.7546771E-02  0.9997901E-01
        -11   -1    0    0    0    0  0.00000000000E+00  0.00000000000E+00  0.50000000000E+03  0.50000000000E+03  0.00000000000E+00 0. -1.
         11   -1    0    0    0    0 -0.00000000000E+00 -0.00000000000E+00 -0.50000000000E+03  0.50000000000E+03  0.00000000000E+00 0.  1.
        -11    1    1    2    0    0  0.12818116037E+02 -0.19157056627E+02  0.97638112430E+02  0.10032197125E+03  0.00000000000E+00 0. -1.
         11    1    1    2    0    0  0.20219959296E+02 -0.23005159990E+01 -0.27434420347E+03  0.27509794820E+03  0.00000000000E+00 0.  1.
        -15    1    1    2    0    0 -0.14772173581E+03 -0.17763040051E+03  0.28805198915E+03  0.36925787277E+03  0.17770000000E+01 0. -1.
         15    1    1    2    0    0  0.11468366048E+03  0.19908797313E+03 -0.11134589811E+03  0.25532220778E+03  0.17770000000E+01 0.  1.
</event>
<event>
 6    1  0.1860328E-003  0.5058557E+03  0.7546771E-02  0.9386802E-01
        -11   -1    0    0    0    0  0.00000000000E+00  0.00000000000E+00  0.50000000000E+03  0.50000000000E+03  0.00000000000E+00 0.  1.
         11   -1    0    0    0    0 -0.00000000000E+00 -0.00000000000E+00 -0.50000000000E+03  0.50000000000E+03  0.00000000000E+00 0. -1.
        -11    1    1    2    0    0 -0.10945083681E+02  0.65475656892E+00  0.40787505104E+03  0.40802240235E+03  0.00000000000E+00 0.  1.
         11    1    1    2    0    0  0.21785911840E+02 -0.26825086599E+02 -0.49293441433E+03  0.49414425835E+03  0.00000000000E+00 0. -1.
        -15    1    1    2    0    0  0.43291476537E+01 -0.41710612109E+01  0.44450242559E+02  0.44890099840E+02  0.17770000000E+01 0. -1.
         15    1    1    2    0    0 -0.15169975812E+02  0.30341391241E+02  0.40609120734E+02  0.52943239458E+02  0.17770000000E+01 0.  1.
</event>
<event>
 6    1  0.1860328E-003  0.5015478E+03  0.7546771E-02  0.9396353E-01
        -11   -1    0    0    0    0  0.00000000000E+00  0.00000000000E+00  0.50000000000E+03  0.50000000000E+03  0.00000000000E+00 0. -1.
         11   -1    0    0    0    0 -0.00000000000E+00 -0.00000000000E+00 -0.50000000000E+03  0.50000000000E+03  0.00000000000E+00 0.  1.
        -11    1    1    2    0    0  0.11089219461E+02 -0.52601575038E+01  0.49830107182E+03  0.49845220255E+03  0.00000000000E+00 0. -1.
         11    1    1    2    0    0  0.44388649522E+01 -0.18966203601E+01 -0.31469279780E+03  0.31472981695E+03  0.00000000000E+00 0.  1.
        -15    1    1    2    0    0 -0.20632979964E+02 -0.28093394618E+01 -0.83752375274E+02  0.86320509402E+02  0.17770000000E+01 0. -1.
         15    1    1    2    0    0  0.51048955513E+01  0.99661173258E+01 -0.99855898748E+02  0.10049747110E+03  0.17770000000E+01 0.  1.
</event>
<event>
 6    1  0.1860328E-003  0.5126232E+03  0.7546771E-02  0.9371999E-01
        -11   -1    0    0    0    0  0.00000000000E+00  0.00000000000E+00  0.50000000000E+03  0.50000000000E+03  0.00000000000E+00 0. -1.
         11   -1    0    0    0    0 -0.00000000000E+00 -0.00000000000E+00 -0.50000000000E+03  0.50000000000E+03  0.00000000000E+00 0. -1.
        -11    1    1    2    0    0 -0.11048995587E+01  0.18191091503E+02  0.48703589422E+03  0.48737675249E+03  0.00000000000E+00 0. -1.
         11    1    1    2    0    0 -0.37521778329E+01  0.69857542119E+01 -0.30556244398E+03  0.30566531824E+03  0.00000000000E+00 0. -1.
        -15    1    1    2    0    0  0.47011822558E+01 -0.12330127074E+02 -0.19062174278E+03  0.19108621012E+03  0.17770000000E+01 0. -1.
         15    1    1    2    0    0  0.15589513579E+00 -0.12846718641E+02  0.91482925520E+01  0.15871719149E+02  0.17770000000E+01 0.  1.
</event>
<event>
 6    1  0.1860328E-003  0.5074708E+03  0.7546771E-02  0.9383247E-01
        -11   -1    0    0    0    0  0.00000000000E+00  0.00000000000E+00  0.50000000000E+03  0.50000000000E+03  0.00000000000E+00 0. -1.
         11   -1    0    0    0    0 -0.00000000000E+00 -0.00000000000E+00 -0.50000000000E+03  0.50000000000E+03  0.00000000000E+00 0.  1.
        -11    1    1    2    0    0 -0.74459010713E+01 -0.10798969524E+02  0.43341028357E+03  0.43360873272E+03  0.00000000000E+00 0. -1.
         11    1    1    2    0    0 -0.26977781202E+02  0.45572510346E+01 -0.49176867633E+03  0.49252918719E+03  0.00000000000E+00 0.  1.
        -15    1    1    2    0    0  0.10312510478E+02 -0.14307749286E+01  0.36935902568E+00  0.10568308490E+02  0.17770000000E+01 0.  1.
         15    1    1    2    0    0  0.24111171796E+02  0.76724934177E+01  0.57989033734E+02  0.63293771598E+02  0.17770000000E+01 0. -1.
</event>
<event>
 6    1  0.1860328E-003  0.5023231E+03  0.7546771E-02  0.9394627E-01
        -11   -1    0    0    0    0  0.00000000000E+00  0.00000000000E+00  0.50000000000E+03  0.50000000000E+03  0.00000000000E+00 0.  1.
         11   -1    0    0    0    0 -0.00000000000E+00 -0.00000000000E+00 -0.50000000000E+03  0.50000000000E+03  0.00000000000E+00 0. -1.
        -11    1    1    2    0    0  0.66412522225E+01  0.60086950679E+01  0.47844252642E+03  0.47852634383E+03  0.00000000000E+00 0.  1.
         11    1    1    2    0    0 -0.72453222352E+01  0.17111665009E+01 -0.49762120745E+03  0.49767689206E+03  0.00000000000E+00 0. -1.
        -15    1    1    2    0    0  0.45550711483E+01 -0.82396327012E+01  0.14677393764E+02  0.17527801828E+02  0.17770000000E+01 0.  1.
         15    1    1    2    0    0 -0.39510011356E+01  0.51977113239E+00  0.45012872681E+01  0.62689622805E+01  0.17770000000E+01 0. -1.
</event>
<event>
 6    1  0.1860328E-003  0.5119483E+03  0.7546771E-02  0.9373464E-01
        -11   -1    0    0    0    0  0.00000000000E+00  0.00000000000E+00  0.50000000000E+03  0.50000000000E+03  0.00000000000E+00 0.  1.
         11   -1    0    0    0    0 -0.00000000000E+00 -0.00000000000E+00 -0.50000000000E+03  0.50000000000E+03  0.00000000000E+00 0.  1.
        -11    1    1    2    0    0  0.63627194960E+01  0.17122948247E+01  0.48800725337E+03  0.48805173444E+03  0.00000000000E+00 0.  1.
         11    1    1    2    0    0  0.91452381636E+01  0.16882013702E+02 -0.37595218245E+03  0.37644213534E+03  0.00000000000E+00 0.  1.
        -15    1    1    2    0    0 -0.11513396634E+02 -0.84605470018E+01 -0.12065716031E+03  0.12151315657E+03  0.17770000000E+01 0.  1.
         15    1    1    2    0    0 -0.39945610257E+01 -0.10133761525E+02  0.86020893942E+01  0.13992973643E+02  0.17770000000E+01 0. -1.
</event>
<event>
 6    1  0.1860328E-003  0.5056055E+03  0.7546771E-02  0.9387354E-01
        -11   -1    0    0    0    0  0.00000000000E+00  0.00000000000E+00  0.50000000000E+03  0.50000000000E+03  0.00000000000E+00 0. -1.
         11   -1    0    0    0    0 -0.00000000000E+00 -0.00000000000E+00 -0.50000000000E+03  0.50000000000E+03  0.00000000000E+00 0.  1.
        -11    1    1    2    0    0 -0.73273157635E+01  0.13895710833E+01  0.40985311250E+03  0.40992096103E+03  0.00000000000E+00 0. -1.
         11    1    1    2    0    0 -0.14212905231E+02  0.43676420337E+01 -0.49417089062E+03  0.49439453083E+03  0.00000000000E+00 0.  1.
        -15    1    1    2    0    0 -0.92755220982E+01  0.51776062831E+01  0.11044121211E+02  0.15426381926E+02  0.17770000000E+01 0. -1.
         15    1    1    2    0    0  0.30815743093E+02 -0.10934819400E+02  0.73273656916E+02  0.80258126221E+02  0.17770000000E+01 0.  1.
</event>
<event>
 6    1  0.1860328E-003  0.5001612E+03  0.7546771E-02  0.9399449E-01
        -11   -1    0    0    0    0  0.00000000000E+00  0.00000000000E+00  0.50000000000E+03  0.50000000000E+03  0.00000000000E+00 0. -1.
         11   -1    0    0    0    0 -0.00000000000E+00 -0.00000000000E+00 -0.50000000000E+03  0.50000000000E+03  0.00000000000E+00 0. -1.
        -11    1    1    2    0    0 -0.28956965529E+01 -0.16988512560E+01  0.22369103386E+03  0.22371622602E+03  0.00000000000E+00 0. -1.
         11    1    1    2    0    0 -0.91207399432E-02 -0.91473299387E+01 -0.49975513604E+03  0.49983884376E+03  0.00000000000E+00 0. -1.
        -15    1    1    2    0    0  0.49290707012E+01  0.89386020339E+01  0.16072788281E+03  0.16106149256E+03  0.17770000000E+01 0. -1.
         15    1    1    2    0    0 -0.20242534084E+01  0.19075791607E+01  0.11533621937E+03  0.11538343766E+03  0.17770000000E+01 0. -1.
</event>
<event>
 6    1  0.1860328E-003  0.4859937E+03  0.7546771E-02  0.9431707E-01
        -11   -1    0    0    0    0  0.00000000000E+00  0.00000000000E+00  0.50000000000E+03  0.50000000000E+03  0.00000000000E+00 0.  1.
         11   -1    0    0    0    0 -0.00000000000E+00 -0.00000000000E+00 -0.50000000000E+03  0.50000000000E+03  0.00000000000E+00 0.  1.
        -11    1    1    2    0    0 -0.15077546775E+02 -0.12582192807E+02  0.48131062056E+03  0.48171107259E+03  0.00000000000E+00 0.  1.
         11    1    1    2    0    0 -0.51635178775E+01  0.42758879928E+01 -0.49052024999E+03  0.49056606159E+03  0.00000000000E+00 0.  1.
        -15    1    1    2    0    0  0.29470401581E+01 -0.71520622018E+00 -0.30181581805E+01  0.46328796049E+01  0.17770000000E+01 0. -1.
         15    1    1    2    0    0  0.17294024495E+02  0.90215110347E+01  0.12227787615E+02  0.23089986218E+02  0.17770000000E+01 0.  1.
</event>
<event>
 6    1  0.1860328E-003  0.5007974E+03  0.7546771E-02  0.9398027E-01
        -11   -1    0    0    0    0  0.00000000000E+00  0.00000000000E+00  0.50000000000E+03  0.50000000000E+03  0.00000000000E+00 0. -1.
         11   -1    0    0    0    0 -0.00000000000E+00 -0.00000000000E+00 -0.50000000000E+03  0.50000000000E+03  0.00000000000E+00 0.  1.
        -11    1    1    2    0    0 -0.13303697333E+02 -0.28306017966E+01  0.49901722405E+03  0.49920255465E+03  0.00000000000E+00 0. -1.
         11    1    1    2    0    0 -0.58063985040E+01 -0.89113024662E+00 -0.32540977212E+03  0.32546279076E+03  0.00000000000E+00 0.  1.
        -15    1    1    2    0    0  0.86186769149E+01 -0.32974730273E+01 -0.11360722082E+03  0.11399523354E+03  0.17770000000E+01 0. -1.
         15    1    1    2    0    0  0.10491418922E+02  0.70192050705E+01 -0.60000231119E+02  0.61339421045E+02  0.17770000000E+01 0.  1.
</event>
<event>
 6    1  0.1860328E-003  0.5001973E+03  0.7546771E-02  0.9399368E-01
        -11   -1    0    0    0    0  0.00000000000E+00  0.00000000000E+00  0.50000000000E+03  0.50000000000E+03  0.00000000000E+00 0.  1.
         11   -1    0    0    0    0 -0.00000000000E+00 -0.00000000000E+00 -0.50000000000E+03  0.50000000000E+03  0.00000000000E+00 0.  1.
        -11    1    1    2    0    0 -0.54218751642E+01 -0.90181393795E+01  0.49969189329E+03  0.49980267285E+03  0.00000000000E+00 0.  1.
         11    1    1    2    0    0  0.16798163780E+01 -0.51177515027E+01 -0.12194604674E+03  0.12206494779E+03  0.00000000000E+00 0.  1.
        -15    1    1    2    0    0  0.27517614849E+01  0.60779122952E+01 -0.89177608446E+02  0.89444489971E+02  0.17770000000E+01 0. -1.
         15    1    1    2    0    0  0.99029730132E+00  0.80579785870E+01 -0.28856823810E+03  0.28868788939E+03  0.17770000000E+01 0.  1.
</event>
<event>
 6    1  0.1860328E-003  0.5006265E+03  0.7546771E-02  0.9398409E-01
        -11   -1    0    0    0    0  0.00000000000E+00  0.00000000000E+00  0.50000000000E+03  0.50000000000E+03  0.00000000000E+00 0.  1.
         11   -1    0    0    0    0 -0.00000000000E+00 -0.00000000000E+00 -0.50000000000E+03  0.50000000000E+03  0.00000000000E+00 0. -1.
        -11    1    1    2    0    0  0.65309841447E+01  0.13662620754E+02  0.49914383393E+03  0.49937349540E+03  0.00000000000E+00 0.  1.
         11    1    1    2    0    0 -0.57487921249E+01 -0.33889086472E+01 -0.29555117929E+03  0.29562650912E+03  0.00000000000E+00 0. -1.
        -15    1    1    2    0    0  0.24895494830E+01 -0.25643248322E+01 -0.59073185885E+01  0.71293590441E+01  0.17770000000E+01 0. -1.
         15    1    1    2    0    0 -0.32717415028E+01 -0.77093872750E+01 -0.19768533605E+03  0.19787063643E+03  0.17770000000E+01 0.  1.
</event>
<event>
 6    1  0.1860328E-003  0.4875628E+03  0.7546771E-02  0.9428077E-01
        -11   -1    0    0    0    0  0.00000000000E+00  0.00000000000E+00  0.50000000000E+03  0.50000000000E+03  0.00000000000E+00 0.  1.
         11   -1    0    0    0    0 -0.00000000000E+00 -0.00000000000E+00 -0.50000000000E+03  0.50000000000E+03  0.00000000000E+00 0. -1.
        -11    1    1    2    0    0  0.38483607811E+01  0.98148207140E+00  0.49866702368E+02  0.50024605874E+02  0.00000000000E+00 0.  1.
         11    1    1    2    0    0  0.91356721833E+01 -0.37434695426E+01 -0.48582352246E+03  0.48592383050E+03  0.00000000000E+00 0. -1.
        -15    1    1    2    0    0 -0.61985862098E+02 -0.32908301827E+02  0.97142641020E+02  0.11985430265E+03  0.17770000000E+01 0. -1.
         15    1    1    2    0    0  0.49001829134E+02  0.35670289299E+02  0.33881417907E+03  0.34419726098E+03  0.17770000000E+01 0.  1.
</event>
<event>
 6    1  0.1860328E-003  0.5033312E+03  0.7546771E-02  0.9392387E-01
        -11   -1    0    0    0    0  0.00000000000E+00  0.00000000000E+00  0.50000000000E+03  0.50000000000E+03  0.00000000000E+00 0.  1.
         11   -1    0    0    0    0 -0.00000000000E+00 -0.00000000000E+00 -0.50000000000E+03  0.50000000000E+03  0.00000000000E+00 0. -1.
        -11    1    1    2    0    0  0.33411151156E+01 -0.86781056290E+01  0.28149547689E+03  0.28164902996E+03  0.00000000000E+00 0.  1.
         11    1    1    2    0    0 -0.15888350435E+02  0.73806551976E+01 -0.49635970146E+03  0.49666876989E+03  0.00000000000E+00 0. -1.
        -15    1    1    2    0    0 -0.84549295389E+01 -0.16295903782E+02  0.15159388195E+03  0.15271183676E+03  0.17770000000E+01 0.  1.
         15    1    1    2    0    0  0.21002164858E+02  0.17593354213E+02  0.63270342628E+02  0.68970363392E+02  0.17770000000E+01 0. -1.
</event>
<event>
 6    1  0.1860328E-003  0.5003407E+03  0.7546771E-02  0.9399048E-01
        -11   -1    0    0    0    0  0.00000000000E+00  0.00000000000E+00  0.50000000000E+03  0.50000000000E+03  0.00000000000E+00 0.  1.
         11   -1    0    0    0    0 -0.00000000000E+00 -0.00000000000E+00 -0.50000000000E+03  0.50000000000E+03  0.00000000000E+00 0.  1.
        -11    1    1    2    0    0  0.10675935157E+01 -0.55149143008E+01  0.29145805924E+03  0.29151218557E+03  0.00000000000E+00 0.  1.
         11    1    1    2    0    0 -0.81199166286E+01  0.80852891130E+01 -0.49952784545E+03  0.49965925723E+03  0.00000000000E+00 0.  1.
        -15    1    1    2    0    0  0.24100477147E+01  0.47175341820E+01  0.14889669206E+03  0.14900149696E+03  0.17770000000E+01 0.  1.
         15    1    1    2    0    0  0.46422753982E+01 -0.72879089942E+01  0.59173094149E+02  0.59827060254E+02  0.17770000000E+01 0.  1.
</event>
<event>
 6    1  0.1860328E-003  0.5049247E+03  0.7546771E-02  0.9388857E-01
        -11   -1    0    0    0    0  0.00000000000E+00  0.00000000000E+00  0.50000000000E+03  0.50000000000E+03  0.00000000000E+00 0. -1.
         11   -1    0    0    0    0 -0.00000000000E+00 -0.00000000000E+00 -0.50000000000E+03  0.50000000000E+03  0.00000000000E+00 0. -1.
        -11    1    1    2    0    0 -0.53464212857E+01 -0.40222644377E+01  0.46406062474E+03  0.46410885175E+03  0.00000000000E+00 0. -1.
         11    1    1    2    0    0 -0.12964795145E+02  0.16422249740E+01 -0.49490278053E+03  0.49507529225E+03  0.00000000000E+00 0. -1.
        -15    1    1    2    0    0  0.14740449827E+02  0.63404690403E+01  0.31256670258E+02  0.35179817700E+02  0.17770000000E+01 0.  1.
         15    1    1    2    0    0  0.35707666036E+01 -0.39604295765E+01 -0.41451447238E+00  0.56360383086E+01  0.17770000000E+01 0. -1.
</event>
<event>
 6    1  0.1860328E-003  0.5067266E+03  0.7546771E-02  0.9384883E-01
        -11   -1    0    0    0    0  0.00000000000E+00  0.00000000000E+00  0.50000000000E+03  0.50000000000E+03  0.00000000000E+00 0.  1.
         11   -1    0    0    0    0 -0.00000000000E+00 -0.00000000000E+00 -0.50000000000E+03  0.50000000000E+03  0.00000000000E+00 0.  1.
        -11    1    1    2    0    0  0.71487947549E+01  0.72616705175E+00  0.48545956539E+03  0.48551274156E+03  0.00000000000E+00 0.  1.
         11    1    1    2    0    0 -0.12147658497E+02  0.75900037834E+01 -0.49306539321E+03  0.49327340871E+03  0.00000000000E+00 0.  1.
        -15    1    1    2    0    0  0.57053010584E+01 -0.11610125960E+01  0.11376652289E+02  0.12902881721E+02  0.17770000000E+01 0.  1.
         15    1    1    2    0    0 -0.70643731652E+00 -0.71551582391E+01 -0.37708244714E+01  0.83109680124E+01  0.17770000000E+01 0. -1.
</event>
<event>
 6    1  0.1860328E-003  0.5005225E+03  0.7546771E-02  0.9398641E-01
        -11   -1    0    0    0    0  0.00000000000E+00  0.00000000000E+00  0.50000000000E+03  0.50000000000E+03  0.00000000000E+00 0.  1.
         11   -1    0    0    0    0 -0.00000000000E+00 -0.00000000000E+00 -0.50000000000E+03  0.50000000000E+03  0.00000000000E+00 0.  1.
        -11    1    1    2    0    0  0.18056438939E+01 -0.10202843717E+01  0.10466086972E+03  0.10468141659E+03  0.00000000000E+00 0.  1.
         11    1    1    2    0    0 -0.11940915631E+02  0.11594591824E+01 -0.49933340556E+03  0.49947750672E+03  0.00000000000E+00 0.  1.
        -15    1    1    2    0    0 -0.47310300950E+01 -0.51753655472E+01  0.31285208478E+02  0.32110575404E+02  0.17770000000E+01 0. -1.
         15    1    1    2    0    0  0.14866301833E+02  0.50361907364E+01  0.36338732736E+03  0.36373050129E+03  0.17770000000E+01 0.  1.
</event>
<event>
 6    1  0.1860328E-003  0.5043335E+03  0.7546771E-02  0.9390165E-01
        -11   -1    0    0    0    0  0.00000000000E+00  0.00000000000E+00  0.50000000000E+03  0.50000000000E+03  0.00000000000E+00 0.  1.
         11   -1    0    0    0    0 -0.00000000000E+00 -0.00000000000E+00 -0.50000000000E+03  0.50000000000E+03  0.00000000000E+00 0.  1.
        -11    1    1    2    0    0 -0.11420448958E+02 -0.45424534432E+01  0.47831243899E+03  0.47847032284E+03  0.00000000000E+00 0.  1.
         11    1    1    2    0    0 -0.15057887108E+01  0.12671831469E+02 -0.49550217886E+03  0.49566647250E+03  0.00000000000E+00 0.  1.
        -15    1    1    2    0    0  0.42407311794E+01 -0.45838902173E+01  0.34642677742E+00  0.65018144369E+01  0.17770000000E+01 0. -1.
         15    1    1    2    0    0  0.86855064897E+01 -0.35454878081E+01  0.16843313084E+02  0.19361390224E+02  0.17770000000E+01 0.  1.
</event>
<event>
 6    1  0.1860328E-003  0.5097535E+03  0.7546771E-02  0.9378246E-01
        -11   -1    0    0    0    0  0.00000000000E+00  0.00000000000E+00  0.50000000000E+03  0.50000000000E+03  0.00000000000E+00 0.  1.
         11   -1    0    0    0    0 -0.00000000000E+00 -0.00000000000E+00 -0.50000000000E+03  0.50000000000E+03  0.00000000000E+00 0.  1.
        -11    1    1    2    0    0  0.15230504617E+01  0.73425549355E+01  0.47625810473E+03  0.47631713712E+03  0.00000000000E+00 0.  1.
         11    1    1    2    0    0  0.51343740579E+01 -0.86299046660E+01 -0.49014360723E+03  0.49024646124E+03  0.00000000000E+00 0.  1.
        -15    1    1    2    0    0  0.79750875402E+00  0.37984406171E+01 -0.85712782388E+01  0.95754222352E+01  0.17770000000E+01 0.  1.
         15    1    1    2    0    0 -0.74549332737E+01 -0.25110908866E+01  0.22456780744E+02  0.23860979400E+02  0.17770000000E+01 0. -1.
</event>
<event>
 6    1  0.1860328E-003  0.4876555E+03  0.7546771E-02  0.9427863E-01
        -11   -1    0    0    0    0  0.00000000000E+00  0.00000000000E+00  0.50000000000E+03  0.50000000000E+03  0.00000000000E+00 0. -1.
         11   -1    0    0    0    0 -0.00000000000E+00 -0.00000000000E+00 -0.50000000000E+03  0.50000000000E+03  0.00000000000E+00 0. -1.
        -11    1    1    2    0    0 -0.15441071689E+01 -0.86412747257E+01  0.48231757075E+03  0.48239744501E+03  0.00000000000E+00 0. -1.
         11    1    1    2    0    0 -0.18324851237E+01 -0.98788320083E+01 -0.49305184402E+03  0.49315420531E+03  0.00000000000E+00 0. -1.
        -15    1    1    2    0    0  0.12202962096E+01  0.91563823948E+00  0.53306439757E+01  0.58224574211E+01  0.17770000000E+01 0. -1.
         15    1    1    2    0    0  0.21562960830E+01  0.17604468494E+02  0.54036292923E+01  0.18625892255E+02  0.17770000000E+01 0.  1.
</event>
<event>
 6    1  0.1860328E-003  0.5036494E+03  0.7546771E-02  0.9391681E-01
        -11   -1    0    0    0    0  0.00000000000E+00  0.00000000000E+00  0.50000000000E+03  0.50000000000E+03  0.00000000000E+00 0. -1.
         11   -1    0    0    0    0 -0.00000000000E+00 -0.00000000000E+00 -0.50000000000E+03  0.50000000000E+03  0.00000000000E+00 0. -1.
        -11    1    1    2    0    0  0.72764131853E+01 -0.57650473469E+01  0.49626376929E+03  0.49635059249E+03  0.00000000000E+00 0. -1.
         11    1    1    2    0    0  0.57049439658E+01  0.41474522696E+01 -0.42613738462E+03  0.42619575117E+03  0.00000000000E+00 0. -1.
        -15    1    1    2    0    0 -0.94954637897E+00  0.61324765310E+01 -0.33170136470E+00  0.64634867931E+01  0.17770000000E+01 0.  1.
         15    1    1    2    0    0 -0.12031810772E+02 -0.45148814537E+01 -0.69794683303E+02  0.70990169540E+02  0.17770000000E+01 0. -1.
</event>
<event>
 6    1  0.1860328E-003  0.5138784E+03  0.7546771E-02  0.9369280E-01
        -11   -1    0    0    0    0  0.00000000000E+00  0.00000000000E+00  0.50000000000E+03  0.50000000000E+03  0.00000000000E+00 0. -1.
         11   -1    0    0    0    0 -0.00000000000E+00 -0.00000000000E+00 -0.50000000000E+03  0.50000000000E+03  0.00000000000E+00 0.  1.
        -11    1    1    2    0    0 -0.67641750992E+01 -0.21878740348E+01  0.48606959111E+03  0.48612157765E+03  0.00000000000E+00 0. -1.
         11    1    1    2    0    0  0.12573027689E+02  0.31719340021E+01 -0.47457654615E+03  0.47475366281E+03  0.00000000000E+00 0.  1.
        -15    1    1    2    0    0 -0.43204361703E+01 -0.41201237505E+01  0.12951274755E+02  0.14371319884E+02  0.17770000000E+01 0.  1.
         15    1    1    2    0    0 -0.14884164197E+01  0.31360637833E+01 -0.24444319712E+02  0.24753439653E+02  0.17770000000E+01 0. -1.
</event>
<event>
 6    1  0.1860328E-003  0.5003302E+03  0.7546771E-02  0.9399071E-01
        -11   -1    0    0    0    0  0.00000000000E+00  0.00000000000E+00  0.50000000000E+03  0.50000000000E+03  0.00000000000E+00 0.  1.
         11   -1    0    0    0    0 -0.00000000000E+00 -0.00000000000E+00 -0.50000000000E+03  0.50000000000E+03  0.00000000000E+00 0. -1.
        -11    1    1    2    0    0  0.26700610526E+01 -0.13948865629E+01  0.74292889391E+02  0.74353939698E+02  0.00000000000E+00 0.  1.
         11    1    1    2    0    0  0.93617754438E+01  0.85837522085E+00 -0.49958139221E+03  0.49966983809E+03  0.00000000000E+00 0. -1.
        -15    1    1    2    0    0 -0.73997349857E+01  0.91811998922E+01  0.13781334066E+03  0.13832832357E+03  0.17770000000E+01 0. -1.
         15    1    1    2    0    0 -0.46321015107E+01 -0.86446885502E+01  0.28747516217E+03  0.28764789865E+03  0.17770000000E+01 0.  1.
</event>
<event>
 6    1  0.1860328E-003  0.5077342E+03  0.7546771E-02  0.9382668E-01
        -11   -1    0    0    0    0  0.00000000000E+00  0.00000000000E+00  0.50000000000E+03  0.50000000000E+03  0.00000000000E+00 0. -1.
         11   -1    0    0    0    0 -0.00000000000E+00 -0.00000000000E+00 -0.50000000000E+03  0.50000000000E+03  0.00000000000E+00 0.  1.
        -11    1    1    2    0    0  0.89783697909E+01 -0.57084420531E+01  0.49215079076E+03  0.49226578012E+03  0.00000000000E+00 0. -1.
         11    1    1    2    0    0 -0.57466769081E+01  0.58157864232E+01 -0.42358857913E+03  0.42366747815E+03  0.00000000000E+00 0.  1.
        -15    1    1    2    0    0 -0.22524389650E+02  0.66190984710E+01 -0.54013090186E+02  0.58921407265E+02  0.17770000000E+01 0.  1.
         15    1    1    2    0    0  0.19292696768E+02 -0.67264428411E+01 -0.14549121440E+02  0.25145334469E+02  0.17770000000E+01 0. -1.
</event>
<event>
 6    1  0.1860328E-003  0.5068489E+03  0.7546771E-02  0.9384614E-01
        -11   -1    0    0    0    0  0.00000000000E+00  0.00000000000E+00  0.50000000000E+03  0.50000000000E+03  0.00000000000E+00 0. -1.
         11   -1    0    0    0    0 -0.00000000000E+00 -0.00000000000E+00 -0.50000000000E+03  0.50000000000E+03  0.00000000000E+00 0.  1.
        -11    1    1    2    0    0 -0.16662985968E+02 -0.27523319218E+02  0.49210037504E+03  0.49315105932E+03  0.00000000000E+00 0. -1.
         11    1    1    2    0    0 -0.26839097465E+01  0.63066471517E+01 -0.43650612955E+03  0.43655993667E+03  0.00000000000E+00 0.  1.
        -15    1    1    2    0    0  0.37666142397E+01  0.42174634798E+01 -0.44038066646E+02  0.44435159771E+02  0.17770000000E+01 0. -1.
         15    1    1    2    0    0  0.15580281475E+02  0.16999208587E+02 -0.11556178844E+02  0.25853844238E+02  0.17770000000E+01 0.  1.
</event>
<event>
 6    1  0.1860328E-003  0.4869653E+03  0.7546771E-02  0.9429458E-01
        -11   -1    0    0    0    0  0.00000000000E+00  0.00000000000E+00  0.50000000000E+03  0.50000000000E+03  0.00000000000E+00 0.  1.
         11   -1    0    0    0    0 -0.00000000000E+00 -0.00000000000E+00 -0.50000000000E+03  0.50000000000E+03  0.00000000000E+00 0.  1.
        -11    1    1    2    0    0 -0.64025807654E+01  0.45418931554E+01  0.48670641697E+03  0.48676971778E+03  0.00000000000E+00 0.  1.
         11    1    1    2    0    0 -0.32941637305E+00 -0.14844672759E+02 -0.48701238854E+03  0.48723868835E+03  0.00000000000E+00 0.  1.
        -15    1    1    2    0    0  0.40667142790E+01  0.14599313801E+02 -0.71162381911E+01  0.16836766420E+02  0.17770000000E+01 0. -1.
         15    1    1    2    0    0  0.26652828595E+01 -0.42965341969E+01  0.74222097704E+01  0.91548274535E+01  0.17770000000E+01 0.  1.
</event>
<event>
 6    1  0.1860328E-003  0.5515203E+03  0.7546771E-02  0.9291378E-01
        -11   -1    0    0    0    0  0.00000000000E+00  0.00000000000E+00  0.50000000000E+03  0.50000000000E+03  0.00000000000E+00 0.  1.
         11   -1    0    0    0    0 -0.00000000000E+00 -0.00000000000E+00 -0.50000000000E+03  0.50000000000E+03  0.00000000000E+00 0. -1.
        -11    1    1    2    0    0  0.21894347981E+02  0.20922949204E+02  0.39439053358E+03  0.39555154564E+03  0.00000000000E+00 0.  1.
         11    1    1    2    0    0  0.17685596915E+02 -0.46459231289E+02 -0.44571601382E+03  0.44847966006E+03  0.00000000000E+00 0. -1.
        -15    1    1    2    0    0  0.24301017293E+01  0.33128753496E+02 -0.41851963689E+02  0.53461802216E+02  0.17770000000E+01 0. -1.
         15    1    1    2    0    0 -0.42010046626E+02 -0.75924714112E+01  0.93177443932E+02  0.10250699209E+03  0.17770000000E+01 0.  1.
</event>
<event>
 6    1  0.1860328E-003  0.5021909E+03  0.7546771E-02  0.9394921E-01
        -11   -1    0    0    0    0  0.00000000000E+00  0.00000000000E+00  0.50000000000E+03  0.50000000000E+03  0.00000000000E+00 0.  1.
         11   -1    0    0    0    0 -0.00000000000E+00 -0.00000000000E+00 -0.50000000000E+03  0.50000000000E+03  0.00000000000E+00 0. -1.
        -11    1    1    2    0    0  0.15780864366E+01  0.15434552344E+02  0.49756725908E+03  0.49780909300E+03  0.00000000000E+00 0.  1.
         11    1    1    2    0    0  0.14488253136E+01 -0.72693849849E+01 -0.43207919678E+03  0.43214277194E+03  0.00000000000E+00 0. -1.
        -15    1    1    2    0    0  0.70035858249E+00 -0.75947380897E+01 -0.65411909638E+02  0.65879027014E+02  0.17770000000E+01 0. -1.
         15    1    1    2    0    0 -0.37272703327E+01 -0.57042926947E+00 -0.76152669053E-01  0.41691080477E+01  0.17770000000E+01 0.  1.
</event>
<event>
 6    1  0.1860328E-003  0.5007061E+03  0.7546771E-02  0.9398231E-01
        -11   -1    0    0    0    0  0.00000000000E+00  0.00000000000E+00  0.50000000000E+03  0.50000000000E+03  0.00000000000E+00 0.  1.
         11   -1    0    0    0    0 -0.00000000000E+00 -0.00000000000E+00 -0.50000000000E+03  0.50000000000E+03  0.00000000000E+00 0.  1.
        -11    1    1    2    0    0  0.64118713043E+01  0.15942232286E+02  0.49899810496E+03  0.49929387701E+03  0.00000000000E+00 0.  1.
         11    1    1    2    0    0 -0.24346538974E+01  0.24867749914E+01 -0.23379906910E+03  0.23382496937E+03  0.00000000000E+00 0.  1.
        -15    1    1    2    0    0  0.72984977010E+01 -0.10991343554E+02 -0.73305422629E+02  0.74504499311E+02  0.17770000000E+01 0. -1.
         15    1    1    2    0    0 -0.11275715108E+02 -0.74376637230E+01 -0.19189361323E+03  0.19237665431E+03  0.17770000000E+01 0.  1.
</event>
<event>
 6    1  0.1860328E-003  0.5007478E+03  0.7546771E-02  0.9398138E-01
        -11   -1    0    0    0    0  0.00000000000E+00  0.00000000000E+00  0.50000000000E+03  0.50000000000E+03  0.00000000000E+00 0.  1.
         11   -1    0    0    0    0 -0.00000000000E+00 -0.00000000000E+00 -0.50000000000E+03  0.50000000000E+03  0.00000000000E+00 0.  1.
        -11    1    1    2    0    0 -0.76819243671E+01 -0.28631789820E+01  0.49918487158E+03  0.49925218655E+03  0.00000000000E+00 0.  1.
         11    1    1    2    0    0 -0.69912305227E+00  0.28701298145E+01 -0.21090678837E+03  0.21092747521E+03  0.00000000000E+00 0.  1.
        -15    1    1    2    0    0  0.15944534108E+02  0.44437986725E+01 -0.10392056606E+03  0.10524550961E+03  0.17770000000E+01 0.  1.
         15    1    1    2    0    0 -0.75634866889E+01 -0.44507495050E+01 -0.18435751715E+03  0.18457482862E+03  0.17770000000E+01 0. -1.
</event>
<event>
 6    1  0.1860328E-003  0.5010268E+03  0.7546771E-02  0.9397515E-01
        -11   -1    0    0    0    0  0.00000000000E+00  0.00000000000E+00  0.50000000000E+03  0.50000000000E+03  0.00000000000E+00 0.  1.
         11   -1    0    0    0    0 -0.00000000000E+00 -0.00000000000E+00 -0.50000000000E+03  0.50000000000E+03  0.00000000000E+00 0. -1.
        -11    1    1    2    0    0 -0.59370740584E+01 -0.43244452268E+01  0.29609533388E+03  0.29618642173E+03  0.00000000000E+00 0.  1.
         11    1    1    2    0    0  0.81634637136E+01 -0.32401469726E+00 -0.49890628692E+03  0.49897317589E+03  0.00000000000E+00 0. -1.
        -15    1    1    2    0    0  0.96594103109E+01 -0.39071812724E+01  0.40366802915E+02  0.41727769886E+02  0.17770000000E+01 0.  1.
         15    1    1    2    0    0 -0.11885799966E+02  0.85556411964E+01  0.16244415013E+03  0.16311263249E+03  0.17770000000E+01 0. -1.
</event>
<event>
 6    1  0.1860328E-003  0.4955821E+03  0.7546771E-02  0.9409750E-01
        -11   -1    0    0    0    0  0.00000000000E+00  0.00000000000E+00  0.50000000000E+03  0.50000000000E+03  0.00000000000E+00 0.  1.
         11   -1    0    0    0    0 -0.00000000000E+00 -0.00000000000E+00 -0.50000000000E+03  0.50000000000E+03  0.00000000000E+00 0. -1.
        -11    1    1    2    0    0  0.54850526286E+00  0.13294767862E+00  0.93857373423E+01  0.94026910279E+01  0.00000000000E+00 0.  1.
         11    1    1    2    0    0 -0.35902664900E+01  0.12508951808E+02 -0.49951192682E+03  0.49968142743E+03  0.00000000000E+00 0. -1.
        -15    1    1    2    0    0  0.66339618542E+01 -0.18381634959E+02  0.41518051196E+03  0.41564396928E+03  0.17770000000E+01 0.  1.
         15    1    1    2    0    0 -0.35922006270E+01  0.57397354722E+01  0.74945677514E+02  0.75271912262E+02  0.17770000000E+01 0. -1.
</event>
<event>
 6    1  0.1860328E-003  0.5028090E+03  0.7546771E-02  0.9393546E-01
        -11   -1    0    0    0    0  0.00000000000E+00  0.00000000000E+00  0.50000000000E+03  0.50000000000E+03  0.00000000000E+00 0.  1.
         11   -1    0    0    0    0 -0.00000000000E+00 -0.00000000000E+00 -0.50000000000E+03  0.50000000000E+03  0.00000000000E+00 0. -1.
        -11    1    1    2    0    0  0.84017119096E+01 -0.25395167181E+01  0.33205404957E+03  0.33217003137E+03  0.00000000000E+00 0.  1.
         11    1    1    2    0    0 -0.42701226366E+01 -0.10438447745E+02 -0.49706307740E+03  0.49719100761E+03  0.00000000000E+00 0. -1.
        -15    1    1    2    0    0  0.11152736977E+02 -0.99462806487E+01  0.74822891522E+02  0.76321260901E+02  0.17770000000E+01 0.  1.
         15    1    1    2    0    0 -0.15284326250E+02  0.22924245112E+02  0.90186136313E+02  0.94317700114E+02  0.17770000000E+01 0. -1.
</event>
<event>
 6    1  0.1860328E-003  0.4909529E+03  0.7546771E-02  0.9420284E-01
        -11   -1    0    0    0    0  0.00000000000E+00  0.00000000000E+00  0.50000000000E+03  0.50000000000E+03  0.00000000000E+00 0.  1.
         11   -1    0    0    0    0 -0.00000000000E+00 -0.00000000000E+00 -0.50000000000E+03  0.50000000000E+03  0.00000000000E+00 0. -1.
        -11    1    1    2    0    0 -0.12259019131E+01 -0.10888177918E+01  0.18698959220E+02  0.18770706849E+02  0.00000000000E+00 0.  1.
         11    1    1    2    0    0 -0.25721618506E+00 -0.11287125809E+02 -0.49938323305E+03  0.49951083955E+03  0.00000000000E+00 0. -1.
        -15    1    1    2    0    0 -0.12487417436E+02  0.11971571650E+02  0.24955082504E+03  0.25015600358E+03  0.17770000000E+01 0. -1.
         15    1    1    2    0    0  0.13970535534E+02  0.40437195079E+00  0.23113344880E+03  0.23156245002E+03  0.17770000000E+01 0.  1.
</event>
<event>
 6    1  0.1860328E-003  0.5200100E+03  0.7546771E-02  0.9356116E-01
        -11   -1    0    0    0    0  0.00000000000E+00  0.00000000000E+00  0.50000000000E+03  0.50000000000E+03  0.00000000000E+00 0. -1.
         11   -1    0    0    0    0 -0.00000000000E+00 -0.00000000000E+00 -0.50000000000E+03  0.50000000000E+03  0.00000000000E+00 0. -1.
        -11    1    1    2    0    0  0.21188086279E+02 -0.67276707029E+01  0.47947492196E+03  0.47998999712E+03  0.00000000000E+00 0. -1.
         11    1    1    2    0    0  0.35923291352E+01 -0.63181439960E+01 -0.21522563514E+03  0.21534831737E+03  0.00000000000E+00 0. -1.
        -15    1    1    2    0    0 -0.51456014841E+02  0.36925823054E+02 -0.34520682551E+02  0.72153122763E+02  0.17770000000E+01 0. -1.
         15    1    1    2    0    0  0.26675599427E+02 -0.23880008355E+02 -0.22972860427E+03  0.23250856275E+03  0.17770000000E+01 0.  1.
</event>
<event>
 6    1  0.1860328E-003  0.5010563E+03  0.7546771E-02  0.9397449E-01
        -11   -1    0    0    0    0  0.00000000000E+00  0.00000000000E+00  0.50000000000E+03  0.50000000000E+03  0.00000000000E+00 0.  1.
         11   -1    0    0    0    0 -0.00000000000E+00 -0.00000000000E+00 -0.50000000000E+03  0.50000000000E+03  0.00000000000E+00 0. -1.
        -11    1    1    2    0    0 -0.10202435262E+01  0.24435264321E+01  0.17724592035E+03  0.17726569888E+03  0.00000000000E+00 0.  1.
         11    1    1    2    0    0 -0.27226168698E+01  0.69132277871E+01 -0.49888834347E+03  0.49894366878E+03  0.00000000000E+00 0. -1.
        -15    1    1    2    0    0  0.11710699280E+01 -0.49060903943E+01  0.31566071843E+03  0.31570601518E+03  0.17770000000E+01 0. -1.
         15    1    1    2    0    0  0.25717904679E+01 -0.44506638248E+01  0.59817046877E+01  0.80846171624E+01  0.17770000000E+01 0.  1.
</event>
<event>
 6    1  0.1860328E-003  0.5054640E+03  0.7546771E-02  0.9387666E-01
        -11   -1    0    0    0    0  0.00000000000E+00  0.00000000000E+00  0.50000000000E+03  0.50000000000E+03  0.00000000000E+00 0. -1.
         11   -1    0    0    0    0 -0.00000000000E+00 -0.00000000000E+00 -0.50000000000E+03  0.50000000000E+03  0.00000000000E+00 0. -1.
        -11    1    1    2    0    0 -0.19000469782E+01 -0.61741071374E+01  0.38047480782E+03  0.38052964295E+03  0.00000000000E+00 0. -1.
         11    1    1    2    0    0  0.12731306713E+01  0.75336018384E+01 -0.49447699414E+03  0.49453601866E+03  0.00000000000E+00 0. -1.
        -15    1    1    2    0    0  0.12610216737E+01  0.12692188642E+02  0.10921283367E+03  0.10996946210E+03  0.17770000000E+01 0. -1.
         15    1    1    2    0    0 -0.63410536681E+00 -0.14051683344E+02  0.47893526494E+01  0.14964876284E+02  0.17770000000E+01 0.  1.
</event>
<event>
 6    1  0.1860328E-003  0.5009594E+03  0.7546771E-02  0.9397666E-01
        -11   -1    0    0    0    0  0.00000000000E+00  0.00000000000E+00  0.50000000000E+03  0.50000000000E+03  0.00000000000E+00 0.  1.
         11   -1    0    0    0    0 -0.00000000000E+00 -0.00000000000E+00 -0.50000000000E+03  0.50000000000E+03  0.00000000000E+00 0. -1.
        -11    1    1    2    0    0 -0.31478385469E+01 -0.88836819017E+01  0.49895160028E+03  0.49904060768E+03  0.00000000000E+00 0.  1.
         11    1    1    2    0    0  0.69662348222E+01  0.46947203489E+01 -0.25171704213E+03  0.25185717803E+03  0.00000000000E+00 0. -1.
        -15    1    1    2    0    0 -0.15256109540E+02  0.30179349237E+01 -0.83474743433E+02  0.84929661072E+02  0.17770000000E+01 0.  1.
         15    1    1    2    0    0  0.11437713265E+02  0.11710266291E+01 -0.16375981471E+03  0.16417255322E+03  0.17770000000E+01 0. -1.
</event>
<event>
 6    1  0.1860328E-003  0.5654026E+03  0.7546771E-02  0.9264296E-01
        -11   -1    0    0    0    0  0.00000000000E+00  0.00000000000E+00  0.50000000000E+03  0.50000000000E+03  0.00000000000E+00 0. -1.
         11   -1    0    0    0    0 -0.00000000000E+00 -0.00000000000E+00 -0.50000000000E+03  0.50000000000E+03  0.00000000000E+00 0.  1.
        -11    1    1    2    0    0 -0.32913488355E+02  0.16338903555E+02  0.43304118061E+03  0.43459742474E+03  0.00000000000E+00 0. -1.
         11    1    1    2    0    0  0.90830997096E+01 -0.29762704210E+02 -0.32633328667E+03  0.32781356783E+03  0.00000000000E+00 0.  1.
        -15    1    1    2    0    0 -0.46115083836E+01  0.26413261623E+02 -0.16726665137E+03  0.16941138329E+03  0.17770000000E+01 0.  1.
         15    1    1    2    0    0  0.28441897029E+02 -0.12989460968E+02  0.60558757431E+02  0.68177624140E+02  0.17770000000E+01 0. -1.
</event>
<event>
 6    1  0.1860328E-003  0.5049315E+03  0.7546771E-02  0.9388842E-01
        -11   -1    0    0    0    0  0.00000000000E+00  0.00000000000E+00  0.50000000000E+03  0.50000000000E+03  0.00000000000E+00 0.  1.
         11   -1    0    0    0    0 -0.00000000000E+00 -0.00000000000E+00 -0.50000000000E+03  0.50000000000E+03  0.00000000000E+00 0. -1.
        -11    1    1    2    0    0 -0.10871002956E+02  0.32985005979E+01  0.43919683904E+03  0.43934374040E+03  0.00000000000E+00 0.  1.
         11    1    1    2    0    0 -0.96494119507E+01 -0.75757442825E+01 -0.49491645287E+03  0.49506847847E+03  0.00000000000E+00 0. -1.
        -15    1    1    2    0    0 -0.17990387126E+01  0.88051084262E+01  0.29112739697E+02  0.30520088734E+02  0.17770000000E+01 0.  1.
         15    1    1    2    0    0  0.22319453619E+02 -0.45278647416E+01  0.26606874143E+02  0.35067692391E+02  0.17770000000E+01 0. -1.
</event>
<event>
 6    1  0.1860328E-003  0.5037179E+03  0.7546771E-02  0.9391529E-01
        -11   -1    0    0    0    0  0.00000000000E+00  0.00000000000E+00  0.50000000000E+03  0.50000000000E+03  0.00000000000E+00 0.  1.
         11   -1    0    0    0    0 -0.00000000000E+00 -0.00000000000E+00 -0.50000000000E+03  0.50000000000E+03  0.00000000000E+00 0. -1.
        -11    1    1    2    0    0 -0.46423416139E+01 -0.62991987558E+01  0.41222905336E+03  0.41230331514E+03  0.00000000000E+00 0.  1.
         11    1    1    2    0    0  0.97012785236E+01  0.96357159068E+01 -0.49609374082E+03  0.49628213902E+03  0.00000000000E+00 0. -1.
        -15    1    1    2    0    0 -0.67218369989E+01 -0.55832995009E+01  0.15712043548E+01  0.90544319579E+01  0.17770000000E+01 0.  1.
         15    1    1    2    0    0  0.16629000891E+01  0.22467823499E+01  0.82293483108E+02  0.82360113882E+02  0.17770000000E+01 0. -1.
</event>
<event>
 6    1  0.1860328E-003  0.5087339E+03  0.7546771E-02  0.9380476E-01
        -11   -1    0    0    0    0  0.00000000000E+00  0.00000000000E+00  0.50000000000E+03  0.50000000000E+03  0.00000000000E+00 0.  1.
         11   -1    0    0    0    0 -0.00000000000E+00 -0.00000000000E+00 -0.50000000000E+03  0.50000000000E+03  0.00000000000E+00 0.  1.
        -11    1    1    2    0    0  0.29637099927E+01 -0.93970960603E+01  0.49116725074E+03  0.49126607576E+03  0.00000000000E+00 0.  1.
         11    1    1    2    0    0  0.19474127905E+02 -0.22034788611E+02 -0.45123310219E+03  0.45219032064E+03  0.00000000000E+00 0.  1.
        -15    1    1    2    0    0 -0.18167925798E+01  0.31750163408E+01 -0.87422474315E+01  0.96418920962E+01  0.17770000000E+01 0. -1.
         15    1    1    2    0    0 -0.20621045318E+02  0.28256868331E+02 -0.31191901116E+02  0.46901711505E+02  0.17770000000E+01 0.  1.
</event>
<event>
 6    1  0.1860328E-003  0.5015167E+03  0.7546771E-02  0.9396422E-01
        -11   -1    0    0    0    0  0.00000000000E+00  0.00000000000E+00  0.50000000000E+03  0.50000000000E+03  0.00000000000E+00 0. -1.
         11   -1    0    0    0    0 -0.00000000000E+00 -0.00000000000E+00 -0.50000000000E+03  0.50000000000E+03  0.00000000000E+00 0. -1.
        -11    1    1    2    0    0 -0.26037365482E+02 -0.27765449149E+02  0.49702794468E+03  0.49848334211E+03  0.00000000000E+00 0. -1.
         11    1    1    2    0    0  0.24548529943E+01  0.65060728019E+00 -0.15956434298E+03  0.15958455170E+03  0.00000000000E+00 0. -1.
        -15    1    1    2    0    0  0.25037551184E+02  0.20813246152E+02 -0.11959945863E+03  0.12396474667E+03  0.17770000000E+01 0. -1.
         15    1    1    2    0    0 -0.14550386963E+01  0.63015957166E+01 -0.21786414308E+03  0.21796735951E+03  0.17770000000E+01 0.  1.
</event>
<event>
 6    1  0.1860328E-003  0.4070245E+03  0.7546771E-02  0.9635870E-01
        -11   -1    0    0    0    0  0.00000000000E+00  0.00000000000E+00  0.50000000000E+03  0.50000000000E+03  0.00000000000E+00 0. -1.
         11   -1    0    0    0    0 -0.00000000000E+00 -0.00000000000E+00 -0.50000000000E+03  0.50000000000E+03  0.00000000000E+00 0.  1.
        -11    1    1    2    0    0 -0.84576275358E+02  0.19580711817E+02  0.43097581417E+03  0.43963246357E+03  0.00000000000E+00 0. -1.
         11    1    1    2    0    0 -0.20685419638E+02 -0.74955353513E+01 -0.38210347734E+03  0.38273638060E+03  0.00000000000E+00 0.  1.
        -15    1    1    2    0    0  0.98284832506E+02  0.68371358592E+00  0.25719874963E+02  0.10161223087E+03  0.17770000000E+01 0. -1.
         15    1    1    2    0    0  0.69768624895E+01 -0.12768890051E+02 -0.74592211788E+02  0.76018924958E+02  0.17770000000E+01 0.  1.
</event>
<event>
 6    1  0.1860328E-003  0.5004345E+03  0.7546771E-02  0.9398838E-01
        -11   -1    0    0    0    0  0.00000000000E+00  0.00000000000E+00  0.50000000000E+03  0.50000000000E+03  0.00000000000E+00 0. -1.
         11   -1    0    0    0    0 -0.00000000000E+00 -0.00000000000E+00 -0.50000000000E+03  0.50000000000E+03  0.00000000000E+00 0.  1.
        -11    1    1    2    0    0  0.32387066133E+01 -0.30539946276E+01  0.30852807198E+03  0.30856018425E+03  0.00000000000E+00 0. -1.
         11    1    1    2    0    0  0.53650232340E+01 -0.64474332922E+01 -0.49949505959E+03  0.49956547862E+03  0.00000000000E+00 0.  1.
        -15    1    1    2    0    0 -0.16625291503E+01  0.18213291343E+01  0.73034986255E+01  0.79107562321E+01  0.17770000000E+01 0.  1.
         15    1    1    2    0    0 -0.69412006969E+01  0.76800987855E+01  0.18366348898E+03  0.18396358090E+03  0.17770000000E+01 0. -1.
</event>
<event>
 6    1  0.1860328E-003  0.5064400E+03  0.7546771E-02  0.9385514E-01
        -11   -1    0    0    0    0  0.00000000000E+00  0.00000000000E+00  0.50000000000E+03  0.50000000000E+03  0.00000000000E+00 0.  1.
         11   -1    0    0    0    0 -0.00000000000E+00 -0.00000000000E+00 -0.50000000000E+03  0.50000000000E+03  0.00000000000E+00 0.  1.
        -11    1    1    2    0    0  0.19935864741E+01 -0.15443508280E+02  0.49331431868E+03  0.49356002000E+03  0.00000000000E+00 0.  1.
         11    1    1    2    0    0  0.29190615963E+01 -0.57081152571E+01 -0.45936436850E+03  0.45940910586E+03  0.00000000000E+00 0.  1.
        -15    1    1    2    0    0 -0.49276885719E+01  0.17490756131E+02 -0.66536365123E+01  0.19432891512E+02  0.17770000000E+01 0.  1.
         15    1    1    2    0    0  0.15040501484E-01  0.36608674063E+01 -0.27296313662E+02  0.27597982624E+02  0.17770000000E+01 0. -1.
</event>
<event>
 6    1  0.1860328E-003  0.5268400E+03  0.7546771E-02  0.9341678E-01
        -11   -1    0    0    0    0  0.00000000000E+00  0.00000000000E+00  0.50000000000E+03  0.50000000000E+03  0.00000000000E+00 0. -1.
         11   -1    0    0    0    0 -0.00000000000E+00 -0.00000000000E+00 -0.50000000000E+03  0.50000000000E+03  0.00000000000E+00 0.  1.
        -11    1    1    2    0    0  0.10880049378E+02 -0.30918282492E+01  0.42620726498E+03  0.42635732385E+03  0.00000000000E+00 0. -1.
         11    1    1    2    0    0  0.19902760125E+02 -0.95695767535E+01 -0.47264435745E+03  0.47315999967E+03  0.00000000000E+00 0.  1.
        -15    1    1    2    0    0 -0.14275158095E+02  0.52383285165E+01 -0.23595592313E+02  0.28127032014E+02  0.17770000000E+01 0. -1.
         15    1    1    2    0    0 -0.16507651408E+02  0.74230764861E+01  0.70032684778E+02  0.72355644464E+02  0.17770000000E+01 0.  1.
</event>
<event>
 6    1  0.1860328E-003  0.5076645E+03  0.7546771E-02  0.9382821E-01
        -11   -1    0    0    0    0  0.00000000000E+00  0.00000000000E+00  0.50000000000E+03  0.50000000000E+03  0.00000000000E+00 0. -1.
         11   -1    0    0    0    0 -0.00000000000E+00 -0.00000000000E+00 -0.50000000000E+03  0.50000000000E+03  0.00000000000E+00 0. -1.
        -11    1    1    2    0    0  0.12617683068E+02  0.26015937490E+01  0.49216689279E+03  0.49233547970E+03  0.00000000000E+00 0. -1.
         11    1    1    2    0    0  0.71529515775E+00  0.61493373596E+01 -0.45821159280E+03  0.45825341217E+03  0.00000000000E+00 0. -1.
        -15    1    1    2    0    0  0.94410917554E+01 -0.66146273195E+01 -0.56060893306E+01  0.12941154303E+02  0.17770000000E+01 0. -1.
         15    1    1    2    0    0 -0.22774069981E+02 -0.21363037890E+01 -0.28349210664E+02  0.36469953820E+02  0.17770000000E+01 0.  1.
</event>
<event>
 6    1  0.1860328E-003  0.5000753E+03  0.7546771E-02  0.9399641E-01
        -11   -1    0    0    0    0  0.00000000000E+00  0.00000000000E+00  0.50000000000E+03  0.50000000000E+03  0.00000000000E+00 0.  1.
         11   -1    0    0    0    0 -0.00000000000E+00 -0.00000000000E+00 -0.50000000000E+03  0.50000000000E+03  0.00000000000E+00 0. -1.
        -11    1    1    2    0    0  0.82245509482E+01  0.23429224164E+01  0.49985151092E+03  0.49992465982E+03  0.00000000000E+00 0.  1.
         11    1    1    2    0    0 -0.45603703588E+01  0.24780295078E+01 -0.19467761556E+03  0.19474678844E+03  0.00000000000E+00 0. -1.
        -15    1    1    2    0    0 -0.13109131214E+01  0.11536481626E+01 -0.13712187991E+03  0.13714451165E+03  0.17770000000E+01 0.  1.
         15    1    1    2    0    0 -0.23532674680E+01 -0.59746000868E+01 -0.16805201545E+03  0.16818404009E+03  0.17770000000E+01 0. -1.
</event>
<event>
 6    1  0.1860328E-003  0.5043294E+03  0.7546771E-02  0.9390174E-01
        -11   -1    0    0    0    0  0.00000000000E+00  0.00000000000E+00  0.50000000000E+03  0.50000000000E+03  0.00000000000E+00 0. -1.
         11   -1    0    0    0    0 -0.00000000000E+00 -0.00000000000E+00 -0.50000000000E+03  0.50000000000E+03  0.00000000000E+00 0. -1.
        -11    1    1    2    0    0 -0.47098570819E+01  0.32785933747E+01  0.37678483508E+03  0.37682853379E+03  0.00000000000E+00 0. -1.
         11    1    1    2    0    0  0.93073588638E+00 -0.76036549111E+01 -0.49561141488E+03  0.49567061280E+03  0.00000000000E+00 0. -1.
        -15    1    1    2    0    0  0.20297990580E+02 -0.75232341091E+01  0.34720014631E+02  0.40954177053E+02  0.17770000000E+01 0.  1.
         15    1    1    2    0    0 -0.16518869385E+02  0.11848295645E+02  0.84106565165E+02  0.86546676356E+02  0.17770000000E+01 0. -1.
</event>
<event>
 6    1  0.1860328E-003  0.5055934E+03  0.7546771E-02  0.9387380E-01
        -11   -1    0    0    0    0  0.00000000000E+00  0.00000000000E+00  0.50000000000E+03  0.50000000000E+03  0.00000000000E+00 0. -1.
         11   -1    0    0    0    0 -0.00000000000E+00 -0.00000000000E+00 -0.50000000000E+03  0.50000000000E+03  0.00000000000E+00 0. -1.
        -11    1    1    2    0    0 -0.23313147621E+01 -0.73537318967E+01  0.48144045298E+03  0.48150225562E+03  0.00000000000E+00 0. -1.
         11    1    1    2    0    0  0.12896615150E+02  0.73277813825E+01 -0.49418405431E+03  0.49440661261E+03  0.00000000000E+00 0. -1.
        -15    1    1    2    0    0 -0.25272709861E+01  0.39474817310E+00  0.15181505653E+02  0.15497702012E+02  0.17770000000E+01 0. -1.
         15    1    1    2    0    0 -0.80380294017E+01 -0.36879765889E+00 -0.24379043287E+01  0.85934297514E+01  0.17770000000E+01 0.  1.
</event>
<event>
 6    1  0.1860328E-003  0.5010701E+03  0.7546771E-02  0.9397418E-01
        -11   -1    0    0    0    0  0.00000000000E+00  0.00000000000E+00  0.50000000000E+03  0.50000000000E+03  0.00000000000E+00 0.  1.
         11   -1    0    0    0    0 -0.00000000000E+00 -0.00000000000E+00 -0.50000000000E+03  0.50000000000E+03  0.00000000000E+00 0. -1.
        -11    1    1    2    0    0 -0.29912316725E+01  0.11081965421E+02  0.41269600365E+03  0.41285560291E+03  0.00000000000E+00 0.  1.
         11    1    1    2    0    0 -0.76586626318E+01 -0.41104150089E+01 -0.49885418195E+03  0.49892990036E+03  0.00000000000E+00 0. -1.
        -15    1    1    2    0    0  0.47452412152E+01  0.28703374261E+01  0.14576470211E+02  0.15696730996E+02  0.17770000000E+01 0. -1.
         15    1    1    2    0    0  0.59046530891E+01 -0.98418878381E+01  0.71581708091E+02  0.72517765730E+02  0.17770000000E+01 0.  1.
</event>
<event>
 6    1  0.7787162E-003  0.5221956E+03  0.7546771E-02  0.9351471E-01
        -11   -1    0    0    0    0  0.00000000000E+00  0.00000000000E+00  0.50000000000E+03  0.50000000000E+03  0.00000000000E+00 0. -1.
         11   -1    0    0    0    0 -0.00000000000E+00 -0.00000000000E+00 -0.50000000000E+03  0.50000000000E+03  0.00000000000E+00 0.  1.
        -11    1    1    2    0    0 -0.87238590762E+01 -0.92953186940E+01  0.47763434380E+03  0.47780443180E+03  0.00000000000E+00 0. -1.
         11    1    1    2    0    0  0.57047689235E+02 -0.24655664090E+02 -0.21530883341E+03  0.22409871566E+03  0.00000000000E+00 0.  1.
        -15    1    1    2    0    0  0.45256314163E+01  0.57892746135E-01  0.13949280875E+02  0.14772435723E+02  0.17770000000E+01 0. -1.
         15    1    1    2    0    0 -0.52849461575E+02  0.33893090038E+02 -0.27627479127E+03  0.28332441681E+03  0.17770000000E+01 0.  1.
</event>
<event>
 6    1  0.1860328E-003  0.5022089E+03  0.7546771E-02  0.9394881E-01
        -11   -1    0    0    0    0  0.00000000000E+00  0.00000000000E+00  0.50000000000E+03  0.50000000000E+03  0.00000000000E+00 0. -1.
         11   -1    0    0    0    0 -0.00000000000E+00 -0.00000000000E+00 -0.50000000000E+03  0.50000000000E+03  0.00000000000E+00 0.  1.
        -11    1    1    2    0    0 -0.44601604497E+01 -0.54568183113E+01  0.48629709765E+03  0.48634816447E+03  0.00000000000E+00 0. -1.
         11    1    1    2    0    0  0.80339000424E+01  0.65011724249E+01 -0.49768382192E+03  0.49779111623E+03  0.00000000000E+00 0.  1.
        -15    1    1    2    0    0 -0.62665413130E+01  0.42438617531E+00  0.39687686755E+01  0.76392733590E+01  0.17770000000E+01 0. -1.
         15    1    1    2    0    0  0.26928017204E+01 -0.14687402889E+01  0.74179555978E+01  0.82214459429E+01  0.17770000000E+01 0. -1.
</event>
<event>
 6    1  0.1860328E-003  0.5381409E+03  0.7546771E-02  0.9318291E-01
        -11   -1    0    0    0    0  0.00000000000E+00  0.00000000000E+00  0.50000000000E+03  0.50000000000E+03  0.00000000000E+00 0.  1.
         11   -1    0    0    0    0 -0.00000000000E+00 -0.00000000000E+00 -0.50000000000E+03  0.50000000000E+03  0.00000000000E+00 0. -1.
        -11    1    1    2    0    0 -0.11615207051E+02 -0.16817814458E+01  0.40781068996E+03  0.40797953413E+03  0.00000000000E+00 0.  1.
         11    1    1    2    0    0  0.63342735764E+01 -0.18791089471E+01 -0.46181181770E+03  0.46185907920E+03  0.00000000000E+00 0. -1.
        -15    1    1    2    0    0 -0.82713036175E+01  0.24256786049E+01 -0.37051078778E+02  0.38081997687E+02  0.17770000000E+01 0.  1.
         15    1    1    2    0    0  0.13552237093E+02  0.11352117880E+01  0.91052206515E+02  0.92079388987E+02  0.17770000000E+01 0. -1.
</event>
<event>
 6    1  0.1860328E-003  0.5013835E+03  0.7546771E-02  0.9396719E-01
        -11   -1    0    0    0    0  0.00000000000E+00  0.00000000000E+00  0.50000000000E+03  0.50000000000E+03  0.00000000000E+00 0.  1.
         11   -1    0    0    0    0 -0.00000000000E+00 -0.00000000000E+00 -0.50000000000E+03  0.50000000000E+03  0.00000000000E+00 0.  1.
        -11    1    1    2    0    0 -0.33436577896E+01  0.43089350816E+01  0.69549630810E+02  0.69763157288E+02  0.00000000000E+00 0.  1.
         11    1    1    2    0    0  0.15444440699E+02  0.15502283428E+02 -0.49813609001E+03  0.49861650164E+03  0.00000000000E+00 0.  1.
        -15    1    1    2    0    0 -0.89391567260E+01 -0.12992659103E+01  0.14972289053E+02  0.17576227791E+02  0.17770000000E+01 0. -1.
         15    1    1    2    0    0 -0.31616261836E+01 -0.18511952600E+02  0.41361417014E+03  0.41404411328E+03  0.17770000000E+01 0.  1.
</event>
<event>
 6    1  0.1860328E-003  0.5004527E+03  0.7546771E-02  0.9398797E-01
        -11   -1    0    0    0    0  0.00000000000E+00  0.00000000000E+00  0.50000000000E+03  0.50000000000E+03  0.00000000000E+00 0.  1.
         11   -1    0    0    0    0 -0.00000000000E+00 -0.00000000000E+00 -0.50000000000E+03  0.50000000000E+03  0.00000000000E+00 0.  1.
        -11    1    1    2    0    0  0.11358238366E+02  0.13226703643E+02  0.49924300742E+03  0.49954733081E+03  0.00000000000E+00 0.  1.
         11    1    1    2    0    0  0.24820699517E+01  0.16432938813E+01 -0.16059222320E+03  0.16061980961E+03  0.00000000000E+00 0.  1.
        -15    1    1    2    0    0 -0.14079979323E+01 -0.29253640183E+01 -0.20853213933E+03  0.20856498047E+03  0.17770000000E+01 0. -1.
         15    1    1    2    0    0 -0.12432310385E+02 -0.11944633506E+02 -0.13011864489E+03  0.13126787911E+03  0.17770000000E+01 0.  1.
</event>
<event>
 6    1  0.1860328E-003  0.5028074E+03  0.7546771E-02  0.9393550E-01
        -11   -1    0    0    0    0  0.00000000000E+00  0.00000000000E+00  0.50000000000E+03  0.50000000000E+03  0.00000000000E+00 0.  1.
         11   -1    0    0    0    0 -0.00000000000E+00 -0.00000000000E+00 -0.50000000000E+03  0.50000000000E+03  0.00000000000E+00 0.  1.
        -11    1    1    2    0    0 -0.97751260200E+01  0.15610113589E+02  0.41379092354E+03  0.41420062426E+03  0.00000000000E+00 0.  1.
         11    1    1    2    0    0 -0.13758369073E+02 -0.14378033258E+02 -0.49679419583E+03  0.49719261214E+03  0.00000000000E+00 0.  1.
        -15    1    1    2    0    0  0.97011829097E+01 -0.88154103579E+01  0.53420194946E+02  0.55033620330E+02  0.17770000000E+01 0. -1.
         15    1    1    2    0    0  0.13832312183E+02  0.75833300265E+01  0.29583077343E+02  0.33573143265E+02  0.17770000000E+01 0.  1.
</event>
<event>
 6    1  0.1860328E-003  0.5046728E+03  0.7546771E-02  0.9389414E-01
        -11   -1    0    0    0    0  0.00000000000E+00  0.00000000000E+00  0.50000000000E+03  0.50000000000E+03  0.00000000000E+00 0. -1.
         11   -1    0    0    0    0 -0.00000000000E+00 -0.00000000000E+00 -0.50000000000E+03  0.50000000000E+03  0.00000000000E+00 0.  1.
        -11    1    1    2    0    0  0.84025287477E+01 -0.48478531226E+01  0.49523218485E+03  0.49532718589E+03  0.00000000000E+00 0. -1.
         11    1    1    2    0    0 -0.84784902725E+01 -0.18450669403E+01 -0.43661432401E+03  0.43670053469E+03  0.00000000000E+00 0.  1.
        -15    1    1    2    0    0 -0.69897544232E+01  0.15887536957E+02 -0.15671898579E+02  0.23452859773E+02  0.17770000000E+01 0.  1.
         15    1    1    2    0    0  0.70657159481E+01 -0.91946168939E+01 -0.42945962266E+02  0.44519419646E+02  0.17770000000E+01 0. -1.
</event>
<event>
 6    1  0.1860328E-003  0.5263072E+03  0.7546771E-02  0.9342796E-01
        -11   -1    0    0    0    0  0.00000000000E+00  0.00000000000E+00  0.50000000000E+03  0.50000000000E+03  0.00000000000E+00 0. -1.
         11   -1    0    0    0    0 -0.00000000000E+00 -0.00000000000E+00 -0.50000000000E+03  0.50000000000E+03  0.00000000000E+00 0.  1.
        -11    1    1    2    0    0 -0.11888744942E+02 -0.95950828145E+01  0.47344639071E+03  0.47369282530E+03  0.00000000000E+00 0. -1.
         11    1    1    2    0    0 -0.46500157426E+01 -0.57761622545E+01 -0.42248098797E+03  0.42254605890E+03  0.00000000000E+00 0.  1.
        -15    1    1    2    0    0 -0.16635876900E+01  0.32317959372E+02 -0.66784366671E+02  0.74232926540E+02  0.17770000000E+01 0.  1.
         15    1    1    2    0    0  0.18202348374E+02 -0.16946714303E+02  0.15818963933E+02  0.29528189259E+02  0.17770000000E+01 0. -1.
</event>
<event>
 6    1  0.1860328E-003  0.4892705E+03  0.7546771E-02  0.9424143E-01
        -11   -1    0    0    0    0  0.00000000000E+00  0.00000000000E+00  0.50000000000E+03  0.50000000000E+03  0.00000000000E+00 0. -1.
         11   -1    0    0    0    0 -0.00000000000E+00 -0.00000000000E+00 -0.50000000000E+03  0.50000000000E+03  0.00000000000E+00 0. -1.
        -11    1    1    2    0    0  0.65736430456E+01 -0.30980523328E+01  0.49342178369E+03  0.49347529556E+03  0.00000000000E+00 0. -1.
         11    1    1    2    0    0  0.46322491986E+01 -0.52418340200E+01 -0.48514997449E+03  0.48520040427E+03  0.00000000000E+00 0. -1.
        -15    1    1    2    0    0 -0.47048424508E+01  0.81673920012E+01  0.12337725637E+01  0.96706648337E+01  0.17770000000E+01 0. -1.
         15    1    1    2    0    0 -0.65010497935E+01  0.17249435165E+00 -0.95055817646E+01  0.11653635330E+02  0.17770000000E+01 0.  1.
</event>
<event>
 6    1  0.1860328E-003  0.5156070E+03  0.7546771E-02  0.9365549E-01
        -11   -1    0    0    0    0  0.00000000000E+00  0.00000000000E+00  0.50000000000E+03  0.50000000000E+03  0.00000000000E+00 0. -1.
         11   -1    0    0    0    0 -0.00000000000E+00 -0.00000000000E+00 -0.50000000000E+03  0.50000000000E+03  0.00000000000E+00 0.  1.
        -11    1    1    2    0    0  0.67886455129E+01  0.82869749984E+01  0.40746182345E+03  0.40760262171E+03  0.00000000000E+00 0. -1.
         11    1    1    2    0    0 -0.76894725967E+01 -0.33357154222E+01 -0.48432043332E+03  0.48439295734E+03  0.00000000000E+00 0.  1.
        -15    1    1    2    0    0  0.11685550892E+02  0.18730362657E+02 -0.44710318886E+01  0.22594832154E+02  0.17770000000E+01 0.  1.
         15    1    1    2    0    0 -0.10784723808E+02 -0.23681622233E+02  0.81329641765E+02  0.85409588793E+02  0.17770000000E+01 0. -1.
</event>
<event>
 6    1  0.1860328E-003  0.3674104E+03  0.7546771E-02  0.9757918E-01
        -11   -1    0    0    0    0  0.00000000000E+00  0.00000000000E+00  0.50000000000E+03  0.50000000000E+03  0.00000000000E+00 0.  1.
         11   -1    0    0    0    0 -0.00000000000E+00 -0.00000000000E+00 -0.50000000000E+03  0.50000000000E+03  0.00000000000E+00 0. -1.
        -11    1    1    2    0    0  0.13910414233E+02 -0.66709731738E+00  0.12916355885E+03  0.12991216101E+03  0.00000000000E+00 0.  1.
         11    1    1    2    0    0  0.10495601887E+02 -0.11259042767E+02 -0.43017699095E+03  0.43045228219E+03  0.00000000000E+00 0. -1.
        -15    1    1    2    0    0 -0.18872359891E+02  0.12647116956E+03  0.29869475319E+03  0.32491973779E+03  0.17770000000E+01 0.  1.
         15    1    1    2    0    0 -0.55336562289E+01 -0.11454502948E+03  0.23186789105E+01  0.11471581901E+03  0.17770000000E+01 0. -1.
</event>
<event>
 6    1  0.1860328E-003  0.5055689E+03  0.7546771E-02  0.9387434E-01
        -11   -1    0    0    0    0  0.00000000000E+00  0.00000000000E+00  0.50000000000E+03  0.50000000000E+03  0.00000000000E+00 0. -1.
         11   -1    0    0    0    0 -0.00000000000E+00 -0.00000000000E+00 -0.50000000000E+03  0.50000000000E+03  0.00000000000E+00 0.  1.
        -11    1    1    2    0    0  0.63278213603E+00  0.78585006650E+01  0.45459766625E+03  0.45466602535E+03  0.00000000000E+00 0. -1.
         11    1    1    2    0    0  0.15711954102E+02 -0.43680691447E+01 -0.49416213339E+03  0.49443114749E+03  0.00000000000E+00 0.  1.
        -15    1    1    2    0    0 -0.19845900717E+02  0.18157878155E+00  0.40783052621E+02  0.45390614186E+02  0.17770000000E+01 0. -1.
         15    1    1    2    0    0  0.35011644789E+01 -0.36720103018E+01 -0.12185854808E+01  0.55122129801E+01  0.17770000000E+01 0.  1.
</event>
<event>
 6    1  0.1860328E-003  0.5417228E+03  0.7546771E-02  0.9311005E-01
        -11   -1    0    0    0    0  0.00000000000E+00  0.00000000000E+00  0.50000000000E+03  0.50000000000E+03  0.00000000000E+00 0.  1.
         11   -1    0    0    0    0 -0.00000000000E+00 -0.00000000000E+00 -0.50000000000E+03  0.50000000000E+03  0.00000000000E+00 0.  1.
        -11    1    1    2    0    0 -0.23907217663E+01 -0.21311340308E+02  0.35546099815E+03  0.35610730122E+03  0.00000000000E+00 0.  1.
         11    1    1    2    0    0  0.90307815230E+01 -0.65727029181E+01 -0.45814107867E+03  0.45827721239E+03  0.00000000000E+00 0.  1.
        -15    1    1    2    0    0 -0.20415928636E+02 -0.86788041122E+00 -0.37014598334E+02  0.42317863572E+02  0.17770000000E+01 0.  1.
         15    1    1    2    0    0  0.13775868879E+02  0.28751923637E+02  0.13969467885E+03  0.14329762281E+03  0.17770000000E+01 0. -1.
</event>
<event>
 6    1  0.1860328E-003  0.4766169E+03  0.7546771E-02  0.9453707E-01
        -11   -1    0    0    0    0  0.00000000000E+00  0.00000000000E+00  0.50000000000E+03  0.50000000000E+03  0.00000000000E+00 0.  1.
         11   -1    0    0    0    0 -0.00000000000E+00 -0.00000000000E+00 -0.50000000000E+03  0.50000000000E+03  0.00000000000E+00 0.  1.
        -11    1    1    2    0    0  0.68471609995E+01 -0.46223693628E+01  0.47029132067E+03  0.47036387639E+03  0.00000000000E+00 0.  1.
         11    1    1    2    0    0  0.10337044733E+02 -0.12049024010E+02 -0.48299433390E+03  0.48325517074E+03  0.00000000000E+00 0.  1.
        -15    1    1    2    0    0 -0.24736998515E+02  0.11336648047E+02  0.20532734674E+02  0.34134873761E+02  0.17770000000E+01 0. -1.
         15    1    1    2    0    0  0.75527927833E+01  0.53347453264E+01 -0.78297214487E+01  0.12246079107E+02  0.17770000000E+01 0.  1.
</event>
<event>
 6    1  0.1860328E-003  0.5048503E+03  0.7546771E-02  0.9389022E-01
        -11   -1    0    0    0    0  0.00000000000E+00  0.00000000000E+00  0.50000000000E+03  0.50000000000E+03  0.00000000000E+00 0. -1.
         11   -1    0    0    0    0 -0.00000000000E+00 -0.00000000000E+00 -0.50000000000E+03  0.50000000000E+03  0.00000000000E+00 0.  1.
        -11    1    1    2    0    0  0.86802024934E+01  0.12563154970E+02  0.48009557014E+03  0.48033835496E+03  0.00000000000E+00 0. -1.
         11    1    1    2    0    0  0.16391040275E+01 -0.96321732661E+01 -0.49505324533E+03  0.49514965530E+03  0.00000000000E+00 0.  1.
        -15    1    1    2    0    0  0.31398159224E-01  0.55233983576E+01  0.58649066852E+01  0.82500772534E+01  0.17770000000E+01 0. -1.
         15    1    1    2    0    0 -0.10350704680E+02 -0.84543800614E+01  0.90927685066E+01  0.16261912486E+02  0.17770000000E+01 0. -1.
</event>
<event>
 6    1  0.1860328E-003  0.5249396E+03  0.7546771E-02  0.9345672E-01
        -11   -1    0    0    0    0  0.00000000000E+00  0.00000000000E+00  0.50000000000E+03  0.50000000000E+03  0.00000000000E+00 0. -1.
         11   -1    0    0    0    0 -0.00000000000E+00 -0.00000000000E+00 -0.50000000000E+03  0.50000000000E+03  0.00000000000E+00 0. -1.
        -11    1    1    2    0    0 -0.77276888866E+01 -0.17820082070E+02  0.47466312147E+03  0.47506036604E+03  0.00000000000E+00 0. -1.
         11    1    1    2    0    0  0.12502904009E+02  0.15473764915E+01 -0.38657042982E+03  0.38677566391E+03  0.00000000000E+00 0. -1.
        -15    1    1    2    0    0 -0.69218004023E+01  0.10261006528E+02  0.23369741168E+02  0.26504756310E+02  0.17770000000E+01 0. -1.
         15    1    1    2    0    0  0.21465852799E+01  0.60116990504E+01 -0.11146243282E+03  0.11165921374E+03  0.17770000000E+01 0.  1.
</event>
<event>
 6    1  0.1860328E-003  0.5002635E+03  0.7546771E-02  0.9399220E-01
        -11   -1    0    0    0    0  0.00000000000E+00  0.00000000000E+00  0.50000000000E+03  0.50000000000E+03  0.00000000000E+00 0.  1.
         11   -1    0    0    0    0 -0.00000000000E+00 -0.00000000000E+00 -0.50000000000E+03  0.50000000000E+03  0.00000000000E+00 0.  1.
        -11    1    1    2    0    0  0.55590045693E+00 -0.27458103512E+01  0.19126371429E+03  0.19128423068E+03  0.00000000000E+00 0.  1.
         11    1    1    2    0    0 -0.73018036910E+01  0.11285994435E+01 -0.49968187033E+03  0.49973649217E+03  0.00000000000E+00 0.  1.
        -15    1    1    2    0    0  0.12160158311E+02 -0.10066598878E+01  0.20886044724E+03  0.20922410704E+03  0.17770000000E+01 0.  1.
         15    1    1    2    0    0 -0.54142550766E+01  0.26238707955E+01  0.99557708792E+02  0.99755170116E+02  0.17770000000E+01 0. -1.
</event>
<event>
 6    1  0.1860328E-003  0.5177908E+03  0.7546771E-02  0.9360858E-01
        -11   -1    0    0    0    0  0.00000000000E+00  0.00000000000E+00  0.50000000000E+03  0.50000000000E+03  0.00000000000E+00 0.  1.
         11   -1    0    0    0    0 -0.00000000000E+00 -0.00000000000E+00 -0.50000000000E+03  0.50000000000E+03  0.00000000000E+00 0. -1.
        -11    1    1    2    0    0 -0.67880440758E+01 -0.26068898541E+01  0.46619605523E+03  0.46625275906E+03  0.00000000000E+00 0.  1.
         11    1    1    2    0    0  0.15429840787E+02  0.31690494072E+01 -0.48195184852E+03  0.48220919439E+03  0.00000000000E+00 0. -1.
        -15    1    1    2    0    0  0.10936970763E+02 -0.13005857881E+02  0.21607880633E+02  0.27546831091E+02  0.17770000000E+01 0. -1.
         15    1    1    2    0    0 -0.19578767475E+02  0.12443698328E+02 -0.58520873411E+01  0.23991215458E+02  0.17770000000E+01 0.  1.
</event>
<event>
 6    1  0.1860328E-003  0.5123110E+03  0.7546771E-02  0.9372677E-01
        -11   -1    0    0    0    0  0.00000000000E+00  0.00000000000E+00  0.50000000000E+03  0.50000000000E+03  0.00000000000E+00 0. -1.
         11   -1    0    0    0    0 -0.00000000000E+00 -0.00000000000E+00 -0.50000000000E+03  0.50000000000E+03  0.00000000000E+00 0. -1.
        -11    1    1    2    0    0 -0.98412547716E+01  0.96939973425E+01  0.46340612414E+03  0.46361197112E+03  0.00000000000E+00 0. -1.
         11    1    1    2    0    0  0.69226747007E+01 -0.84196919796E+01 -0.48756717092E+03  0.48768900007E+03  0.00000000000E+00 0. -1.
        -15    1    1    2    0    0  0.63031982816E+01 -0.10972086877E+02  0.32774150729E+02  0.35176976619E+02  0.17770000000E+01 0.  1.
         15    1    1    2    0    0 -0.33846182107E+01  0.96977815139E+01 -0.86131039485E+01  0.13522052187E+02  0.17770000000E+01 0. -1.
</event>
<event>
 6    1  0.1860328E-003  0.5004731E+03  0.7546771E-02  0.9398752E-01
        -11   -1    0    0    0    0  0.00000000000E+00  0.00000000000E+00  0.50000000000E+03  0.50000000000E+03  0.00000000000E+00 0.  1.
         11   -1    0    0    0    0 -0.00000000000E+00 -0.00000000000E+00 -0.50000000000E+03  0.50000000000E+03  0.00000000000E+00 0.  1.
        -11    1    1    2    0    0  0.67494852482E+01 -0.22569024494E+01  0.49947615789E+03  0.49952685759E+03  0.00000000000E+00 0.  1.
         11    1    1    2    0    0 -0.53122553561E+01 -0.39301556045E+01 -0.39612621380E+03  0.39618132646E+03  0.00000000000E+00 0.  1.
        -15    1    1    2    0    0 -0.50787474769E+01  0.75166882414E+01 -0.56841361210E+02  0.57588126826E+02  0.17770000000E+01 0.  1.
         15    1    1    2    0    0  0.36415175848E+01 -0.13296301875E+01 -0.46508582882E+02  0.46703689120E+02  0.17770000000E+01 0. -1.
</event>
<event>
 6    1  0.1860328E-003  0.4690801E+03  0.7546771E-02  0.9471784E-01
        -11   -1    0    0    0    0  0.00000000000E+00  0.00000000000E+00  0.50000000000E+03  0.50000000000E+03  0.00000000000E+00 0.  1.
         11   -1    0    0    0    0 -0.00000000000E+00 -0.00000000000E+00 -0.50000000000E+03  0.50000000000E+03  0.00000000000E+00 0. -1.
        -11    1    1    2    0    0  0.13964165905E+02 -0.14424397969E+00  0.47695557901E+03  0.47715997641E+03  0.00000000000E+00 0.  1.
         11    1    1    2    0    0  0.10935423693E+02 -0.67457687320E+01 -0.46130749176E+03  0.46148639291E+03  0.00000000000E+00 0. -1.
        -15    1    1    2    0    0 -0.31379668479E+02 -0.25738106432E+01  0.10097843562E+02  0.33112418647E+02  0.17770000000E+01 0. -1.
         15    1    1    2    0    0  0.64800788817E+01  0.94638233548E+01 -0.25745930817E+02  0.28241212039E+02  0.17770000000E+01 0.  1.
</event>
<event>
 6    1  0.1860328E-003  0.5003962E+03  0.7546771E-02  0.9398924E-01
        -11   -1    0    0    0    0  0.00000000000E+00  0.00000000000E+00  0.50000000000E+03  0.50000000000E+03  0.00000000000E+00 0. -1.
         11   -1    0    0    0    0 -0.00000000000E+00 -0.00000000000E+00 -0.50000000000E+03  0.50000000000E+03  0.00000000000E+00 0. -1.
        -11    1    1    2    0    0 -0.14660817761E+01 -0.94358682379E+00  0.33007174754E+02  0.33053189515E+02  0.00000000000E+00 0. -1.
         11    1    1    2    0    0 -0.64447337544E+01  0.31877198780E+01 -0.49955205549E+03  0.49960379531E+03  0.00000000000E+00 0. -1.
        -15    1    1    2    0    0  0.64434450163E+01  0.93913034171E+01  0.11029300557E+03  0.11089373007E+03  0.17770000000E+01 0.  1.
         15    1    1    2    0    0  0.14673705143E+01 -0.11635436471E+02  0.35625187517E+03  0.35644928510E+03  0.17770000000E+01 0. -1.
</event>
<event>
 6    1  0.1860328E-003  0.5036783E+03  0.7546771E-02  0.9391617E-01
        -11   -1    0    0    0    0  0.00000000000E+00  0.00000000000E+00  0.50000000000E+03  0.50000000000E+03  0.00000000000E+00 0. -1.
         11   -1    0    0    0    0 -0.00000000000E+00 -0.00000000000E+00 -0.50000000000E+03  0.50000000000E+03  0.00000000000E+00 0.  1.
        -11    1    1    2    0    0 -0.75942845011E+00 -0.98731124847E+01  0.49622289997E+03  0.49632169158E+03  0.00000000000E+00 0. -1.
         11    1    1    2    0    0 -0.24877993321E+01 -0.83921168454E+01 -0.45172828152E+03  0.45181307761E+03  0.00000000000E+00 0.  1.
        -15    1    1    2    0    0 -0.89745308703E+00  0.15069960402E+02 -0.43716494851E+02  0.46283893307E+02  0.17770000000E+01 0. -1.
         15    1    1    2    0    0  0.41446808693E+01  0.31952689279E+01 -0.77812359379E+00  0.55813375061E+01  0.17770000000E+01 0.  1.
</event>
<event>
 6    1  0.1860328E-003  0.5097720E+03  0.7546771E-02  0.9378206E-01
        -11   -1    0    0    0    0  0.00000000000E+00  0.00000000000E+00  0.50000000000E+03  0.50000000000E+03  0.00000000000E+00 0.  1.
         11   -1    0    0    0    0 -0.00000000000E+00 -0.00000000000E+00 -0.50000000000E+03  0.50000000000E+03  0.00000000000E+00 0.  1.
        -11    1    1    2    0    0  0.73430931533E+01 -0.40597457833E+01  0.49015621603E+03  0.49022802721E+03  0.00000000000E+00 0.  1.
         11    1    1    2    0    0 -0.14932497445E+01  0.13068546774E+02 -0.48253042610E+03  0.48270967343E+03  0.00000000000E+00 0.  1.
        -15    1    1    2    0    0 -0.52770366197E+00 -0.27419818212E+01  0.83639347459E+01  0.89950024400E+01  0.17770000000E+01 0. -1.
         15    1    1    2    0    0 -0.53221397468E+01 -0.62668191695E+01 -0.15989724669E+02  0.18067296920E+02  0.17770000000E+01 0.  1.
</event>
<event>
 6    1  0.1860328E-003  0.5143734E+03  0.7546771E-02  0.9368210E-01
        -11   -1    0    0    0    0  0.00000000000E+00  0.00000000000E+00  0.50000000000E+03  0.50000000000E+03  0.00000000000E+00 0.  1.
         11   -1    0    0    0    0 -0.00000000000E+00 -0.00000000000E+00 -0.50000000000E+03  0.50000000000E+03  0.00000000000E+00 0. -1.
        -11    1    1    2    0    0 -0.18313218346E+01  0.74934279893E+01  0.41810928330E+03  0.41818043711E+03  0.00000000000E+00 0.  1.
         11    1    1    2    0    0 -0.13604542425E+01 -0.10114730996E+02 -0.48551936036E+03  0.48562661366E+03  0.00000000000E+00 0. -1.
        -15    1    1    2    0    0  0.10677705836E+01 -0.82559535643E+01  0.79350184686E+02  0.79805453711E+02  0.17770000000E+01 0.  1.
         15    1    1    2    0    0  0.21240054935E+01  0.10877256571E+02 -0.11940107631E+02  0.16387495510E+02  0.17770000000E+01 0. -1.
</event>
<event>
 6    1  0.1860328E-003  0.5140984E+03  0.7546771E-02  0.9368805E-01
        -11   -1    0    0    0    0  0.00000000000E+00  0.00000000000E+00  0.50000000000E+03  0.50000000000E+03  0.00000000000E+00 0. -1.
         11   -1    0    0    0    0 -0.00000000000E+00 -0.00000000000E+00 -0.50000000000E+03  0.50000000000E+03  0.00000000000E+00 0. -1.
        -11    1    1    2    0    0 -0.35488428472E+01 -0.23729359108E+02  0.40489003635E+03  0.40560031843E+03  0.00000000000E+00 0. -1.
         11    1    1    2    0    0  0.21402778647E+02 -0.13353916543E+02 -0.48524629317E+03  0.48590160636E+03  0.00000000000E+00 0. -1.
        -15    1    1    2    0    0 -0.41479776677E+00  0.38288556039E+01  0.69138240129E+02  0.69268219044E+02  0.17770000000E+01 0. -1.
         15    1    1    2    0    0 -0.17439138033E+02  0.33254420047E+02  0.11218016690E+02  0.39229856174E+02  0.17770000000E+01 0.  1.
</event>
<event>
 6    1  0.1860328E-003  0.5164244E+03  0.7546771E-02  0.9363791E-01
        -11   -1    0    0    0    0  0.00000000000E+00  0.00000000000E+00  0.50000000000E+03  0.50000000000E+03  0.00000000000E+00 0. -1.
         11   -1    0    0    0    0 -0.00000000000E+00 -0.00000000000E+00 -0.50000000000E+03  0.50000000000E+03  0.00000000000E+00 0. -1.
        -11    1    1    2    0    0 -0.35980947810E+01 -0.31543443685E+01  0.34335803106E+03  0.34339137099E+03  0.00000000000E+00 0. -1.
         11    1    1    2    0    0  0.12432339082E+02 -0.27563524069E+02 -0.48262933113E+03  0.48357562199E+03  0.00000000000E+00 0. -1.
        -15    1    1    2    0    0  0.85387459143E+01  0.58258038466E+01 -0.13595667539E+02  0.17171199058E+02  0.17770000000E+01 0.  1.
         15    1    1    2    0    0 -0.17372990215E+02  0.24892064591E+02  0.15286696761E+03  0.15586180797E+03  0.17770000000E+01 0. -1.
</event>
<event>
 6    1  0.1860328E-003  0.5041385E+03  0.7546771E-02  0.9390597E-01
        -11   -1    0    0    0    0  0.00000000000E+00  0.00000000000E+00  0.50000000000E+03  0.50000000000E+03  0.00000000000E+00 0.  1.
         11   -1    0    0    0    0 -0.00000000000E+00 -0.00000000000E+00 -0.50000000000E+03  0.50000000000E+03  0.00000000000E+00 0.  1.
        -11    1    1    2    0    0  0.14520206660E+01 -0.11801300002E+02  0.49571887257E+03  0.49586145209E+03  0.00000000000E+00 0.  1.
         11    1    1    2    0    0  0.79039382205E+01  0.25297513130E+01 -0.44361043018E+03  0.44368804993E+03  0.00000000000E+00 0.  1.
        -15    1    1    2    0    0 -0.13360933293E+02  0.37062879532E+01 -0.51474818570E+02  0.53339158080E+02  0.17770000000E+01 0.  1.
         15    1    1    2    0    0  0.40049744068E+01  0.55652607353E+01 -0.63362382159E+00  0.71113399018E+01  0.17770000000E+01 0. -1.
</event>
<event>
 6    1  0.1860328E-003  0.4637901E+03  0.7546771E-02  0.9484689E-01
        -11   -1    0    0    0    0  0.00000000000E+00  0.00000000000E+00  0.50000000000E+03  0.50000000000E+03  0.00000000000E+00 0. -1.
         11   -1    0    0    0    0 -0.00000000000E+00 -0.00000000000E+00 -0.50000000000E+03  0.50000000000E+03  0.00000000000E+00 0.  1.
        -11    1    1    2    0    0  0.43534038352E+02 -0.19463675821E+01  0.47883954853E+03  0.48081837951E+03  0.00000000000E+00 0. -1.
         11    1    1    2    0    0  0.86526082178E+01  0.41271038907E+01 -0.44862017753E+03  0.44872259170E+03  0.00000000000E+00 0.  1.
        -15    1    1    2    0    0 -0.37224219273E+01  0.10991560515E+02 -0.12560498501E+02  0.17192867101E+02  0.17770000000E+01 0. -1.
         15    1    1    2    0    0 -0.48464224643E+02 -0.13172296824E+02 -0.17658872496E+02  0.53266161685E+02  0.17770000000E+01 0.  1.
</event>
<event>
 6    1  0.1860328E-003  0.5005076E+03  0.7546771E-02  0.9398675E-01
        -11   -1    0    0    0    0  0.00000000000E+00  0.00000000000E+00  0.50000000000E+03  0.50000000000E+03  0.00000000000E+00 0. -1.
         11   -1    0    0    0    0 -0.00000000000E+00 -0.00000000000E+00 -0.50000000000E+03  0.50000000000E+03  0.00000000000E+00 0.  1.
        -11    1    1    2    0    0 -0.34793716279E+01 -0.62850623194E+01  0.49944073980E+03  0.49949240295E+03  0.00000000000E+00 0. -1.
         11    1    1    2    0    0  0.44760450373E+00  0.13710403350E+01 -0.79349756903E+02  0.79362862990E+02  0.00000000000E+00 0.  1.
        -15    1    1    2    0    0 -0.10916980487E+02  0.98786026779E+01 -0.19980647780E+03  0.20035606693E+03  0.17770000000E+01 0.  1.
         15    1    1    2    0    0  0.13948747611E+02 -0.49645806935E+01 -0.22028450509E+03  0.22078866713E+03  0.17770000000E+01 0. -1.
</event>
<event>
 6    1  0.1860328E-003  0.5002670E+03  0.7546771E-02  0.9399213E-01
        -11   -1    0    0    0    0  0.00000000000E+00  0.00000000000E+00  0.50000000000E+03  0.50000000000E+03  0.00000000000E+00 0.  1.
         11   -1    0    0    0    0 -0.00000000000E+00 -0.00000000000E+00 -0.50000000000E+03  0.50000000000E+03  0.00000000000E+00 0. -1.
        -11    1    1    2    0    0 -0.37456081768E+01 -0.57799613567E+00  0.86810182905E+02  0.86892873793E+02  0.00000000000E+00 0.  1.
         11    1    1    2    0    0  0.84695405868E+01  0.11340517199E+02 -0.49953253872E+03  0.49973302641E+03  0.00000000000E+00 0. -1.
        -15    1    1    2    0    0 -0.61462871719E+01 -0.63896632265E+01  0.39078729961E+03  0.39089189798E+03  0.17770000000E+01 0.  1.
         15    1    1    2    0    0  0.14223547619E+01 -0.43728578363E+01  0.21935056208E+02  0.22482201818E+02  0.17770000000E+01 0. -1.
</event>
<event>
 6    1  0.1860328E-003  0.5114948E+03  0.7546771E-02  0.9374450E-01
        -11   -1    0    0    0    0  0.00000000000E+00  0.00000000000E+00  0.50000000000E+03  0.50000000000E+03  0.00000000000E+00 0.  1.
         11   -1    0    0    0    0 -0.00000000000E+00 -0.00000000000E+00 -0.50000000000E+03  0.50000000000E+03  0.00000000000E+00 0. -1.
        -11    1    1    2    0    0  0.20028133511E+01  0.13330442306E+02  0.41444366785E+03  0.41466283385E+03  0.00000000000E+00 0.  1.
         11    1    1    2    0    0 -0.68221020626E+01 -0.83104549524E+00 -0.48845683674E+03  0.48850518224E+03  0.00000000000E+00 0. -1.
        -15    1    1    2    0    0  0.59386059163E+01  0.15088880831E+01 -0.98748618762E+01  0.11756462459E+02  0.17770000000E+01 0. -1.
         15    1    1    2    0    0 -0.11193172047E+01 -0.14008284894E+02  0.83888030764E+02  0.85075521457E+02  0.17770000000E+01 0.  1.
</event>
<event>
 6    1  0.1860328E-003  0.4991721E+03  0.7546771E-02  0.9401664E-01
        -11   -1    0    0    0    0  0.00000000000E+00  0.00000000000E+00  0.50000000000E+03  0.50000000000E+03  0.00000000000E+00 0. -1.
         11   -1    0    0    0    0 -0.00000000000E+00 -0.00000000000E+00 -0.50000000000E+03  0.50000000000E+03  0.00000000000E+00 0. -1.
        -11    1    1    2    0    0  0.72636141570E+00  0.83778128629E+00  0.29736359071E+01  0.31736396925E+01  0.00000000000E+00 0. -1.
         11    1    1    2    0    0  0.12248786635E-01 -0.10270298711E+02 -0.49903827844E+03  0.49914394971E+03  0.00000000000E+00 0. -1.
        -15    1    1    2    0    0  0.14083801493E+02  0.22800908330E+01  0.39575538842E+03  0.39601646111E+03  0.17770000000E+01 0. -1.
         15    1    1    2    0    0 -0.14822411695E+02  0.71524265917E+01  0.10030925411E+03  0.10166594948E+03  0.17770000000E+01 0.  1.
</event>
<event>
 6    1  0.1860328E-003  0.5357929E+03  0.7546771E-02  0.9323100E-01
        -11   -1    0    0    0    0  0.00000000000E+00  0.00000000000E+00  0.50000000000E+03  0.50000000000E+03  0.00000000000E+00 0. -1.
         11   -1    0    0    0    0 -0.00000000000E+00 -0.00000000000E+00 -0.50000000000E+03  0.50000000000E+03  0.00000000000E+00 0. -1.
        -11    1    1    2    0    0 -0.10933941632E+02 -0.77161655458E+01  0.46401417981E+03  0.46420711902E+03  0.00000000000E+00 0. -1.
         11    1    1    2    0    0  0.20103959623E+02  0.37738548669E+01 -0.22962774725E+03  0.23053701109E+03  0.00000000000E+00 0. -1.
        -15    1    1    2    0    0 -0.14055768168E+02  0.12681750764E+02  0.32780198340E+02  0.37895785431E+02  0.17770000000E+01 0.  1.
         15    1    1    2    0    0  0.48857501772E+01 -0.87394400857E+01 -0.26716663090E+03  0.26736008446E+03  0.17770000000E+01 0. -1.
</event>
<event>
 6    1  0.1860328E-003  0.3704713E+03  0.7546771E-02  0.9747912E-01
        -11   -1    0    0    0    0  0.00000000000E+00  0.00000000000E+00  0.50000000000E+03  0.50000000000E+03  0.00000000000E+00 0.  1.
         11   -1    0    0    0    0 -0.00000000000E+00 -0.00000000000E+00 -0.50000000000E+03  0.50000000000E+03  0.00000000000E+00 0. -1.
        -11    1    1    2    0    0 -0.12002303061E+02  0.39383490077E+02  0.27783573599E+03  0.28086973985E+03  0.00000000000E+00 0.  1.
         11    1    1    2    0    0  0.53607964082E+00 -0.32308584828E+00 -0.41562838869E+00  0.75134067117E+00  0.00000000000E+00 0. -1.
        -15    1    1    2    0    0  0.41667408586E+02 -0.51939419651E+02  0.21488733506E+03  0.22497466691E+03  0.17770000000E+01 0.  1.
         15    1    1    2    0    0 -0.30201185165E+02  0.12879015422E+02 -0.49230744266E+03  0.49340425257E+03  0.17770000000E+01 0. -1.
</event>
<event>
 6    1  0.1860328E-003  0.5090210E+03  0.7546771E-02  0.9379848E-01
        -11   -1    0    0    0    0  0.00000000000E+00  0.00000000000E+00  0.50000000000E+03  0.50000000000E+03  0.00000000000E+00 0.  1.
         11   -1    0    0    0    0 -0.00000000000E+00 -0.00000000000E+00 -0.50000000000E+03  0.50000000000E+03  0.00000000000E+00 0. -1.
        -11    1    1    2    0    0  0.19920780737E+02 -0.58045532598E+00  0.45224824953E+03  0.45268714763E+03  0.00000000000E+00 0.  1.
         11    1    1    2    0    0 -0.22016867179E+02  0.29087839662E+01 -0.49047647035E+03  0.49097899286E+03  0.00000000000E+00 0. -1.
        -15    1    1    2    0    0  0.19167249178E+02  0.56617651679E+01  0.29020169454E+02  0.35281255505E+02  0.17770000000E+01 0.  1.
         15    1    1    2    0    0 -0.17071162736E+02 -0.79900938081E+01  0.92080513684E+01  0.21052604001E+02  0.17770000000E+01 0. -1.
</event>
<event>
 6    1  0.1860328E-003  0.5043435E+03  0.7546771E-02  0.9390143E-01
        -11   -1    0    0    0    0  0.00000000000E+00  0.00000000000E+00  0.50000000000E+03  0.50000000000E+03  0.00000000000E+00 0.  1.
         11   -1    0    0    0    0 -0.00000000000E+00 -0.00000000000E+00 -0.50000000000E+03  0.50000000000E+03  0.00000000000E+00 0. -1.
        -11    1    1    2    0    0 -0.91549163783E+00 -0.77867917760E+01  0.49559452763E+03  0.49565654244E+03  0.00000000000E+00 0.  1.
         11    1    1    2    0    0  0.77731017974E+01  0.47574124807E+01 -0.48502353941E+03  0.48510915047E+03  0.00000000000E+00 0. -1.
        -15    1    1    2    0    0 -0.24396697961E+01  0.83578557482E+01 -0.65016845384E+01  0.11010693541E+02  0.17770000000E+01 0.  1.
         15    1    1    2    0    0 -0.44179403634E+01 -0.53284764530E+01 -0.40693036789E+01  0.82236135485E+01  0.17770000000E+01 0.  1.
</event>
<event>
 6    1  0.1860328E-003  0.5322347E+03  0.7546771E-02  0.9330437E-01
        -11   -1    0    0    0    0  0.00000000000E+00  0.00000000000E+00  0.50000000000E+03  0.50000000000E+03  0.00000000000E+00 0.  1.
         11   -1    0    0    0    0 -0.00000000000E+00 -0.00000000000E+00 -0.50000000000E+03  0.50000000000E+03  0.00000000000E+00 0. -1.
        -11    1    1    2    0    0  0.13739244050E+02 -0.59675533098E+02  0.40863061783E+03  0.41319355985E+03  0.00000000000E+00 0.  1.
         11    1    1    2    0    0  0.34655111421E+01 -0.74288201429E+01 -0.46769343569E+03  0.46776526905E+03  0.00000000000E+00 0. -1.
        -15    1    1    2    0    0 -0.19671122631E+02  0.72708352252E+02  0.72254135314E+02  0.10439001557E+03  0.17770000000E+01 0.  1.
         15    1    1    2    0    0  0.24663674389E+01 -0.56039990107E+01 -0.13191317447E+02  0.14651155525E+02  0.17770000000E+01 0. -1.
</event>
<event>
 6    1  0.1860328E-003  0.5037348E+03  0.7546771E-02  0.9391491E-01
        -11   -1    0    0    0    0  0.00000000000E+00  0.00000000000E+00  0.50000000000E+03  0.50000000000E+03  0.00000000000E+00 0. -1.
         11   -1    0    0    0    0 -0.00000000000E+00 -0.00000000000E+00 -0.50000000000E+03  0.50000000000E+03  0.00000000000E+00 0. -1.
        -11    1    1    2    0    0  0.37142329280E+01  0.15346211000E+02  0.49601392141E+03  0.49626516294E+03  0.00000000000E+00 0. -1.
         11    1    1    2    0    0 -0.66640181371E+01  0.53730449190E+01 -0.44128210631E+03  0.44136512787E+03  0.00000000000E+00 0. -1.
        -15    1    1    2    0    0 -0.47980588110E+01 -0.13881940913E+01 -0.27683449715E+02  0.28186513944E+02  0.17770000000E+01 0.  1.
         15    1    1    2    0    0  0.77478440201E+01 -0.19331061828E+02 -0.27048365379E+02  0.34183195243E+02  0.17770000000E+01 0. -1.
</event>
<event>
 6    1  0.1860328E-003  0.5307403E+03  0.7546771E-02  0.9333537E-01
        -11   -1    0    0    0    0  0.00000000000E+00  0.00000000000E+00  0.50000000000E+03  0.50000000000E+03  0.00000000000E+00 0. -1.
         11   -1    0    0    0    0 -0.00000000000E+00 -0.00000000000E+00 -0.50000000000E+03  0.50000000000E+03  0.00000000000E+00 0.  1.
        -11    1    1    2    0    0 -0.33945019925E+02 -0.67519201529E+02  0.33417174225E+03  0.34261036218E+03  0.00000000000E+00 0. -1.
         11    1    1    2    0    0 -0.26835002808E+01  0.16512406664E+02 -0.46896138675E+03  0.46925967546E+03  0.00000000000E+00 0.  1.
        -15    1    1    2    0    0  0.37647708186E+02  0.59389843589E+02  0.15277027392E+03  0.16818566460E+03  0.17770000000E+01 0. -1.
         15    1    1    2    0    0 -0.10191879803E+01 -0.83830487238E+01 -0.17980629419E+02  0.19944297765E+02  0.17770000000E+01 0.  1.
</event>
<event>
 6    1  0.4335770E-003  0.5102577E+03  0.7546771E-02  0.9377145E-01
        -11   -1    0    0    0    0  0.00000000000E+00  0.00000000000E+00  0.50000000000E+03  0.50000000000E+03  0.00000000000E+00 0. -1.
         11   -1    0    0    0    0 -0.00000000000E+00 -0.00000000000E+00 -0.50000000000E+03  0.50000000000E+03  0.00000000000E+00 0. -1.
        -11    1    1    2    0    0 -0.39078191198E+01  0.30977408879E+01  0.31738564812E+03  0.31742482052E+03  0.00000000000E+00 0. -1.
         11    1    1    2    0    0 -0.12589980487E+01 -0.16693659838E+02 -0.48945605865E+03  0.48974227580E+03  0.00000000000E+00 0. -1.
        -15    1    1    2    0    0  0.23464925953E+01  0.10733861896E+02 -0.73633549823E+01  0.13345356656E+02  0.17770000000E+01 0. -1.
         15    1    1    2    0    0  0.28203245732E+01  0.28620570546E+01  0.17943376552E+03  0.17948754703E+03  0.17770000000E+01 0.  1.
</event>
<event>
 6    1  0.1860328E-003  0.5028353E+03  0.7546771E-02  0.9393488E-01
        -11   -1    0    0    0    0  0.00000000000E+00  0.00000000000E+00  0.50000000000E+03  0.50000000000E+03  0.00000000000E+00 0.  1.
         11   -1    0    0    0    0 -0.00000000000E+00 -0.00000000000E+00 -0.50000000000E+03  0.50000000000E+03  0.00000000000E+00 0.  1.
        -11    1    1    2    0    0  0.10884682080E+02 -0.14371102843E+02  0.31033640793E+03  0.31085960012E+03  0.00000000000E+00 0.  1.
         11    1    1    2    0    0  0.53246763795E+01 -0.87328086700E+01 -0.49705950902E+03  0.49716473088E+03  0.00000000000E+00 0.  1.
        -15    1    1    2    0    0 -0.12157256340E+02  0.24940312502E+02  0.72437945958E+02  0.77590152810E+02  0.17770000000E+01 0.  1.
         15    1    1    2    0    0 -0.40521021196E+01 -0.18364009891E+01  0.11428515514E+03  0.11438551619E+03  0.17770000000E+01 0. -1.
</event>
<event>
 6    1  0.1860328E-003  0.5028897E+03  0.7546771E-02  0.9393367E-01
        -11   -1    0    0    0    0  0.00000000000E+00  0.00000000000E+00  0.50000000000E+03  0.50000000000E+03  0.00000000000E+00 0. -1.
         11   -1    0    0    0    0 -0.00000000000E+00 -0.00000000000E+00 -0.50000000000E+03  0.50000000000E+03  0.00000000000E+00 0. -1.
        -11    1    1    2    0    0  0.56512590378E+01 -0.40393152762E+01  0.49706176051E+03  0.49711029617E+03  0.00000000000E+00 0. -1.
         11    1    1    2    0    0  0.13140004943E+02  0.37202130808E+01 -0.38271461391E+03  0.38295819016E+03  0.00000000000E+00 0. -1.
        -15    1    1    2    0    0 -0.15865138631E+02 -0.34875913228E+01 -0.21808316335E+02  0.27251170752E+02  0.17770000000E+01 0. -1.
         15    1    1    2    0    0 -0.29261253504E+01  0.38066935182E+01 -0.92538830271E+02  0.92680342911E+02  0.17770000000E+01 0.  1.
</event>
<event>
 6    1  0.1860328E-003  0.5007503E+03  0.7546771E-02  0.9398132E-01
        -11   -1    0    0    0    0  0.00000000000E+00  0.00000000000E+00  0.50000000000E+03  0.50000000000E+03  0.00000000000E+00 0. -1.
         11   -1    0    0    0    0 -0.00000000000E+00 -0.00000000000E+00 -0.50000000000E+03  0.50000000000E+03  0.00000000000E+00 0. -1.
        -11    1    1    2    0    0  0.81062860682E+01  0.88609435527E+01  0.49910521349E+03  0.49924967935E+03  0.00000000000E+00 0. -1.
         11    1    1    2    0    0  0.12239712547E+01 -0.28274182795E+01 -0.19966679179E+03  0.19969056097E+03  0.00000000000E+00 0. -1.
        -15    1    1    2    0    0 -0.10477101178E+02  0.70828560623E+01 -0.23045635234E+03  0.23080993168E+03  0.17770000000E+01 0. -1.
         15    1    1    2    0    0  0.11468438548E+01 -0.13116381335E+02 -0.68982069367E+02  0.70249827995E+02  0.17770000000E+01 0.  1.
</event>
<event>
 6    1  0.3425165E-003  0.5118596E+03  0.7546771E-02  0.9373657E-01
        -11   -1    0    0    0    0  0.00000000000E+00  0.00000000000E+00  0.50000000000E+03  0.50000000000E+03  0.00000000000E+00 0. -1.
         11   -1    0    0    0    0 -0.00000000000E+00 -0.00000000000E+00 -0.50000000000E+03  0.50000000000E+03  0.00000000000E+00 0.  1.
        -11    1    1    2    0    0 -0.63816314855E+01 -0.71208258377E+00  0.46022967965E+03  0.46027447281E+03  0.00000000000E+00 0. -1.
         11    1    1    2    0    0  0.83998084333E+01  0.11284006313E+01 -0.48806684211E+03  0.48814042286E+03  0.00000000000E+00 0.  1.
        -15    1    1    2    0    0  0.54484055457E+01  0.14924752231E+01  0.38139801281E+02  0.38596823393E+02  0.17770000000E+01 0. -1.
         15    1    1    2    0    0 -0.74665824936E+01 -0.19087932707E+01 -0.10302638828E+02  0.12988280937E+02  0.17770000000E+01 0.  1.
</event>
<event>
 6    1  0.1860328E-003  0.5315997E+03  0.7546771E-02  0.9331753E-01
        -11   -1    0    0    0    0  0.00000000000E+00  0.00000000000E+00  0.50000000000E+03  0.50000000000E+03  0.00000000000E+00 0. -1.
         11   -1    0    0    0    0 -0.00000000000E+00 -0.00000000000E+00 -0.50000000000E+03  0.50000000000E+03  0.00000000000E+00 0. -1.
        -11    1    1    2    0    0  0.19196138280E+01  0.38384658725E+02  0.37206566954E+03  0.37404535740E+03  0.00000000000E+00 0. -1.
         11    1    1    2    0    0  0.60607476445E+01 -0.85686523918E+01 -0.46828273774E+03  0.46840033831E+03  0.00000000000E+00 0. -1.
        -15    1    1    2    0    0  0.29209552948E+02  0.36348252229E+02  0.22779388487E+02  0.51927369396E+02  0.17770000000E+01 0.  1.
         15    1    1    2    0    0 -0.37189914421E+02 -0.66164258562E+02  0.73437679714E+02  0.10562693490E+03  0.17770000000E+01 0. -1.
</event>
<event>
 6    1  0.1860328E-003  0.5000941E+03  0.7546771E-02  0.9399599E-01
        -11   -1    0    0    0    0  0.00000000000E+00  0.00000000000E+00  0.50000000000E+03  0.50000000000E+03  0.00000000000E+00 0. -1.
         11   -1    0    0    0    0 -0.00000000000E+00 -0.00000000000E+00 -0.50000000000E+03  0.50000000000E+03  0.00000000000E+00 0. -1.
        -11    1    1    2    0    0  0.66251885913E+01  0.81087441834E+01  0.49979624847E+03  0.49990592599E+03  0.00000000000E+00 0. -1.
         11    1    1    2    0    0  0.16727953072E+01 -0.82492626698E+00 -0.94465784162E+02  0.94484195106E+02  0.00000000000E+00 0. -1.
        -15    1    1    2    0    0 -0.35880205176E+01 -0.54284704917E+01 -0.97674511610E+02  0.97907150557E+02  0.17770000000E+01 0.  1.
         15    1    1    2    0    0 -0.47099633809E+01 -0.18553474247E+01 -0.30765595270E+03  0.30770272834E+03  0.17770000000E+01 0. -1.
</event>
<event>
 6    1  0.1860328E-003  0.5011617E+03  0.7546771E-02  0.9397214E-01
        -11   -1    0    0    0    0  0.00000000000E+00  0.00000000000E+00  0.50000000000E+03  0.50000000000E+03  0.00000000000E+00 0.  1.
         11   -1    0    0    0    0 -0.00000000000E+00 -0.00000000000E+00 -0.50000000000E+03  0.50000000000E+03  0.00000000000E+00 0. -1.
        -11    1    1    2    0    0  0.26236310284E+01 -0.74428795260E+01  0.35028961489E+03  0.35037850133E+03  0.00000000000E+00 0.  1.
         11    1    1    2    0    0  0.17100711647E+01 -0.11421937861E+02 -0.49870459369E+03  0.49883830725E+03  0.00000000000E+00 0. -1.
        -15    1    1    2    0    0 -0.44821116348E+01  0.18222684456E+02  0.14746187064E+03  0.14866175223E+03  0.17770000000E+01 0. -1.
         15    1    1    2    0    0  0.14840944174E+00  0.64213293100E+00  0.95310815785E+00  0.21214391870E+01  0.17770000000E+01 0.  1.
</event>
<event>
 6    1  0.1860328E-003  0.5212281E+03  0.7546771E-02  0.9353524E-01
        -11   -1    0    0    0    0  0.00000000000E+00  0.00000000000E+00  0.50000000000E+03  0.50000000000E+03  0.00000000000E+00 0. -1.
         11   -1    0    0    0    0 -0.00000000000E+00 -0.00000000000E+00 -0.50000000000E+03  0.50000000000E+03  0.00000000000E+00 0.  1.
        -11    1    1    2    0    0  0.15580103773E+02  0.18428290288E+00  0.46449731733E+03  0.46475857324E+03  0.00000000000E+00 0. -1.
         11    1    1    2    0    0  0.50731616723E+01  0.45391085194E+01 -0.47872350539E+03  0.47877190299E+03  0.00000000000E+00 0.  1.
        -15    1    1    2    0    0 -0.15748818035E+02  0.36949998003E+01  0.32125958064E+02  0.36012681149E+02  0.17770000000E+01 0. -1.
         15    1    1    2    0    0 -0.49044474108E+01 -0.84183912226E+01 -0.17899769996E+02  0.20456842623E+02  0.17770000000E+01 0.  1.
</event>
<event>
 6    1  0.1860328E-003  0.4820153E+03  0.7546771E-02  0.9440976E-01
        -11   -1    0    0    0    0  0.00000000000E+00  0.00000000000E+00  0.50000000000E+03  0.50000000000E+03  0.00000000000E+00 0.  1.
         11   -1    0    0    0    0 -0.00000000000E+00 -0.00000000000E+00 -0.50000000000E+03  0.50000000000E+03  0.00000000000E+00 0.  1.
        -11    1    1    2    0    0 -0.67072168020E+01 -0.32900185021E+01  0.48113736256E+03  0.48119535807E+03  0.00000000000E+00 0.  1.
         11    1    1    2    0    0 -0.93191691051E+00 -0.67704189903E+01 -0.48287117014E+03  0.48291953159E+03  0.00000000000E+00 0.  1.
        -15    1    1    2    0    0  0.93527812105E+00  0.57164547120E+01  0.17282805720E+02  0.18314084803E+02  0.17770000000E+01 0. -1.
         15    1    1    2    0    0  0.67038555915E+01  0.43439827804E+01 -0.15548998141E+02  0.17571025536E+02  0.17770000000E+01 0.  1.
</event>
<event>
 6    1  0.1860328E-003  0.5231850E+03  0.7546771E-02  0.9349376E-01
        -11   -1    0    0    0    0  0.00000000000E+00  0.00000000000E+00  0.50000000000E+03  0.50000000000E+03  0.00000000000E+00 0.  1.
         11   -1    0    0    0    0 -0.00000000000E+00 -0.00000000000E+00 -0.50000000000E+03  0.50000000000E+03  0.00000000000E+00 0. -1.
        -11    1    1    2    0    0 -0.38057583308E+01 -0.68898283130E+01  0.38648405571E+03  0.38656419757E+03  0.00000000000E+00 0.  1.
         11    1    1    2    0    0  0.10040955475E+02 -0.13834311302E+02 -0.47650852874E+03  0.47681504477E+03  0.00000000000E+00 0. -1.
        -15    1    1    2    0    0 -0.44652440653E+01  0.10377300288E+02 -0.21626117118E+02  0.24463716733E+02  0.17770000000E+01 0. -1.
         15    1    1    2    0    0 -0.17699530791E+01  0.10346839327E+02  0.11165059015E+03  0.11215704092E+03  0.17770000000E+01 0.  1.
</event>
<event>
 6    1  0.1860328E-003  0.5001542E+03  0.7546771E-02  0.9399465E-01
        -11   -1    0    0    0    0  0.00000000000E+00  0.00000000000E+00  0.50000000000E+03  0.50000000000E+03  0.00000000000E+00 0.  1.
         11   -1    0    0    0    0 -0.00000000000E+00 -0.00000000000E+00 -0.50000000000E+03  0.50000000000E+03  0.00000000000E+00 0.  1.
        -11    1    1    2    0    0  0.12443969386E+02  0.78004236216E-01  0.49969091356E+03  0.49984584379E+03  0.00000000000E+00 0.  1.
         11    1    1    2    0    0  0.25809761867E+00  0.14510870593E+01 -0.76534258064E+02  0.76548448223E+02  0.00000000000E+00 0.  1.
        -15    1    1    2    0    0 -0.14885177196E+02  0.14313604848E+01 -0.36176172559E+03  0.36207502141E+03  0.17770000000E+01 0.  1.
         15    1    1    2    0    0  0.21831101915E+01 -0.29604517803E+01 -0.61394929901E+02  0.61530686583E+02  0.17770000000E+01 0. -1.
</event>
<event>
 6    1  0.1860328E-003  0.4838847E+03  0.7546771E-02  0.9436609E-01
        -11   -1    0    0    0    0  0.00000000000E+00  0.00000000000E+00  0.50000000000E+03  0.50000000000E+03  0.00000000000E+00 0. -1.
         11   -1    0    0    0    0 -0.00000000000E+00 -0.00000000000E+00 -0.50000000000E+03  0.50000000000E+03  0.00000000000E+00 0.  1.
        -11    1    1    2    0    0 -0.29509220941E+01  0.19805753163E+02  0.48031517024E+03  0.48073239808E+03  0.00000000000E+00 0. -1.
         11    1    1    2    0    0  0.10618109463E+02 -0.92590831611E+01 -0.48694375037E+03  0.48714750424E+03  0.00000000000E+00 0.  1.
        -15    1    1    2    0    0 -0.14006468532E+02  0.12829697091E+01 -0.41977541038E+01  0.14785331938E+02  0.17770000000E+01 0. -1.
         15    1    1    2    0    0  0.63392811627E+01 -0.11829639711E+02  0.10826334232E+02  0.17334765740E+02  0.17770000000E+01 0.  1.
</event>
<event>
 6    1  0.1860328E-003  0.4641143E+03  0.7546771E-02  0.9483893E-01
        -11   -1    0    0    0    0  0.00000000000E+00  0.00000000000E+00  0.50000000000E+03  0.50000000000E+03  0.00000000000E+00 0.  1.
         11   -1    0    0    0    0 -0.00000000000E+00 -0.00000000000E+00 -0.50000000000E+03  0.50000000000E+03  0.00000000000E+00 0.  1.
        -11    1    1    2    0    0 -0.27143177932E+02  0.20699771213E+02  0.46155100046E+03  0.46281158009E+03  0.00000000000E+00 0.  1.
         11    1    1    2    0    0  0.13191870425E+02 -0.11974765460E+02 -0.46522904441E+03  0.46557006371E+03  0.00000000000E+00 0.  1.
        -15    1    1    2    0    0  0.66768797142E+01 -0.33188168389E+01  0.36616168637E+02  0.37409849005E+02  0.17770000000E+01 0. -1.
         15    1    1    2    0    0  0.72744277930E+01 -0.54061889142E+01 -0.32938124683E+02  0.34208507201E+02  0.17770000000E+01 0.  1.
</event>
<event>
 6    1  0.1860328E-003  0.5253840E+03  0.7546771E-02  0.9344736E-01
        -11   -1    0    0    0    0  0.00000000000E+00  0.00000000000E+00  0.50000000000E+03  0.50000000000E+03  0.00000000000E+00 0.  1.
         11   -1    0    0    0    0 -0.00000000000E+00 -0.00000000000E+00 -0.50000000000E+03  0.50000000000E+03  0.00000000000E+00 0. -1.
        -11    1    1    2    0    0  0.70377209899E+01 -0.40014827879E+01  0.41074988057E+03  0.41082965542E+03  0.00000000000E+00 0.  1.
         11    1    1    2    0    0  0.11945323612E+02 -0.62215778986E+00 -0.47446523135E+03  0.47461598540E+03  0.00000000000E+00 0. -1.
        -15    1    1    2    0    0 -0.20188301805E+02  0.12308774490E+02  0.86878078275E+02  0.90055714271E+02  0.17770000000E+01 0. -1.
         15    1    1    2    0    0  0.12052572034E+01 -0.76851339118E+01 -0.23162727501E+02  0.24498644911E+02  0.17770000000E+01 0.  1.
</event>
<event>
 6    1  0.1860328E-003  0.5014215E+03  0.7546771E-02  0.9396635E-01
        -11   -1    0    0    0    0  0.00000000000E+00  0.00000000000E+00  0.50000000000E+03  0.50000000000E+03  0.00000000000E+00 0. -1.
         11   -1    0    0    0    0 -0.00000000000E+00 -0.00000000000E+00 -0.50000000000E+03  0.50000000000E+03  0.00000000000E+00 0. -1.
        -11    1    1    2    0    0  0.22735148378E+01  0.63801814501E+01  0.49853246492E+03  0.49857847343E+03  0.00000000000E+00 0. -1.
         11    1    1    2    0    0 -0.67530164642E+01  0.65355403789E+01 -0.45398821737E+03  0.45408547436E+03  0.00000000000E+00 0. -1.
        -15    1    1    2    0    0  0.21781507909E+01 -0.12564628319E+02 -0.32912181623E+02  0.35340962831E+02  0.17770000000E+01 0. -1.
         15    1    1    2    0    0  0.23013508355E+01 -0.35109351023E+00 -0.11632065932E+02  0.11995089377E+02  0.17770000000E+01 0. -1.
</event>
<event>
 6    1  0.1860328E-003  0.5003727E+03  0.7546771E-02  0.9398976E-01
        -11   -1    0    0    0    0  0.00000000000E+00  0.00000000000E+00  0.50000000000E+03  0.50000000000E+03  0.00000000000E+00 0. -1.
         11   -1    0    0    0    0 -0.00000000000E+00 -0.00000000000E+00 -0.50000000000E+03  0.50000000000E+03  0.00000000000E+00 0. -1.
        -11    1    1    2    0    0  0.41156410095E+01  0.19757183005E+00  0.53230604778E+02  0.53389838177E+02  0.00000000000E+00 0. -1.
         11    1    1    2    0    0  0.12003287800E+02  0.15098270332E+02 -0.49925488091E+03  0.49962733391E+03  0.00000000000E+00 0. -1.
        -15    1    1    2    0    0 -0.11354519423E+02 -0.93838407092E+00  0.28679632339E+03  0.28702803785E+03  0.17770000000E+01 0. -1.
         15    1    1    2    0    0 -0.47644093866E+01 -0.14357458091E+02  0.15922795274E+03  0.15995479006E+03  0.17770000000E+01 0.  1.
</event>
<event>
 6    1  0.1860328E-003  0.4859190E+03  0.7546771E-02  0.9431880E-01
        -11   -1    0    0    0    0  0.00000000000E+00  0.00000000000E+00  0.50000000000E+03  0.50000000000E+03  0.00000000000E+00 0. -1.
         11   -1    0    0    0    0 -0.00000000000E+00 -0.00000000000E+00 -0.50000000000E+03  0.50000000000E+03  0.00000000000E+00 0. -1.
        -11    1    1    2    0    0  0.95340374802E+01 -0.20862626910E+01  0.48866040220E+03  0.48875785318E+03  0.00000000000E+00 0. -1.
         11    1    1    2    0    0  0.78063269858E+01 -0.44589504991E+01 -0.48318858185E+03  0.48327220757E+03  0.00000000000E+00 0. -1.
        -15    1    1    2    0    0 -0.16847862547E+02  0.32295419985E+00  0.30927224448E+01  0.17224326777E+02  0.17770000000E+01 0. -1.
         15    1    1    2    0    0 -0.49250191901E+00  0.62222589902E+01 -0.85645427958E+01  0.10745612471E+02  0.17770000000E+01 0.  1.
</event>
<event>
 6    1  0.1860328E-003  0.5004632E+03  0.7546771E-02  0.9398774E-01
        -11   -1    0    0    0    0  0.00000000000E+00  0.00000000000E+00  0.50000000000E+03  0.50000000000E+03  0.00000000000E+00 0. -1.
         11   -1    0    0    0    0 -0.00000000000E+00 -0.00000000000E+00 -0.50000000000E+03  0.50000000000E+03  0.00000000000E+00 0. -1.
        -11    1    1    2    0    0  0.25216501913E+01  0.87478480657E+01  0.49945386430E+03  0.49953683160E+03  0.00000000000E+00 0. -1.
         11    1    1    2    0    0  0.55264719701E+01 -0.34014359181E+01 -0.30550741328E+03  0.30557632635E+03  0.00000000000E+00 0. -1.
        -15    1    1    2    0    0 -0.52142882571E+01  0.10040170294E+01 -0.19375587238E+02  0.20168489335E+02  0.17770000000E+01 0.  1.
         15    1    1    2    0    0 -0.28338339043E+01 -0.63504291770E+01 -0.17457086378E+03  0.17471835272E+03  0.17770000000E+01 0. -1.
</event>
<event>
 6    1  0.1860328E-003  0.5007128E+03  0.7546771E-02  0.9398216E-01
        -11   -1    0    0    0    0  0.00000000000E+00  0.00000000000E+00  0.50000000000E+03  0.50000000000E+03  0.00000000000E+00 0. -1.
         11   -1    0    0    0    0 -0.00000000000E+00 -0.00000000000E+00 -0.50000000000E+03  0.50000000000E+03  0.00000000000E+00 0.  1.
        -11    1    1    2    0    0  0.10616347065E+02  0.14669767971E+01  0.41494890254E+03  0.41508728066E+03  0.00000000000E+00 0. -1.
         11    1    1    2    0    0 -0.46550754284E+01 -0.50719783539E+01 -0.49923972175E+03  0.49928718636E+03  0.00000000000E+00 0.  1.
        -15    1    1    2    0    0  0.35608313306E+01  0.12537921932E+01  0.13321636260E+02  0.13959772071E+02  0.17770000000E+01 0.  1.
         15    1    1    2    0    0 -0.95221029668E+01  0.23512093636E+01  0.70969182949E+02  0.71665760917E+02  0.17770000000E+01 0. -1.
</event>
<event>
 6    1  0.1860328E-003  0.5008756E+03  0.7546771E-02  0.9397853E-01
        -11   -1    0    0    0    0  0.00000000000E+00  0.00000000000E+00  0.50000000000E+03  0.50000000000E+03  0.00000000000E+00 0. -1.
         11   -1    0    0    0    0 -0.00000000000E+00 -0.00000000000E+00 -0.50000000000E+03  0.50000000000E+03  0.00000000000E+00 0.  1.
        -11    1    1    2    0    0  0.16937557850E+01 -0.74402877455E+01  0.29411501041E+03  0.29421398002E+03  0.00000000000E+00 0. -1.
         11    1    1    2    0    0 -0.39745717280E+01  0.69848835845E+01 -0.49905969306E+03  0.49912439637E+03  0.00000000000E+00 0.  1.
        -15    1    1    2    0    0 -0.59335125909E+01  0.52838859161E+01  0.17495890764E+03  0.17514823183E+03  0.17770000000E+01 0.  1.
         15    1    1    2    0    0  0.82143285340E+01 -0.48284817552E+01  0.29985775003E+02  0.31513391770E+02  0.17770000000E+01 0. -1.
</event>
<event>
 6    1  0.1860328E-003  0.5006538E+03  0.7546771E-02  0.9398348E-01
        -11   -1    0    0    0    0  0.00000000000E+00  0.00000000000E+00  0.50000000000E+03  0.50000000000E+03  0.00000000000E+00 0.  1.
         11   -1    0    0    0    0 -0.00000000000E+00 -0.00000000000E+00 -0.50000000000E+03  0.50000000000E+03  0.00000000000E+00 0. -1.
        -11    1    1    2    0    0  0.61676260850E+01  0.34723743346E+01  0.49929602485E+03  0.49934618995E+03  0.00000000000E+00 0.  1.
         11    1    1    2    0    0  0.14665761139E+01  0.23409706685E+01 -0.10447171712E+03  0.10450823253E+03  0.00000000000E+00 0. -1.
        -15    1    1    2    0    0 -0.11463230448E+02  0.13439045157E+01 -0.55297367493E+02  0.56516973666E+02  0.17770000000E+01 0.  1.
         15    1    1    2    0    0  0.38290282488E+01 -0.71572495188E+01 -0.33952694023E+03  0.33962860384E+03  0.17770000000E+01 0. -1.
</event>
<event>
 6    1  0.1860328E-003  0.5115259E+03  0.7546771E-02  0.9374383E-01
        -11   -1    0    0    0    0  0.00000000000E+00  0.00000000000E+00  0.50000000000E+03  0.50000000000E+03  0.00000000000E+00 0.  1.
         11   -1    0    0    0    0 -0.00000000000E+00 -0.00000000000E+00 -0.50000000000E+03  0.50000000000E+03  0.00000000000E+00 0.  1.
        -11    1    1    2    0    0  0.25863409513E+01 -0.10438918209E+02  0.48835572353E+03  0.48847412713E+03  0.00000000000E+00 0.  1.
         11    1    1    2    0    0 -0.31600356439E+01 -0.74706927125E+01 -0.46910212343E+03  0.46917224905E+03  0.00000000000E+00 0.  1.
        -15    1    1    2    0    0 -0.23111435867E+01  0.49069281237E+01  0.92342989718E+01  0.10855843348E+02  0.17770000000E+01 0. -1.
         15    1    1    2    0    0  0.28848382792E+01  0.13002682797E+02 -0.28487899076E+02  0.31497780471E+02  0.17770000000E+01 0.  1.
</event>
<event>
 6    1  0.1860328E-003  0.5023881E+03  0.7546771E-02  0.9394482E-01
        -11   -1    0    0    0    0  0.00000000000E+00  0.00000000000E+00  0.50000000000E+03  0.50000000000E+03  0.00000000000E+00 0. -1.
         11   -1    0    0    0    0 -0.00000000000E+00 -0.00000000000E+00 -0.50000000000E+03  0.50000000000E+03  0.00000000000E+00 0.  1.
        -11    1    1    2    0    0  0.44860475957E+02 -0.76282365204E+01  0.49552693549E+03  0.49761189303E+03  0.00000000000E+00 0. -1.
         11    1    1    2    0    0  0.61749175228E+01 -0.91600864228E+01 -0.16630938223E+03  0.16667587530E+03  0.00000000000E+00 0.  1.
        -15    1    1    2    0    0 -0.55441127165E+02  0.93278507964E+01 -0.29818592286E+03  0.30344477208E+03  0.17770000000E+01 0. -1.
         15    1    1    2    0    0  0.44057336851E+01  0.74604721468E+01 -0.31031630395E+02  0.32267459582E+02  0.17770000000E+01 0.  1.
</event>
<event>
 6    1  0.1860328E-003  0.5029168E+03  0.7546771E-02  0.9393307E-01
        -11   -1    0    0    0    0  0.00000000000E+00  0.00000000000E+00  0.50000000000E+03  0.50000000000E+03  0.00000000000E+00 0. -1.
         11   -1    0    0    0    0 -0.00000000000E+00 -0.00000000000E+00 -0.50000000000E+03  0.50000000000E+03  0.00000000000E+00 0.  1.
        -11    1    1    2    0    0  0.53732296500E+01 -0.19420587245E+01  0.34204537823E+03  0.34209309253E+03  0.00000000000E+00 0. -1.
         11    1    1    2    0    0 -0.10684837655E+02  0.10476711685E+02 -0.49685791072E+03  0.49708320298E+03  0.00000000000E+00 0.  1.
        -15    1    1    2    0    0 -0.87233044381E+00 -0.34860938914E+00 -0.24769911968E+01  0.31899378204E+01  0.17770000000E+01 0.  1.
         15    1    1    2    0    0  0.61839384487E+01 -0.81860435709E+01  0.15728952368E+03  0.15763376667E+03  0.17770000000E+01 0. -1.
</event>
<event>
 6    1  0.1860328E-003  0.5032353E+03  0.7546771E-02  0.9392599E-01
        -11   -1    0    0    0    0  0.00000000000E+00  0.00000000000E+00  0.50000000000E+03  0.50000000000E+03  0.00000000000E+00 0.  1.
         11   -1    0    0    0    0 -0.00000000000E+00 -0.00000000000E+00 -0.50000000000E+03  0.50000000000E+03  0.00000000000E+00 0.  1.
        -11    1    1    2    0    0  0.21472712904E+01  0.68898858356E+01  0.49671224595E+03  0.49676466922E+03  0.00000000000E+00 0.  1.
         11    1    1    2    0    0  0.15911196596E+02  0.16829328757E+02 -0.12389434531E+03  0.12604047478E+03  0.00000000000E+00 0.  1.
        -15    1    1    2    0    0 -0.12614148433E+02 -0.15275888340E+02 -0.36114286451E+03  0.36169019315E+03  0.17770000000E+01 0.  1.
         15    1    1    2    0    0 -0.54443194530E+01 -0.84433262521E+01 -0.11675036141E+02  0.15504662860E+02  0.17770000000E+01 0.  1.
</event>
<event>
 6    1  0.1860328E-003  0.5031639E+03  0.7546771E-02  0.9392758E-01
        -11   -1    0    0    0    0  0.00000000000E+00  0.00000000000E+00  0.50000000000E+03  0.50000000000E+03  0.00000000000E+00 0.  1.
         11   -1    0    0    0    0 -0.00000000000E+00 -0.00000000000E+00 -0.50000000000E+03  0.50000000000E+03  0.00000000000E+00 0. -1.
        -11    1    1    2    0    0  0.13513721534E+02  0.38838139766E+01  0.36291563909E+03  0.36318792074E+03  0.00000000000E+00 0.  1.
         11    1    1    2    0    0 -0.72495910106E+01  0.42608024214E+01 -0.49676493063E+03  0.49683609703E+03  0.00000000000E+00 0. -1.
        -15    1    1    2    0    0  0.34083390410E+01  0.53823355507E+01  0.17762460922E+01  0.68482910408E+01  0.17770000000E+01 0. -1.
         15    1    1    2    0    0 -0.96724695642E+01 -0.13526951949E+02  0.13207304545E+03  0.13312769119E+03  0.17770000000E+01 0.  1.
</event>
<event>
 6    1  0.1860328E-003  0.5020359E+03  0.7546771E-02  0.9395266E-01
        -11   -1    0    0    0    0  0.00000000000E+00  0.00000000000E+00  0.50000000000E+03  0.50000000000E+03  0.00000000000E+00 0. -1.
         11   -1    0    0    0    0 -0.00000000000E+00 -0.00000000000E+00 -0.50000000000E+03  0.50000000000E+03  0.00000000000E+00 0.  1.
        -11    1    1    2    0    0 -0.57221897733E+01  0.42678014065E+01  0.42703117334E+03  0.42709083412E+03  0.00000000000E+00 0. -1.
         11    1    1    2    0    0 -0.74958764229E+01 -0.96836502545E+01 -0.49781346473E+03  0.49796406187E+03  0.00000000000E+00 0.  1.
        -15    1    1    2    0    0  0.26775273749E+01 -0.23248737575E+01  0.51063239748E+02  0.51217051588E+02  0.17770000000E+01 0.  1.
         15    1    1    2    0    0  0.10540538821E+02  0.77407226056E+01  0.19719051642E+02  0.23728052423E+02  0.17770000000E+01 0. -1.
</event>
<event>
 6    1  0.1860328E-003  0.5060606E+03  0.7546771E-02  0.9386350E-01
        -11   -1    0    0    0    0  0.00000000000E+00  0.00000000000E+00  0.50000000000E+03  0.50000000000E+03  0.00000000000E+00 0. -1.
         11   -1    0    0    0    0 -0.00000000000E+00 -0.00000000000E+00 -0.50000000000E+03  0.50000000000E+03  0.00000000000E+00 0. -1.
        -11    1    1    2    0    0 -0.54709211919E+01 -0.14912852901E+02  0.43590583105E+03  0.43619516011E+03  0.00000000000E+00 0. -1.
         11    1    1    2    0    0 -0.59886876984E+01 -0.16058525662E+02 -0.49364200673E+03  0.49393944107E+03  0.00000000000E+00 0. -1.
        -15    1    1    2    0    0  0.20072138605E+00  0.14074113482E+02  0.84067628248E+01  0.16490977823E+02  0.17770000000E+01 0.  1.
         15    1    1    2    0    0  0.11258887504E+02  0.16897265081E+02  0.49329412857E+02  0.53374420997E+02  0.17770000000E+01 0. -1.
</event>
<event>
 6    1  0.1860328E-003  0.5037785E+03  0.7546771E-02  0.9391394E-01
        -11   -1    0    0    0    0  0.00000000000E+00  0.00000000000E+00  0.50000000000E+03  0.50000000000E+03  0.00000000000E+00 0. -1.
         11   -1    0    0    0    0 -0.00000000000E+00 -0.00000000000E+00 -0.50000000000E+03  0.50000000000E+03  0.00000000000E+00 0.  1.
        -11    1    1    2    0    0 -0.69337705744E+01 -0.16795249779E+01  0.49617016771E+03  0.49622145591E+03  0.00000000000E+00 0. -1.
         11    1    1    2    0    0 -0.51363239661E+01  0.69594444981E+01 -0.47708610208E+03  0.47716450464E+03  0.00000000000E+00 0.  1.
        -15    1    1    2    0    0  0.12400935158E+02 -0.81786707517E+01 -0.16844259318E+02  0.22529106708E+02  0.17770000000E+01 0. -1.
         15    1    1    2    0    0 -0.33084061756E+00  0.28987512315E+01 -0.22398063118E+01  0.40849327449E+01  0.17770000000E+01 0.  1.
</event>
<event>
 6    1  0.1860328E-003  0.5020382E+03  0.7546771E-02  0.9395261E-01
        -11   -1    0    0    0    0  0.00000000000E+00  0.00000000000E+00  0.50000000000E+03  0.50000000000E+03  0.00000000000E+00 0. -1.
         11   -1    0    0    0    0 -0.00000000000E+00 -0.00000000000E+00 -0.50000000000E+03  0.50000000000E+03  0.00000000000E+00 0.  1.
        -11    1    1    2    0    0 -0.99110851768E+00 -0.45443491903E+01  0.32121861486E+03  0.32125228706E+03  0.00000000000E+00 0. -1.
         11    1    1    2    0    0  0.74989049623E+01  0.33867744962E+01 -0.49789378842E+03  0.49796177400E+03  0.00000000000E+00 0.  1.
        -15    1    1    2    0    0 -0.92660914916E+01  0.14435252943E+01  0.91296465362E+01  0.13208042689E+02  0.17770000000E+01 0.  1.
         15    1    1    2    0    0  0.27582950470E+01 -0.28595060016E+00  0.16754552702E+03  0.16757789625E+03  0.17770000000E+01 0. -1.
</event>
<event>
 6    1  0.1860328E-003  0.5053838E+03  0.7546771E-02  0.9387843E-01
        -11   -1    0    0    0    0  0.00000000000E+00  0.00000000000E+00  0.50000000000E+03  0.50000000000E+03  0.00000000000E+00 0.  1.
         11   -1    0    0    0    0 -0.00000000000E+00 -0.00000000000E+00 -0.50000000000E+03  0.50000000000E+03  0.00000000000E+00 0. -1.
        -11    1    1    2    0    0 -0.15750489125E+02  0.18189398769E+00  0.32966521365E+03  0.33004130663E+03  0.00000000000E+00 0.  1.
         11    1    1    2    0    0 -0.45991027943E+01  0.72497862442E+01 -0.49454167225E+03  0.49461619134E+03  0.00000000000E+00 0. -1.
        -15    1    1    2    0    0 -0.18582764646E+02 -0.88804040621E+01  0.57054163779E+02  0.60683737951E+02  0.17770000000E+01 0. -1.
         15    1    1    2    0    0  0.38932356565E+02  0.14487238302E+01  0.10782229482E+03  0.11465876407E+03  0.17770000000E+01 0.  1.
</event>
<event>
 6    1  0.1860328E-003  0.5025509E+03  0.7546771E-02  0.9394120E-01
        -11   -1    0    0    0    0  0.00000000000E+00  0.00000000000E+00  0.50000000000E+03  0.50000000000E+03  0.00000000000E+00 0.  1.
         11   -1    0    0    0    0 -0.00000000000E+00 -0.00000000000E+00 -0.50000000000E+03  0.50000000000E+03  0.00000000000E+00 0. -1.
        -11    1    1    2    0    0  0.54405844928E+01 -0.93677549794E+01  0.43819110395E+03  0.43832499173E+03  0.00000000000E+00 0.  1.
         11    1    1    2    0    0 -0.68276797642E+01  0.28499280392E+01 -0.49739408913E+03  0.49744911217E+03  0.00000000000E+00 0. -1.
        -15    1    1    2    0    0  0.35661881767E+01 -0.64489443443E+01  0.41032123115E+02  0.41726483647E+02  0.17770000000E+01 0.  1.
         15    1    1    2    0    0 -0.21790929053E+01  0.12966771285E+02  0.18170862064E+02  0.22499412450E+02  0.17770000000E+01 0. -1.
</event>
<event>
 6    1  0.1860328E-003  0.5002295E+03  0.7546771E-02  0.9399296E-01
        -11   -1    0    0    0    0  0.00000000000E+00  0.00000000000E+00  0.50000000000E+03  0.50000000000E+03  0.00000000000E+00 0. -1.
         11   -1    0    0    0    0 -0.00000000000E+00 -0.00000000000E+00 -0.50000000000E+03  0.50000000000E+03  0.00000000000E+00 0.  1.
        -11    1    1    2    0    0  0.75964053980E+01  0.67952452509E+01  0.49966655070E+03  0.49977048995E+03  0.00000000000E+00 0. -1.
         11    1    1    2    0    0 -0.20453510615E-01 -0.29366162969E+01 -0.89089233112E+02  0.89137621631E+02  0.00000000000E+00 0.  1.
        -15    1    1    2    0    0 -0.75292963974E+01 -0.75136820899E+01 -0.11935902658E+03  0.11984523636E+03  0.17770000000E+01 0. -1.
         15    1    1    2    0    0 -0.46655489957E-01  0.36550531359E+01 -0.29121829101E+03  0.29124665206E+03  0.17770000000E+01 0.  1.
</event>
<event>
 6    1  0.1860328E-003  0.5085475E+03  0.7546771E-02  0.9380885E-01
        -11   -1    0    0    0    0  0.00000000000E+00  0.00000000000E+00  0.50000000000E+03  0.50000000000E+03  0.00000000000E+00 0.  1.
         11   -1    0    0    0    0 -0.00000000000E+00 -0.00000000000E+00 -0.50000000000E+03  0.50000000000E+03  0.00000000000E+00 0.  1.
        -11    1    1    2    0    0  0.42114697606E+01 -0.67398475707E+01  0.48653204749E+03  0.48659695361E+03  0.00000000000E+00 0.  1.
         11    1    1    2    0    0 -0.67625724202E+01  0.12262741447E+02 -0.49125296883E+03  0.49145252731E+03  0.00000000000E+00 0.  1.
        -15    1    1    2    0    0  0.57965552639E+00 -0.68959127914E+01 -0.69113657660E+01  0.99405391960E+01  0.17770000000E+01 0. -1.
         15    1    1    2    0    0  0.19714471332E+01  0.13730189152E+01  0.11632287099E+02  0.12009979888E+02  0.17770000000E+01 0.  1.
</event>
<event>
 6    1  0.1860328E-003  0.5005206E+03  0.7546771E-02  0.9398646E-01
        -11   -1    0    0    0    0  0.00000000000E+00  0.00000000000E+00  0.50000000000E+03  0.50000000000E+03  0.00000000000E+00 0. -1.
         11   -1    0    0    0    0 -0.00000000000E+00 -0.00000000000E+00 -0.50000000000E+03  0.50000000000E+03  0.00000000000E+00 0.  1.
        -11    1    1    2    0    0  0.67377686433E+01  0.56320260180E+01  0.26091970514E+03  0.26106744296E+03  0.00000000000E+00 0. -1.
         11    1    1    2    0    0  0.52588225684E+01 -0.65097598978E+01 -0.49940925211E+03  0.49947936221E+03  0.00000000000E+00 0.  1.
        -15    1    1    2    0    0 -0.10411462738E+02 -0.39049176049E+00  0.23383149980E+03  0.23407024387E+03  0.17770000000E+01 0.  1.
         15    1    1    2    0    0 -0.15851284736E+01  0.12682256402E+01  0.46580471673E+01  0.53829509532E+01  0.17770000000E+01 0. -1.
</event>
<event>
 6    1  0.1860328E-003  0.5160360E+03  0.7546771E-02  0.9364626E-01
        -11   -1    0    0    0    0  0.00000000000E+00  0.00000000000E+00  0.50000000000E+03  0.50000000000E+03  0.00000000000E+00 0. -1.
         11   -1    0    0    0    0 -0.00000000000E+00 -0.00000000000E+00 -0.50000000000E+03  0.50000000000E+03  0.00000000000E+00 0. -1.
        -11    1    1    2    0    0 -0.16434460024E+02 -0.27803962907E+02  0.48288507274E+03  0.48396399174E+03  0.00000000000E+00 0. -1.
         11    1    1    2    0    0 -0.81654107636E+01  0.10623869798E+02 -0.22153480364E+03  0.22193965344E+03  0.00000000000E+00 0. -1.
        -15    1    1    2    0    0 -0.10030555507E+02 -0.49369670480E+02 -0.16154146457E+03  0.16922404945E+03  0.17770000000E+01 0. -1.
         15    1    1    2    0    0  0.34630426294E+02  0.66549763588E+02 -0.99808804527E+02  0.12487230537E+03  0.17770000000E+01 0.  1.
</event>
<event>
 6    1  0.1860328E-003  0.5010103E+03  0.7546771E-02  0.9397552E-01
        -11   -1    0    0    0    0  0.00000000000E+00  0.00000000000E+00  0.50000000000E+03  0.50000000000E+03  0.00000000000E+00 0. -1.
         11   -1    0    0    0    0 -0.00000000000E+00 -0.00000000000E+00 -0.50000000000E+03  0.50000000000E+03  0.00000000000E+00 0. -1.
        -11    1    1    2    0    0 -0.52495110551E+01  0.35806487667E+01  0.41879477130E+03  0.41884297640E+03  0.00000000000E+00 0. -1.
         11    1    1    2    0    0  0.74462792103E+01 -0.53319961447E+01 -0.49890560378E+03  0.49898965795E+03  0.00000000000E+00 0. -1.
        -15    1    1    2    0    0  0.14573908090E+01  0.93349169068E+01  0.45329492784E+02  0.46337730919E+02  0.17770000000E+01 0. -1.
         15    1    1    2    0    0 -0.36541589643E+01 -0.75835695289E+01  0.34781339695E+02  0.35829634725E+02  0.17770000000E+01 0.  1.
</event>
<event>
 6    1  0.1860328E-003  0.5016736E+03  0.7546771E-02  0.9396073E-01
        -11   -1    0    0    0    0  0.00000000000E+00  0.00000000000E+00  0.50000000000E+03  0.50000000000E+03  0.00000000000E+00 0.  1.
         11   -1    0    0    0    0 -0.00000000000E+00 -0.00000000000E+00 -0.50000000000E+03  0.50000000000E+03  0.00000000000E+00 0. -1.
        -11    1    1    2    0    0  0.94426727614E+01 -0.61200342357E+01  0.49819934632E+03  0.49832640664E+03  0.00000000000E+00 0.  1.
         11    1    1    2    0    0  0.10471840589E+02  0.86254931910E+00 -0.39980507307E+03  0.39994312082E+03  0.00000000000E+00 0. -1.
        -15    1    1    2    0    0  0.15397433585E+01  0.73991939320E+00 -0.24719337997E+02  0.24841934110E+02  0.17770000000E+01 0. -1.
         15    1    1    2    0    0 -0.21454256708E+02  0.45175655234E+01 -0.73674935247E+02  0.76888538429E+02  0.17770000000E+01 0.  1.
</event>
<event>
 6    1  0.1860328E-003  0.5005725E+03  0.7546771E-02  0.9398530E-01
        -11   -1    0    0    0    0  0.00000000000E+00  0.00000000000E+00  0.50000000000E+03  0.50000000000E+03  0.00000000000E+00 0.  1.
         11   -1    0    0    0    0 -0.00000000000E+00 -0.00000000000E+00 -0.50000000000E+03  0.50000000000E+03  0.00000000000E+00 0. -1.
        -11    1    1    2    0    0 -0.85136185853E+01 -0.14061031956E+01  0.49935294021E+03  0.49942748996E+03  0.00000000000E+00 0.  1.
         11    1    1    2    0    0 -0.10034401976E+01  0.38941277204E+01 -0.12592062471E+03  0.12598481992E+03  0.00000000000E+00 0. -1.
        -15    1    1    2    0    0  0.70438443358E+01  0.23964654509E+00 -0.36625893788E+03  0.36633105312E+03  0.17770000000E+01 0. -1.
         15    1    1    2    0    0  0.24732144472E+01 -0.27276710699E+01 -0.71733776173E+01  0.82566370035E+01  0.17770000000E+01 0.  1.
</event>
<event>
 6    1  0.1860328E-003  0.5010539E+03  0.7546771E-02  0.9397455E-01
        -11   -1    0    0    0    0  0.00000000000E+00  0.00000000000E+00  0.50000000000E+03  0.50000000000E+03  0.00000000000E+00 0. -1.
         11   -1    0    0    0    0 -0.00000000000E+00 -0.00000000000E+00 -0.50000000000E+03  0.50000000000E+03  0.00000000000E+00 0.  1.
        -11    1    1    2    0    0 -0.74492235472E+01 -0.31105783270E+01  0.34816227985E+03  0.34825585385E+03  0.00000000000E+00 0. -1.
         11    1    1    2    0    0 -0.49792614443E+01 -0.15290712322E+02 -0.49868688910E+03  0.49894610158E+03  0.00000000000E+00 0.  1.
        -15    1    1    2    0    0  0.14349651177E+02  0.10363012943E+02  0.10457121709E+03  0.10607356739E+03  0.17770000000E+01 0.  1.
         15    1    1    2    0    0 -0.19211661854E+01  0.80382777060E+01  0.45953392148E+02  0.46724477171E+02  0.17770000000E+01 0. -1.
</event>
<event>
 6    1  0.1860328E-003  0.5042397E+03  0.7546771E-02  0.9390373E-01
        -11   -1    0    0    0    0  0.00000000000E+00  0.00000000000E+00  0.50000000000E+03  0.50000000000E+03  0.00000000000E+00 0.  1.
         11   -1    0    0    0    0 -0.00000000000E+00 -0.00000000000E+00 -0.50000000000E+03  0.50000000000E+03  0.00000000000E+00 0. -1.
        -11    1    1    2    0    0  0.53320333040E+00 -0.59716191796E+01  0.27586740599E+03  0.27593254652E+03  0.00000000000E+00 0.  1.
         11    1    1    2    0    0  0.21619975679E+02  0.19038853609E+02 -0.49492261690E+03  0.49576032316E+03  0.00000000000E+00 0. -1.
        -15    1    1    2    0    0 -0.32249899641E+02 -0.22248027564E+02  0.85749820930E+02  0.94293267394E+02  0.17770000000E+01 0. -1.
         15    1    1    2    0    0  0.10096720631E+02  0.91807931353E+01  0.13330538998E+03  0.13401386293E+03  0.17770000000E+01 0.  1.
</event>
<event>
 6    1  0.1860328E-003  0.5004951E+03  0.7546771E-02  0.9398703E-01
        -11   -1    0    0    0    0  0.00000000000E+00  0.00000000000E+00  0.50000000000E+03  0.50000000000E+03  0.00000000000E+00 0.  1.
         11   -1    0    0    0    0 -0.00000000000E+00 -0.00000000000E+00 -0.50000000000E+03  0.50000000000E+03  0.00000000000E+00 0. -1.
        -11    1    1    2    0    0  0.76666837450E+01  0.14767439667E+01  0.19695829210E+03  0.19711298192E+03  0.00000000000E+00 0.  1.
         11    1    1    2    0    0  0.10291202195E+02 -0.59000978611E+01 -0.49936405054E+03  0.49950492987E+03  0.00000000000E+00 0. -1.
        -15    1    1    2    0    0  0.62282698937E-01  0.30574022387E+01  0.12486594316E+03  0.12491602411E+03  0.17770000000E+01 0.  1.
         15    1    1    2    0    0 -0.18020168639E+02  0.13659516556E+01  0.17753981527E+03  0.17846606410E+03  0.17770000000E+01 0. -1.
</event>
<event>
 6    1  0.1860328E-003  0.4517571E+03  0.7546771E-02  0.9514739E-01
        -11   -1    0    0    0    0  0.00000000000E+00  0.00000000000E+00  0.50000000000E+03  0.50000000000E+03  0.00000000000E+00 0. -1.
         11   -1    0    0    0    0 -0.00000000000E+00 -0.00000000000E+00 -0.50000000000E+03  0.50000000000E+03  0.00000000000E+00 0.  1.
        -11    1    1    2    0    0  0.59467536272E+01  0.14379428970E+01  0.45325150333E+03  0.45329279371E+03  0.00000000000E+00 0. -1.
         11    1    1    2    0    0 -0.18850411515E+01 -0.44434825102E+02 -0.44906564934E+03  0.45126263360E+03  0.00000000000E+00 0.  1.
        -15    1    1    2    0    0  0.30297212219E+02  0.90691047267E+01 -0.27359501721E+02  0.41855343651E+02  0.17770000000E+01 0. -1.
         15    1    1    2    0    0 -0.34358924694E+02  0.33927777478E+02  0.23173647733E+02  0.53589229039E+02  0.17770000000E+01 0.  1.
</event>
<event>
 6    1  0.1860328E-003  0.5498606E+03  0.7546771E-02  0.9294672E-01
        -11   -1    0    0    0    0  0.00000000000E+00  0.00000000000E+00  0.50000000000E+03  0.50000000000E+03  0.00000000000E+00 0. -1.
         11   -1    0    0    0    0 -0.00000000000E+00 -0.00000000000E+00 -0.50000000000E+03  0.50000000000E+03  0.00000000000E+00 0.  1.
        -11    1    1    2    0    0 -0.22289070334E+02  0.81796137213E+00  0.40627183331E+03  0.40688361267E+03  0.00000000000E+00 0. -1.
         11    1    1    2    0    0  0.12328223152E+02  0.64376008300E+01 -0.44992445809E+03  0.45013936262E+03  0.00000000000E+00 0.  1.
        -15    1    1    2    0    0 -0.56122045399E+00  0.98417751758E+01 -0.48051458880E+02  0.49084375687E+02  0.17770000000E+01 0. -1.
         15    1    1    2    0    0  0.10522067637E+02 -0.17097337378E+02  0.91704083654E+02  0.93892649024E+02  0.17770000000E+01 0.  1.
</event>
<event>
 6    1  0.1860328E-003  0.5320782E+03  0.7546771E-02  0.9330761E-01
        -11   -1    0    0    0    0  0.00000000000E+00  0.00000000000E+00  0.50000000000E+03  0.50000000000E+03  0.00000000000E+00 0. -1.
         11   -1    0    0    0    0 -0.00000000000E+00 -0.00000000000E+00 -0.50000000000E+03  0.50000000000E+03  0.00000000000E+00 0.  1.
        -11    1    1    2    0    0 -0.68385796473E+01 -0.11283496111E+01  0.34291014350E+03  0.34298018290E+03  0.00000000000E+00 0. -1.
         11    1    1    2    0    0  0.63770187478E+00 -0.15578834644E+02 -0.46766197096E+03  0.46792181594E+03  0.00000000000E+00 0.  1.
        -15    1    1    2    0    0  0.56185685572E+01  0.20250100299E+02 -0.28687884106E+02  0.35606000874E+02  0.17770000000E+01 0. -1.
         15    1    1    2    0    0  0.58230921531E+00 -0.35429160438E+01  0.15343971156E+03  0.15349200029E+03  0.17770000000E+01 0.  1.
</event>
<event>
 6    1  0.1860328E-003  0.5001905E+03  0.7546771E-02  0.9399384E-01
        -11   -1    0    0    0    0  0.00000000000E+00  0.00000000000E+00  0.50000000000E+03  0.50000000000E+03  0.00000000000E+00 0.  1.
         11   -1    0    0    0    0 -0.00000000000E+00 -0.00000000000E+00 -0.50000000000E+03  0.50000000000E+03  0.00000000000E+00 0. -1.
        -11    1    1    2    0    0 -0.37811440804E+01 -0.61601940850E+01  0.49975724570E+03  0.49980951339E+03  0.00000000000E+00 0.  1.
         11    1    1    2    0    0 -0.44300082059E+00 -0.28939999681E+01 -0.16401124702E+03  0.16403737572E+03  0.00000000000E+00 0. -1.
        -15    1    1    2    0    0 -0.66615053715E+00  0.81571600116E+01 -0.28696846911E+03  0.28709065295E+03  0.17770000000E+01 0. -1.
         15    1    1    2    0    0  0.48902954382E+01  0.89703404147E+00 -0.48777529572E+02  0.49062457946E+02  0.17770000000E+01 0.  1.
</event>
<event>
 6    1  0.1860328E-003  0.5013201E+03  0.7546771E-02  0.9396861E-01
        -11   -1    0    0    0    0  0.00000000000E+00  0.00000000000E+00  0.50000000000E+03  0.50000000000E+03  0.00000000000E+00 0. -1.
         11   -1    0    0    0    0 -0.00000000000E+00 -0.00000000000E+00 -0.50000000000E+03  0.50000000000E+03  0.00000000000E+00 0.  1.
        -11    1    1    2    0    0  0.12775426757E+02  0.72829608061E+01  0.49846302856E+03  0.49867990122E+03  0.00000000000E+00 0. -1.
         11    1    1    2    0    0 -0.24181455223E+01 -0.45897840003E+01 -0.29313687040E+03  0.29318277292E+03  0.00000000000E+00 0.  1.
        -15    1    1    2    0    0 -0.83382760743E+00 -0.16303525442E+02 -0.77241106112E+02  0.78967375622E+02  0.17770000000E+01 0.  1.
         15    1    1    2    0    0 -0.95234536277E+01  0.13610348636E+02 -0.12808505204E+03  0.12916995024E+03  0.17770000000E+01 0. -1.
</event>
<event>
 6    1  0.1860328E-003  0.5026366E+03  0.7546771E-02  0.9393929E-01
        -11   -1    0    0    0    0  0.00000000000E+00  0.00000000000E+00  0.50000000000E+03  0.50000000000E+03  0.00000000000E+00 0. -1.
         11   -1    0    0    0    0 -0.00000000000E+00 -0.00000000000E+00 -0.50000000000E+03  0.50000000000E+03  0.00000000000E+00 0. -1.
        -11    1    1    2    0    0  0.11524554514E+01 -0.14020232940E+02  0.49716440116E+03  0.49736338513E+03  0.00000000000E+00 0. -1.
         11    1    1    2    0    0  0.54627586587E+01  0.78887063241E+00 -0.37442087142E+03  0.37446155077E+03  0.00000000000E+00 0. -1.
        -15    1    1    2    0    0  0.70266473673E+01  0.15713340891E+02 -0.99945286811E+02  0.10143224803E+03  0.17770000000E+01 0. -1.
         15    1    1    2    0    0 -0.13641861477E+02 -0.24819785831E+01 -0.22798242923E+02  0.26742816075E+02  0.17770000000E+01 0.  1.
</event>
<event>
 6    1  0.1860328E-003  0.5160969E+03  0.7546771E-02  0.9364495E-01
        -11   -1    0    0    0    0  0.00000000000E+00  0.00000000000E+00  0.50000000000E+03  0.50000000000E+03  0.00000000000E+00 0.  1.
         11   -1    0    0    0    0 -0.00000000000E+00 -0.00000000000E+00 -0.50000000000E+03  0.50000000000E+03  0.00000000000E+00 0.  1.
        -11    1    1    2    0    0 -0.22953627724E+02  0.65899608264E+01  0.48331345815E+03  0.48390308475E+03  0.00000000000E+00 0.  1.
         11    1    1    2    0    0  0.12984705772E+02 -0.49155807166E+01 -0.47162501942E+03  0.47182933828E+03  0.00000000000E+00 0.  1.
        -15    1    1    2    0    0  0.20807197856E+02  0.25558087271E+01  0.70078815387E+01  0.22175206279E+02  0.17770000000E+01 0. -1.
         15    1    1    2    0    0 -0.10838275903E+02 -0.42301888370E+01 -0.18696320262E+02  0.22092370685E+02  0.17770000000E+01 0. -1.
</event>
<event>
 6    1  0.1860328E-003  0.5034989E+03  0.7546771E-02  0.9392014E-01
        -11   -1    0    0    0    0  0.00000000000E+00  0.00000000000E+00  0.50000000000E+03  0.50000000000E+03  0.00000000000E+00 0.  1.
         11   -1    0    0    0    0 -0.00000000000E+00 -0.00000000000E+00 -0.50000000000E+03  0.50000000000E+03  0.00000000000E+00 0. -1.
        -11    1    1    2    0    0 -0.74694686497E+01  0.12444261783E+01  0.49644332242E+03  0.49650107143E+03  0.00000000000E+00 0.  1.
         11    1    1    2    0    0 -0.94907605232E+01  0.18393632628E+01 -0.37047938579E+03  0.37060549522E+03  0.00000000000E+00 0. -1.
        -15    1    1    2    0    0  0.12747327158E+02  0.26281155546E+01 -0.12479453704E+03  0.12548400514E+03  0.17770000000E+01 0.  1.
         15    1    1    2    0    0  0.42129020153E+01 -0.57119049957E+01 -0.11693995874E+01  0.74094282144E+01  0.17770000000E+01 0. -1.
</event>
<event>
 6    1  0.1860328E-003  0.5002139E+03  0.7546771E-02  0.9399331E-01
        -11   -1    0    0    0    0  0.00000000000E+00  0.00000000000E+00  0.50000000000E+03  0.50000000000E+03  0.00000000000E+00 0.  1.
         11   -1    0    0    0    0 -0.00000000000E+00 -0.00000000000E+00 -0.50000000000E+03  0.50000000000E+03  0.00000000000E+00 0. -1.
        -11    1    1    2    0    0 -0.68744130651E+01  0.23233256778E+01  0.37850477779E+03  0.37857432851E+03  0.00000000000E+00 0.  1.
         11    1    1    2    0    0  0.89520928615E+01 -0.12903542683E+01 -0.49970422168E+03  0.49978606837E+03  0.00000000000E+00 0. -1.
        -15    1    1    2    0    0 -0.32511364484E+01  0.31002790883E+01  0.37320218993E+02  0.37631610294E+02  0.17770000000E+01 0. -1.
         15    1    1    2    0    0  0.11734566521E+01 -0.41332504978E+01  0.83879224895E+02  0.84007992823E+02  0.17770000000E+01 0.  1.
</event>
<event>
 6    1  0.1860328E-003  0.5038025E+03  0.7546771E-02  0.9391341E-01
        -11   -1    0    0    0    0  0.00000000000E+00  0.00000000000E+00  0.50000000000E+03  0.50000000000E+03  0.00000000000E+00 0. -1.
         11   -1    0    0    0    0 -0.00000000000E+00 -0.00000000000E+00 -0.50000000000E+03  0.50000000000E+03  0.00000000000E+00 0.  1.
        -11    1    1    2    0    0 -0.10768462355E+02 -0.85410868892E+01  0.46021537114E+03  0.46042056620E+03  0.00000000000E+00 0. -1.
         11    1    1    2    0    0  0.25392695191E+01 -0.70241674008E+01 -0.49614131401E+03  0.49619753152E+03  0.00000000000E+00 0.  1.
        -15    1    1    2    0    0  0.85871444008E+01  0.13282058114E+00  0.12418056571E+02  0.15202715161E+02  0.17770000000E+01 0.  1.
         15    1    1    2    0    0 -0.35795156475E+00  0.15432433709E+02  0.23507886300E+02  0.28179187121E+02  0.17770000000E+01 0.  1.
</event>
<event>
 6    1  0.1860328E-003  0.5004951E+03  0.7546771E-02  0.9398703E-01
        -11   -1    0    0    0    0  0.00000000000E+00  0.00000000000E+00  0.50000000000E+03  0.50000000000E+03  0.00000000000E+00 0. -1.
         11   -1    0    0    0    0 -0.00000000000E+00 -0.00000000000E+00 -0.50000000000E+03  0.50000000000E+03  0.00000000000E+00 0. -1.
        -11    1    1    2    0    0  0.65868397654E+01  0.32201718616E+01  0.36749009553E+03  0.36756322759E+03  0.00000000000E+00 0. -1.
         11    1    1    2    0    0 -0.40951867801E+01  0.73044425761E+01 -0.49943472707E+03  0.49950492694E+03  0.00000000000E+00 0. -1.
        -15    1    1    2    0    0 -0.40937346646E+01 -0.38257455081E+01  0.10138484365E+03  0.10155510447E+03  0.17770000000E+01 0. -1.
         15    1    1    2    0    0  0.16020816792E+01 -0.66988689296E+01  0.30559787892E+02  0.31376740998E+02  0.17770000000E+01 0.  1.
</event>
<event>
 6    1  0.1860328E-003  0.5027176E+03  0.7546771E-02  0.9393749E-01
        -11   -1    0    0    0    0  0.00000000000E+00  0.00000000000E+00  0.50000000000E+03  0.50000000000E+03  0.00000000000E+00 0.  1.
         11   -1    0    0    0    0 -0.00000000000E+00 -0.00000000000E+00 -0.50000000000E+03  0.50000000000E+03  0.00000000000E+00 0.  1.
        -11    1    1    2    0    0  0.54560133841E+01 -0.52953503747E+01  0.49722425592E+03  0.49728238406E+03  0.00000000000E+00 0.  1.
         11    1    1    2    0    0 -0.24693956448E+01 -0.14735750646E+02 -0.28184426892E+03  0.28224002584E+03  0.00000000000E+00 0.  1.
        -15    1    1    2    0    0  0.57263935975E+01  0.26750748607E+02 -0.78589543822E+02  0.83233816816E+02  0.17770000000E+01 0. -1.
         15    1    1    2    0    0 -0.87130113369E+01 -0.67196475863E+01 -0.13679044318E+03  0.13724377328E+03  0.17770000000E+01 0.  1.
</event>
<event>
 6    1  0.1860328E-003  0.4734572E+03  0.7546771E-02  0.9461242E-01
        -11   -1    0    0    0    0  0.00000000000E+00  0.00000000000E+00  0.50000000000E+03  0.50000000000E+03  0.00000000000E+00 0. -1.
         11   -1    0    0    0    0 -0.00000000000E+00 -0.00000000000E+00 -0.50000000000E+03  0.50000000000E+03  0.00000000000E+00 0.  1.
        -11    1    1    2    0    0  0.33764603172E+02  0.17178983554E+02  0.47148818779E+03  0.47300769246E+03  0.00000000000E+00 0. -1.
         11    1    1    2    0    0  0.61401271444E+01 -0.90365246740E+01 -0.47466179581E+03  0.47478751073E+03  0.00000000000E+00 0.  1.
        -15    1    1    2    0    0 -0.11872281584E+02  0.94947363703E+01  0.10079718978E+02  0.18326471358E+02  0.17770000000E+01 0. -1.
         15    1    1    2    0    0 -0.28032448732E+02 -0.17637195250E+02 -0.69061109551E+01  0.33878325457E+02  0.17770000000E+01 0.  1.
</event>
<event>
 6    1  0.1860328E-003  0.5009439E+03  0.7546771E-02  0.9397700E-01
        -11   -1    0    0    0    0  0.00000000000E+00  0.00000000000E+00  0.50000000000E+03  0.50000000000E+03  0.00000000000E+00 0.  1.
         11   -1    0    0    0    0 -0.00000000000E+00 -0.00000000000E+00 -0.50000000000E+03  0.50000000000E+03  0.00000000000E+00 0.  1.
        -11    1    1    2    0    0  0.62388989533E+01  0.21190143282E+01  0.36452243929E+03  0.36458198369E+03  0.00000000000E+00 0.  1.
         11    1    1    2    0    0 -0.92374844918E+01 -0.16458034981E+02 -0.49869909002E+03  0.49905608945E+03  0.00000000000E+00 0.  1.
        -15    1    1    2    0    0 -0.46016671363E+01 -0.26562885660E+01  0.32617436244E+02  0.33095106670E+02  0.17770000000E+01 0.  1.
         15    1    1    2    0    0  0.76002526748E+01  0.16995309219E+02  0.10155921449E+03  0.10326682019E+03  0.17770000000E+01 0.  1.
</event>
<event>
 6    1  0.1860328E-003  0.5004868E+03  0.7546771E-02  0.9398721E-01
        -11   -1    0    0    0    0  0.00000000000E+00  0.00000000000E+00  0.50000000000E+03  0.50000000000E+03  0.00000000000E+00 0. -1.
         11   -1    0    0    0    0 -0.00000000000E+00 -0.00000000000E+00 -0.50000000000E+03  0.50000000000E+03  0.00000000000E+00 0.  1.
        -11    1    1    2    0    0  0.31830921485E+01 -0.42580074992E+01  0.24732051923E+03  0.24737765043E+03  0.00000000000E+00 0. -1.
         11    1    1    2    0    0 -0.37917618085E+01 -0.85603194346E+01 -0.49942544555E+03  0.49951319521E+03  0.00000000000E+00 0.  1.
        -15    1    1    2    0    0  0.17984449032E+01 -0.10375856884E+01  0.15227926315E+03  0.15230378427E+03  0.17770000000E+01 0.  1.
         15    1    1    2    0    0 -0.11897752431E+01  0.13855912622E+02  0.99825663183E+02  0.10080537009E+03  0.17770000000E+01 0. -1.
</event>
<event>
 6    1  0.1860328E-003  0.5002623E+03  0.7546771E-02  0.9399223E-01
        -11   -1    0    0    0    0  0.00000000000E+00  0.00000000000E+00  0.50000000000E+03  0.50000000000E+03  0.00000000000E+00 0.  1.
         11   -1    0    0    0    0 -0.00000000000E+00 -0.00000000000E+00 -0.50000000000E+03  0.50000000000E+03  0.00000000000E+00 0. -1.
        -11    1    1    2    0    0  0.30125001460E+01 -0.26009894333E+01  0.26426202209E+03  0.26429199121E+03  0.00000000000E+00 0.  1.
         11    1    1    2    0    0  0.86696548764E+01  0.25809623385E+01 -0.49965579206E+03  0.49973766601E+03  0.00000000000E+00 0. -1.
        -15    1    1    2    0    0 -0.35450246807E+01  0.28587330657E+01  0.15839384460E+03  0.15846926292E+03  0.17770000000E+01 0. -1.
         15    1    1    2    0    0 -0.81371303417E+01 -0.28387059708E+01  0.76999925383E+02  0.77501079862E+02  0.17770000000E+01 0.  1.
</event>
<event>
 6    1  0.1860328E-003  0.5489597E+03  0.7546771E-02  0.9296466E-01
        -11   -1    0    0    0    0  0.00000000000E+00  0.00000000000E+00  0.50000000000E+03  0.50000000000E+03  0.00000000000E+00 0.  1.
         11   -1    0    0    0    0 -0.00000000000E+00 -0.00000000000E+00 -0.50000000000E+03  0.50000000000E+03  0.00000000000E+00 0. -1.
        -11    1    1    2    0    0 -0.62857414355E+01  0.24973835360E+01  0.45098962073E+03  0.45104033686E+03  0.00000000000E+00 0.  1.
         11    1    1    2    0    0 -0.23627865035E+01 -0.60731653366E+01 -0.27724462350E+03  0.27732119890E+03  0.00000000000E+00 0. -1.
        -15    1    1    2    0    0  0.85098258735E+01 -0.93211609450E+02 -0.29941144054E+02  0.98287593871E+02  0.17770000000E+01 0.  1.
         15    1    1    2    0    0  0.13870206554E+00  0.96787391251E+02 -0.14380385317E+03  0.17335087037E+03  0.17770000000E+01 0. -1.
</event>
<event>
 6    1  0.1860328E-003  0.5020092E+03  0.7546771E-02  0.9395325E-01
        -11   -1    0    0    0    0  0.00000000000E+00  0.00000000000E+00  0.50000000000E+03  0.50000000000E+03  0.00000000000E+00 0.  1.
         11   -1    0    0    0    0 -0.00000000000E+00 -0.00000000000E+00 -0.50000000000E+03  0.50000000000E+03  0.00000000000E+00 0.  1.
        -11    1    1    2    0    0 -0.18160699719E+01 -0.79629960202E+01  0.49792385143E+03  0.49799083249E+03  0.00000000000E+00 0.  1.
         11    1    1    2    0    0 -0.11398356081E+02 -0.79040824674E+01 -0.36849053386E+03  0.36875150248E+03  0.00000000000E+00 0.  1.
        -15    1    1    2    0    0 -0.38420852565E+01  0.59624104573E+01 -0.11189355313E+02  0.13366800623E+02  0.17770000000E+01 0.  1.
         15    1    1    2    0    0  0.17056511310E+02  0.99046680303E+01 -0.11824396226E+03  0.11989086440E+03  0.17770000000E+01 0. -1.
</event>
<event>
 6    1  0.1860328E-003  0.5019418E+03  0.7546771E-02  0.9395475E-01
        -11   -1    0    0    0    0  0.00000000000E+00  0.00000000000E+00  0.50000000000E+03  0.50000000000E+03  0.00000000000E+00 0. -1.
         11   -1    0    0    0    0 -0.00000000000E+00 -0.00000000000E+00 -0.50000000000E+03  0.50000000000E+03  0.00000000000E+00 0.  1.
        -11    1    1    2    0    0  0.71149495864E+01  0.18882557911E+01  0.49800376012E+03  0.49805816238E+03  0.00000000000E+00 0. -1.
         11    1    1    2    0    0  0.85812233085E+01  0.23100604052E+01 -0.35693944136E+03  0.35705005052E+03  0.00000000000E+00 0.  1.
        -15    1    1    2    0    0 -0.56838045771E+01  0.47263036458E+01 -0.76226258711E+01  0.10765952573E+02  0.17770000000E+01 0.  1.
         15    1    1    2    0    0 -0.10012368318E+02 -0.89246198421E+01 -0.13344169289E+03  0.13412583453E+03  0.17770000000E+01 0. -1.
</event>
<event>
 6    1  0.1860328E-003  0.5006981E+03  0.7546771E-02  0.9398249E-01
        -11   -1    0    0    0    0  0.00000000000E+00  0.00000000000E+00  0.50000000000E+03  0.50000000000E+03  0.00000000000E+00 0. -1.
         11   -1    0    0    0    0 -0.00000000000E+00 -0.00000000000E+00 -0.50000000000E+03  0.50000000000E+03  0.00000000000E+00 0.  1.
        -11    1    1    2    0    0 -0.69522972026E+01  0.29807274941E+01  0.49924463662E+03  0.49930193908E+03  0.00000000000E+00 0. -1.
         11    1    1    2    0    0  0.34335093592E+01 -0.62632264137E+01 -0.43368189813E+03  0.43374071259E+03  0.00000000000E+00 0.  1.
        -15    1    1    2    0    0  0.39117323694E+01 -0.41205668897E+01 -0.30473519297E+02  0.31049538305E+02  0.17770000000E+01 0.  1.
         15    1    1    2    0    0 -0.39294452612E+00  0.74030658094E+01 -0.35089219186E+02  0.35907810026E+02  0.17770000000E+01 0. -1.
</event>
<event>
 6    1  0.1860328E-003  0.5294520E+03  0.7546771E-02  0.9336218E-01
        -11   -1    0    0    0    0  0.00000000000E+00  0.00000000000E+00  0.50000000000E+03  0.50000000000E+03  0.00000000000E+00 0.  1.
         11   -1    0    0    0    0 -0.00000000000E+00 -0.00000000000E+00 -0.50000000000E+03  0.50000000000E+03  0.00000000000E+00 0.  1.
        -11    1    1    2    0    0  0.27180917232E+02  0.28745253924E+02  0.46888197378E+03  0.47054797547E+03  0.00000000000E+00 0.  1.
         11    1    1    2    0    0  0.35829173050E+02 -0.24640956298E+02 -0.41466549653E+03  0.41693930060E+03  0.00000000000E+00 0.  1.
        -15    1    1    2    0    0 -0.48921371290E+01 -0.33170593319E+02 -0.19083645375E+02  0.38620778302E+02  0.17770000000E+01 0.  1.
         15    1    1    2    0    0 -0.58117953153E+02  0.29066295693E+02 -0.35132831875E+02  0.73891945627E+02  0.17770000000E+01 0. -1.
</event>
<event>
 6    1  0.1860328E-003  0.5122422E+03  0.7546771E-02  0.9372826E-01
        -11   -1    0    0    0    0  0.00000000000E+00  0.00000000000E+00  0.50000000000E+03  0.50000000000E+03  0.00000000000E+00 0.  1.
         11   -1    0    0    0    0 -0.00000000000E+00 -0.00000000000E+00 -0.50000000000E+03  0.50000000000E+03  0.00000000000E+00 0.  1.
        -11    1    1    2    0    0 -0.29871321518E+01  0.78649554066E+01  0.48768521192E+03  0.48775777432E+03  0.00000000000E+00 0.  1.
         11    1    1    2    0    0 -0.35227660212E+02  0.20307482409E+00 -0.32015049091E+03  0.32208285598E+03  0.00000000000E+00 0.  1.
        -15    1    1    2    0    0  0.47839857655E+02 -0.53073518816E+01 -0.17231650528E+03  0.17892164678E+03  0.17770000000E+01 0. -1.
         15    1    1    2    0    0 -0.96250652910E+01 -0.27606783490E+01  0.47817842749E+01  0.11237722930E+02  0.17770000000E+01 0.  1.
</event>
<event>
 6    1  0.1860328E-003  0.5051672E+03  0.7546771E-02  0.9388321E-01
        -11   -1    0    0    0    0  0.00000000000E+00  0.00000000000E+00  0.50000000000E+03  0.50000000000E+03  0.00000000000E+00 0.  1.
         11   -1    0    0    0    0 -0.00000000000E+00 -0.00000000000E+00 -0.50000000000E+03  0.50000000000E+03  0.00000000000E+00 0.  1.
        -11    1    1    2    0    0 -0.15508359557E+02 -0.20045013243E+00  0.49458969018E+03  0.49483281118E+03  0.00000000000E+00 0.  1.
         11    1    1    2    0    0  0.28220777012E+01  0.91803743301E+01 -0.41872909124E+03  0.41883922363E+03  0.00000000000E+00 0.  1.
        -15    1    1    2    0    0  0.29555445353E+01 -0.14635331312E+02 -0.73064561140E+02  0.74595683452E+02  0.17770000000E+01 0.  1.
         15    1    1    2    0    0  0.97307373206E+01  0.56554071139E+01 -0.27960377941E+01  0.11732281738E+02  0.17770000000E+01 0. -1.
</event>
<event>
 6    1  0.1860328E-003  0.5002692E+03  0.7546771E-02  0.9399207E-01
        -11   -1    0    0    0    0  0.00000000000E+00  0.00000000000E+00  0.50000000000E+03  0.50000000000E+03  0.00000000000E+00 0. -1.
         11   -1    0    0    0    0 -0.00000000000E+00 -0.00000000000E+00 -0.50000000000E+03  0.50000000000E+03  0.00000000000E+00 0.  1.
        -11    1    1    2    0    0 -0.11037814253E+01 -0.85672448903E+01  0.49965609120E+03  0.49973075300E+03  0.00000000000E+00 0. -1.
         11    1    1    2    0    0 -0.45753786220E+01  0.49523614827E+01 -0.11495574565E+03  0.11515330404E+03  0.00000000000E+00 0.  1.
        -15    1    1    2    0    0  0.13747543762E+01  0.98504457214E+01 -0.21557128534E+03  0.21580791928E+03  0.17770000000E+01 0. -1.
         15    1    1    2    0    0  0.43044056711E+01 -0.62355623138E+01 -0.16912906021E+03  0.16930802368E+03  0.17770000000E+01 0.  1.
</event>
<event>
 6    1  0.1860328E-003  0.5113011E+03  0.7546771E-02  0.9374872E-01
        -11   -1    0    0    0    0  0.00000000000E+00  0.00000000000E+00  0.50000000000E+03  0.50000000000E+03  0.00000000000E+00 0.  1.
         11   -1    0    0    0    0 -0.00000000000E+00 -0.00000000000E+00 -0.50000000000E+03  0.50000000000E+03  0.00000000000E+00 0. -1.
        -11    1    1    2    0    0 -0.14829093601E+02 -0.14279985000E+02  0.48826504523E+03  0.48869885859E+03  0.00000000000E+00 0.  1.
         11    1    1    2    0    0  0.16240856755E+02  0.30225767277E+01 -0.31782019321E+03  0.31824923663E+03  0.00000000000E+00 0. -1.
        -15    1    1    2    0    0  0.31337495687E+02 -0.70711146700E+01 -0.14286831081E+03  0.14644641088E+03  0.17770000000E+01 0. -1.
         15    1    1    2    0    0 -0.32749258841E+02  0.18328522943E+02 -0.27576541212E+02  0.46605493905E+02  0.17770000000E+01 0.  1.
</event>
<event>
 6    1  0.1860328E-003  0.5047759E+03  0.7546771E-02  0.9389186E-01
        -11   -1    0    0    0    0  0.00000000000E+00  0.00000000000E+00  0.50000000000E+03  0.50000000000E+03  0.00000000000E+00 0. -1.
         11   -1    0    0    0    0 -0.00000000000E+00 -0.00000000000E+00 -0.50000000000E+03  0.50000000000E+03  0.00000000000E+00 0.  1.
        -11    1    1    2    0    0  0.19585087603E+02  0.45265982510E+01  0.49481596447E+03  0.49522409518E+03  0.00000000000E+00 0. -1.
         11    1    1    2    0    0 -0.53594556024E+01  0.28648661594E+01 -0.41517150470E+03  0.41521597939E+03  0.00000000000E+00 0.  1.
        -15    1    1    2    0    0 -0.11168586671E+01 -0.14015107208E+02 -0.71051919491E+02  0.72451387811E+02  0.17770000000E+01 0.  1.
         15    1    1    2    0    0 -0.13108773334E+02  0.66236427972E+01 -0.85925402802E+01  0.17108537626E+02  0.17770000000E+01 0. -1.
</event>
<event>
 6    1  0.1860328E-003  0.5190379E+03  0.7546771E-02  0.9358190E-01
        -11   -1    0    0    0    0  0.00000000000E+00  0.00000000000E+00  0.50000000000E+03  0.50000000000E+03  0.00000000000E+00 0. -1.
         11   -1    0    0    0    0 -0.00000000000E+00 -0.00000000000E+00 -0.50000000000E+03  0.50000000000E+03  0.00000000000E+00 0. -1.
        -11    1    1    2    0    0  0.16752777734E+02  0.27168548717E+01  0.48066253501E+03  0.48096206652E+03  0.00000000000E+00 0. -1.
         11    1    1    2    0    0 -0.56934067070E+01 -0.16384949928E+02 -0.45561095051E+03  0.45594102654E+03  0.00000000000E+00 0. -1.
        -15    1    1    2    0    0 -0.31016419839E+01 -0.22481035787E+01  0.16938680017E+02  0.17457112087E+02  0.17770000000E+01 0.  1.
         15    1    1    2    0    0 -0.79577290431E+01  0.15916198635E+02 -0.41990264523E+02  0.45639794853E+02  0.17770000000E+01 0. -1.
</event>
<event>
 6    1  0.1860328E-003  0.5001779E+03  0.7546771E-02  0.9399412E-01
        -11   -1    0    0    0    0  0.00000000000E+00  0.00000000000E+00  0.50000000000E+03  0.50000000000E+03  0.00000000000E+00 0. -1.
         11   -1    0    0    0    0 -0.00000000000E+00 -0.00000000000E+00 -0.50000000000E+03  0.50000000000E+03  0.00000000000E+00 0. -1.
        -11    1    1    2    0    0  0.46691731000E+01 -0.15334640485E+01  0.25995830336E+03  0.26000475414E+03  0.00000000000E+00 0. -1.
         11    1    1    2    0    0  0.37032114111E+01  0.76034888748E+01 -0.49975056115E+03  0.49982211855E+03  0.00000000000E+00 0. -1.
        -15    1    1    2    0    0 -0.71148795046E+01 -0.78183302251E+01  0.19370455248E+03  0.19400092572E+03  0.17770000000E+01 0.  1.
         15    1    1    2    0    0 -0.12575050064E+01  0.17483053988E+01  0.46087705311E+02  0.46172201598E+02  0.17770000000E+01 0.  1.
</event>
<event>
 6    1  0.1860328E-003  0.5094773E+03  0.7546771E-02  0.9378850E-01
        -11   -1    0    0    0    0  0.00000000000E+00  0.00000000000E+00  0.50000000000E+03  0.50000000000E+03  0.00000000000E+00 0.  1.
         11   -1    0    0    0    0 -0.00000000000E+00 -0.00000000000E+00 -0.50000000000E+03  0.50000000000E+03  0.00000000000E+00 0.  1.
        -11    1    1    2    0    0 -0.16144044508E+02  0.52632614354E+02  0.48742349214E+03  0.49052266304E+03  0.00000000000E+00 0.  1.
         11    1    1    2    0    0 -0.58810719701E+01 -0.21431171305E+02 -0.26226352743E+03  0.26320341930E+03  0.00000000000E+00 0.  1.
        -15    1    1    2    0    0  0.27144234173E+02 -0.90959486976E+01 -0.22134591831E+03  0.22319659274E+03  0.17770000000E+01 0.  1.
         15    1    1    2    0    0 -0.51191176948E+01 -0.22105494351E+02 -0.38140463966E+01  0.23077324919E+02  0.17770000000E+01 0. -1.
</event>
<event>
 6    1  0.1860328E-003  0.4901756E+03  0.7546771E-02  0.9422065E-01
        -11   -1    0    0    0    0  0.00000000000E+00  0.00000000000E+00  0.50000000000E+03  0.50000000000E+03  0.00000000000E+00 0. -1.
         11   -1    0    0    0    0 -0.00000000000E+00 -0.00000000000E+00 -0.50000000000E+03  0.50000000000E+03  0.00000000000E+00 0. -1.
        -11    1    1    2    0    0  0.92282100854E+01 -0.65543741305E+01  0.49041324187E+03  0.49054384869E+03  0.00000000000E+00 0. -1.
         11    1    1    2    0    0 -0.68326496402E+01 -0.58366815343E+01 -0.48980638864E+03  0.48988881423E+03  0.00000000000E+00 0. -1.
        -15    1    1    2    0    0 -0.79237740637E+01  0.10778348583E+02  0.13141791534E+00  0.13495702770E+02  0.17770000000E+01 0. -1.
         15    1    1    2    0    0  0.55282136184E+01  0.16127070822E+01 -0.73827114226E+00  0.60716343124E+01  0.17770000000E+01 0.  1.
</event>
<event>
 6    1  0.1860328E-003  0.4608798E+03  0.7546771E-02  0.9491867E-01
        -11   -1    0    0    0    0  0.00000000000E+00  0.00000000000E+00  0.50000000000E+03  0.50000000000E+03  0.00000000000E+00 0.  1.
         11   -1    0    0    0    0 -0.00000000000E+00 -0.00000000000E+00 -0.50000000000E+03  0.50000000000E+03  0.00000000000E+00 0.  1.
        -11    1    1    2    0    0 -0.79616350916E+00 -0.14161411913E+02  0.46564019465E+03  0.46585616915E+03  0.00000000000E+00 0.  1.
         11    1    1    2    0    0  0.48999485755E+01 -0.67286839186E+01 -0.45612251563E+03  0.45619845895E+03  0.00000000000E+00 0.  1.
        -15    1    1    2    0    0 -0.15814638396E+02  0.79997070239E+01  0.29906705983E+02  0.34809005902E+02  0.17770000000E+01 0.  1.
         15    1    1    2    0    0  0.11710853330E+02  0.12890388808E+02 -0.39424385009E+02  0.43136366000E+02  0.17770000000E+01 0. -1.
</event>
<event>
 6    1  0.1860328E-003  0.5026237E+03  0.7546771E-02  0.9393958E-01
        -11   -1    0    0    0    0  0.00000000000E+00  0.00000000000E+00  0.50000000000E+03  0.50000000000E+03  0.00000000000E+00 0. -1.
         11   -1    0    0    0    0 -0.00000000000E+00 -0.00000000000E+00 -0.50000000000E+03  0.50000000000E+03  0.00000000000E+00 0. -1.
        -11    1    1    2    0    0  0.16628382946E+02  0.40903221290E+00  0.46865550654E+03  0.46895058826E+03  0.00000000000E+00 0. -1.
         11    1    1    2    0    0 -0.13705387794E+02  0.78571253378E+01 -0.49712534646E+03  0.49737629836E+03  0.00000000000E+00 0. -1.
        -15    1    1    2    0    0  0.62814574388E+01 -0.29011151650E+01  0.12404945412E+02  0.14314802703E+02  0.17770000000E+01 0. -1.
         15    1    1    2    0    0 -0.92044525905E+01 -0.53650423857E+01  0.16064894515E+02  0.19358310672E+02  0.17770000000E+01 0.  1.
</event>
<event>
 6    1  0.1860328E-003  0.5013050E+03  0.7546771E-02  0.9396894E-01
        -11   -1    0    0    0    0  0.00000000000E+00  0.00000000000E+00  0.50000000000E+03  0.50000000000E+03  0.00000000000E+00 0. -1.
         11   -1    0    0    0    0 -0.00000000000E+00 -0.00000000000E+00 -0.50000000000E+03  0.50000000000E+03  0.00000000000E+00 0. -1.
        -11    1    1    2    0    0  0.44509502276E+00 -0.30323794388E+00  0.30078832325E+02  0.30083653649E+02  0.00000000000E+00 0. -1.
         11    1    1    2    0    0  0.67653429831E+01 -0.10795657072E+02 -0.49853226239E+03  0.49869502978E+03  0.00000000000E+00 0. -1.
        -15    1    1    2    0    0  0.25633211230E+01 -0.15447331697E+02  0.69589996453E+02  0.71352056782E+02  0.17770000000E+01 0.  1.
         15    1    1    2    0    0 -0.97737591288E+01  0.26546226713E+02  0.39886343362E+03  0.39986925979E+03  0.17770000000E+01 0. -1.
</event>
<event>
 6    1  0.1860328E-003  0.5003537E+03  0.7546771E-02  0.9399019E-01
        -11   -1    0    0    0    0  0.00000000000E+00  0.00000000000E+00  0.50000000000E+03  0.50000000000E+03  0.00000000000E+00 0. -1.
         11   -1    0    0    0    0 -0.00000000000E+00 -0.00000000000E+00 -0.50000000000E+03  0.50000000000E+03  0.00000000000E+00 0.  1.
        -11    1    1    2    0    0  0.84168491952E+00 -0.67889808922E+01  0.49959945014E+03  0.49964628416E+03  0.00000000000E+00 0. -1.
         11    1    1    2    0    0  0.11287943073E+01  0.90881648826E+00 -0.49839296382E+02  0.49860360887E+02  0.00000000000E+00 0.  1.
        -15    1    1    2    0    0 -0.61037515777E+01  0.13301144367E+01 -0.42012763655E+03  0.42017783581E+03  0.17770000000E+01 0.  1.
         15    1    1    2    0    0  0.41332723509E+01  0.45500499673E+01 -0.29632517214E+02  0.30315519136E+02  0.17770000000E+01 0. -1.
</event>
<event>
 6    1  0.1860328E-003  0.5016265E+03  0.7546771E-02  0.9396178E-01
        -11   -1    0    0    0    0  0.00000000000E+00  0.00000000000E+00  0.50000000000E+03  0.50000000000E+03  0.00000000000E+00 0.  1.
         11   -1    0    0    0    0 -0.00000000000E+00 -0.00000000000E+00 -0.50000000000E+03  0.50000000000E+03  0.00000000000E+00 0.  1.
        -11    1    1    2    0    0  0.38180197007E+02 -0.12978774057E+01  0.49690711919E+03  0.49837345137E+03  0.00000000000E+00 0.  1.
         11    1    1    2    0    0 -0.21386502389E+01 -0.22226743297E+01 -0.20422705800E+03  0.20425034964E+03  0.00000000000E+00 0.  1.
        -15    1    1    2    0    0 -0.33317478677E+02 -0.80429413900E+01 -0.26484928792E+03  0.26706374957E+03  0.17770000000E+01 0.  1.
         15    1    1    2    0    0 -0.27240680915E+01  0.11563493125E+02 -0.27830773264E+02  0.30312449418E+02  0.17770000000E+01 0. -1.
</event>
<event>
 6    1  0.1860328E-003  0.5111235E+03  0.7546771E-02  0.9375258E-01
        -11   -1    0    0    0    0  0.00000000000E+00  0.00000000000E+00  0.50000000000E+03  0.50000000000E+03  0.00000000000E+00 0.  1.
         11   -1    0    0    0    0 -0.00000000000E+00 -0.00000000000E+00 -0.50000000000E+03  0.50000000000E+03  0.00000000000E+00 0.  1.
        -11    1    1    2    0    0 -0.63538668269E+01  0.29315742713E+01  0.48554966940E+03  0.48560008980E+03  0.00000000000E+00 0.  1.
         11    1    1    2    0    0  0.46838731067E+01 -0.82990355980E+01 -0.48878360718E+03  0.48887649494E+03  0.00000000000E+00 0.  1.
        -15    1    1    2    0    0  0.55216195517E+01  0.17775756944E+01 -0.97029849633E+01  0.11443500514E+02  0.17770000000E+01 0.  1.
         15    1    1    2    0    0 -0.38516258314E+01  0.35898856323E+01  0.12936922739E+02  0.14079914749E+02  0.17770000000E+01 0. -1.
</event>
<event>
 6    1  0.1860328E-003  0.5091260E+03  0.7546771E-02  0.9379618E-01
        -11   -1    0    0    0    0  0.00000000000E+00  0.00000000000E+00  0.50000000000E+03  0.50000000000E+03  0.00000000000E+00 0. -1.
         11   -1    0    0    0    0 -0.00000000000E+00 -0.00000000000E+00 -0.50000000000E+03  0.50000000000E+03  0.00000000000E+00 0. -1.
        -11    1    1    2    0    0  0.32956177120E+01 -0.12880828352E+02  0.49069388311E+03  0.49087397950E+03  0.00000000000E+00 0. -1.
         11    1    1    2    0    0  0.93562320923E+00 -0.71204903765E+00 -0.26059249363E+02  0.26085760138E+02  0.00000000000E+00 0. -1.
        -15    1    1    2    0    0  0.41013793944E+01  0.97783585308E+01  0.60004383344E+01  0.12312619449E+02  0.17770000000E+01 0.  1.
         15    1    1    2    0    0 -0.83326203156E+01  0.38145188593E+01 -0.47063507208E+03  0.47072764091E+03  0.17770000000E+01 0. -1.
</event>
<event>
 6    1  0.1860328E-003  0.5010617E+03  0.7546771E-02  0.9397437E-01
        -11   -1    0    0    0    0  0.00000000000E+00  0.00000000000E+00  0.50000000000E+03  0.50000000000E+03  0.00000000000E+00 0.  1.
         11   -1    0    0    0    0 -0.00000000000E+00 -0.00000000000E+00 -0.50000000000E+03  0.50000000000E+03  0.00000000000E+00 0.  1.
        -11    1    1    2    0    0 -0.48601810264E+01  0.10684206743E+02  0.73890490728E+02  0.74816965010E+02  0.00000000000E+00 0.  1.
         11    1    1    2    0    0 -0.10475675803E+02 -0.66066900312E+00 -0.49882785103E+03  0.49893827396E+03  0.00000000000E+00 0.  1.
        -15    1    1    2    0    0  0.21525981444E+02 -0.13986685145E+02  0.33912451074E+03  0.34009937776E+03  0.17770000000E+01 0.  1.
         15    1    1    2    0    0 -0.61901246148E+01  0.39631474054E+01  0.85812849558E+02  0.86145383268E+02  0.17770000000E+01 0. -1.
</event>
<event>
 6    1  0.1860328E-003  0.5002399E+03  0.7546771E-02  0.9399273E-01
        -11   -1    0    0    0    0  0.00000000000E+00  0.00000000000E+00  0.50000000000E+03  0.50000000000E+03  0.00000000000E+00 0. -1.
         11   -1    0    0    0    0 -0.00000000000E+00 -0.00000000000E+00 -0.50000000000E+03  0.50000000000E+03  0.00000000000E+00 0. -1.
        -11    1    1    2    0    0  0.48518950642E+01 -0.25638473165E+01  0.28345072864E+03  0.28350384436E+03  0.00000000000E+00 0. -1.
         11    1    1    2    0    0 -0.89337805435E+01 -0.33215848886E+00 -0.49968015628E+03  0.49976012381E+03  0.00000000000E+00 0. -1.
        -15    1    1    2    0    0 -0.53141515793E+00  0.62825735937E+01  0.16914641279E+03  0.16927321059E+03  0.17770000000E+01 0. -1.
         15    1    1    2    0    0  0.46133006372E+01 -0.33865677883E+01  0.47083014853E+02  0.47462821248E+02  0.17770000000E+01 0.  1.
</event>
<event>
 6    1  0.1860328E-003  0.5006329E+03  0.7546771E-02  0.9398395E-01
        -11   -1    0    0    0    0  0.00000000000E+00  0.00000000000E+00  0.50000000000E+03  0.50000000000E+03  0.00000000000E+00 0. -1.
         11   -1    0    0    0    0 -0.00000000000E+00 -0.00000000000E+00 -0.50000000000E+03  0.50000000000E+03  0.00000000000E+00 0. -1.
        -11    1    1    2    0    0 -0.12068611894E+02 -0.81289352015E+01  0.49915504405E+03  0.49936708840E+03  0.00000000000E+00 0. -1.
         11    1    1    2    0    0 -0.33974881106E+01  0.21437536673E+01 -0.16732899432E+03  0.16737721154E+03  0.00000000000E+00 0. -1.
        -15    1    1    2    0    0 -0.47594386366E+00 -0.72472892332E+01 -0.16021825538E+03  0.16039263327E+03  0.17770000000E+01 0.  1.
         15    1    1    2    0    0  0.15942043868E+02  0.13232470767E+02 -0.17160779435E+03  0.17286306678E+03  0.17770000000E+01 0. -1.
</event>
<event>
 6    1  0.1860328E-003  0.5090363E+03  0.7546771E-02  0.9379814E-01
        -11   -1    0    0    0    0  0.00000000000E+00  0.00000000000E+00  0.50000000000E+03  0.50000000000E+03  0.00000000000E+00 0.  1.
         11   -1    0    0    0    0 -0.00000000000E+00 -0.00000000000E+00 -0.50000000000E+03  0.50000000000E+03  0.00000000000E+00 0. -1.
        -11    1    1    2    0    0  0.12795208378E+02  0.16283895613E+02  0.40125197923E+03  0.40178605432E+03  0.00000000000E+00 0.  1.
         11    1    1    2    0    0 -0.23959472113E+02 -0.13075956316E+02 -0.49020435812E+03  0.49096369485E+03  0.00000000000E+00 0. -1.
        -15    1    1    2    0    0  0.97999231892E+01 -0.25709878214E+02  0.76755710532E+02  0.81557545087E+02  0.17770000000E+01 0.  1.
         15    1    1    2    0    0  0.13643405457E+01  0.22501938917E+02  0.12196668366E+02  0.25692705742E+02  0.17770000000E+01 0. -1.
</event>
<event>
 6    1  0.1860328E-003  0.5026888E+03  0.7546771E-02  0.9393813E-01
        -11   -1    0    0    0    0  0.00000000000E+00  0.00000000000E+00  0.50000000000E+03  0.50000000000E+03  0.00000000000E+00 0. -1.
         11   -1    0    0    0    0 -0.00000000000E+00 -0.00000000000E+00 -0.50000000000E+03  0.50000000000E+03  0.00000000000E+00 0. -1.
        -11    1    1    2    0    0  0.59281507937E+01 -0.12812938271E+02  0.36197277408E+03  0.36224798624E+03  0.00000000000E+00 0. -1.
         11    1    1    2    0    0  0.20142618443E+02 -0.73141042053E+01 -0.49684931538E+03  0.49731123393E+03  0.00000000000E+00 0. -1.
        -15    1    1    2    0    0 -0.81847332673E+01  0.52986463584E+01  0.12947699414E+02  0.16305402816E+02  0.17770000000E+01 0. -1.
         15    1    1    2    0    0 -0.17886035969E+02  0.14828396118E+02  0.12192884189E+03  0.12413537702E+03  0.17770000000E+01 0.  1.
</event>
<event>
 6    1  0.1860328E-003  0.5012948E+03  0.7546771E-02  0.9396917E-01
        -11   -1    0    0    0    0  0.00000000000E+00  0.00000000000E+00  0.50000000000E+03  0.50000000000E+03  0.00000000000E+00 0. -1.
         11   -1    0    0    0    0 -0.00000000000E+00 -0.00000000000E+00 -0.50000000000E+03  0.50000000000E+03  0.00000000000E+00 0. -1.
        -11    1    1    2    0    0 -0.42585991562E+01 -0.66676560252E+01  0.48210078642E+03  0.48216569929E+03  0.00000000000E+00 0. -1.
         11    1    1    2    0    0  0.64648136818E+01  0.39693055419E+01 -0.49864752144E+03  0.49870522339E+03  0.00000000000E+00 0. -1.
        -15    1    1    2    0    0 -0.54583785198E+00  0.48075619693E+01  0.14307499827E+02  0.15207658312E+02  0.17770000000E+01 0. -1.
         15    1    1    2    0    0 -0.16603766735E+01 -0.21092114860E+01  0.22392351949E+01  0.39214190096E+01  0.17770000000E+01 0.  1.
</event>
<event>
 6    1  0.1860328E-003  0.5006187E+03  0.7546771E-02  0.9398426E-01
        -11   -1    0    0    0    0  0.00000000000E+00  0.00000000000E+00  0.50000000000E+03  0.50000000000E+03  0.00000000000E+00 0. -1.
         11   -1    0    0    0    0 -0.00000000000E+00 -0.00000000000E+00 -0.50000000000E+03  0.50000000000E+03  0.00000000000E+00 0. -1.
        -11    1    1    2    0    0  0.88345316187E+01 -0.70730411081E+01  0.21369444719E+03  0.21399391023E+03  0.00000000000E+00 0. -1.
         11    1    1    2    0    0  0.69354033055E+01 -0.69348985772E+01 -0.49928496326E+03  0.49938128436E+03  0.00000000000E+00 0. -1.
        -15    1    1    2    0    0 -0.56473826510E+01 -0.64886190111E+00  0.98482905914E+02  0.98662832104E+02  0.17770000000E+01 0.  1.
         15    1    1    2    0    0 -0.10122552273E+02  0.14656801586E+02  0.18710761016E+03  0.18796197330E+03  0.17770000000E+01 0. -1.
</event>
<event>
 6    1  0.1860328E-003  0.5294272E+03  0.7546771E-02  0.9336269E-01
        -11   -1    0    0    0    0  0.00000000000E+00  0.00000000000E+00  0.50000000000E+03  0.50000000000E+03  0.00000000000E+00 0. -1.
         11   -1    0    0    0    0 -0.00000000000E+00 -0.00000000000E+00 -0.50000000000E+03  0.50000000000E+03  0.00000000000E+00 0.  1.
        -11    1    1    2    0    0  0.13472109500E+02  0.18086135191E+00  0.37540085253E+03  0.37564255686E+03  0.00000000000E+00 0. -1.
         11    1    1    2    0    0 -0.42001677504E+02  0.15614382431E+02 -0.46843437917E+03  0.47057275467E+03  0.00000000000E+00 0.  1.
        -15    1    1    2    0    0 -0.44357750078E+01 -0.43484857343E+01  0.11323810426E+03  0.11342227036E+03  0.17770000000E+01 0. -1.
         15    1    1    2    0    0  0.32965343012E+02 -0.11446758049E+02 -0.20204577616E+02  0.40362418106E+02  0.17770000000E+01 0.  1.
</event>
<event>
 6    1  0.1860328E-003  0.5098691E+03  0.7546771E-02  0.9377994E-01
        -11   -1    0    0    0    0  0.00000000000E+00  0.00000000000E+00  0.50000000000E+03  0.50000000000E+03  0.00000000000E+00 0.  1.
         11   -1    0    0    0    0 -0.00000000000E+00 -0.00000000000E+00 -0.50000000000E+03  0.50000000000E+03  0.00000000000E+00 0. -1.
        -11    1    1    2    0    0  0.63664916524E+01  0.38112387702E+01  0.43526323236E+03  0.43532647427E+03  0.00000000000E+00 0.  1.
         11    1    1    2    0    0  0.19683781611E+02  0.99100480129E+01 -0.48963522313E+03  0.49013091317E+03  0.00000000000E+00 0. -1.
        -15    1    1    2    0    0 -0.19014047196E+02 -0.17995861891E+01  0.81703463373E+00  0.19198900381E+02  0.17770000000E+01 0.  1.
         15    1    1    2    0    0 -0.70362260671E+01 -0.11921700594E+02  0.53554956142E+02  0.55343712187E+02  0.17770000000E+01 0. -1.
</event>
<event>
 6    1  0.1860328E-003  0.5000772E+03  0.7546771E-02  0.9399637E-01
        -11   -1    0    0    0    0  0.00000000000E+00  0.00000000000E+00  0.50000000000E+03  0.50000000000E+03  0.00000000000E+00 0. -1.
         11   -1    0    0    0    0 -0.00000000000E+00 -0.00000000000E+00 -0.50000000000E+03  0.50000000000E+03  0.00000000000E+00 0. -1.
        -11    1    1    2    0    0 -0.92858829457E+00 -0.20469987691E+00  0.25987017259E+02  0.26004408170E+02  0.00000000000E+00 0. -1.
         11    1    1    2    0    0  0.12845552850E+02  0.22571796058E+01 -0.49975259659E+03  0.49992275492E+03  0.00000000000E+00 0. -1.
        -15    1    1    2    0    0 -0.67495127524E+01  0.79753073538E+00  0.95881221244E+02  0.96138224936E+02  0.17770000000E+01 0.  1.
         15    1    1    2    0    0 -0.51674518035E+01 -0.28500104642E+01  0.37788435808E+03  0.37793461198E+03  0.17770000000E+01 0. -1.
</event>
<event>
 6    1  0.1860328E-003  0.5100750E+03  0.7546771E-02  0.9377544E-01
        -11   -1    0    0    0    0  0.00000000000E+00  0.00000000000E+00  0.50000000000E+03  0.50000000000E+03  0.00000000000E+00 0. -1.
         11   -1    0    0    0    0 -0.00000000000E+00 -0.00000000000E+00 -0.50000000000E+03  0.50000000000E+03  0.00000000000E+00 0.  1.
        -11    1    1    2    0    0  0.37584011535E+02 -0.97446499176E+01  0.30151349174E+03  0.30400312798E+03  0.00000000000E+00 0. -1.
         11    1    1    2    0    0 -0.12837933292E+01 -0.71106414983E+01 -0.48987168309E+03  0.48992496899E+03  0.00000000000E+00 0.  1.
        -15    1    1    2    0    0 -0.91028425955E+01  0.94710111440E+01 -0.21961836767E+01  0.13436619632E+02  0.17770000000E+01 0. -1.
         15    1    1    2    0    0 -0.27197375610E+02  0.73842802720E+01  0.19055437503E+03  0.19263528339E+03  0.17770000000E+01 0.  1.
</event>
<event>
 6    1  0.1860328E-003  0.5025053E+03  0.7546771E-02  0.9394221E-01
        -11   -1    0    0    0    0  0.00000000000E+00  0.00000000000E+00  0.50000000000E+03  0.50000000000E+03  0.00000000000E+00 0. -1.
         11   -1    0    0    0    0 -0.00000000000E+00 -0.00000000000E+00 -0.50000000000E+03  0.50000000000E+03  0.00000000000E+00 0.  1.
        -11    1    1    2    0    0  0.61018478561E+01 -0.42896509685E+01  0.44901821286E+03  0.44908015892E+03  0.00000000000E+00 0. -1.
         11    1    1    2    0    0 -0.38102195966E+01  0.68060144608E+01 -0.49743352378E+03  0.49749467352E+03  0.00000000000E+00 0.  1.
        -15    1    1    2    0    0 -0.18652028765E+01 -0.54393768713E+01  0.12663840639E+01  0.61503869891E+01  0.17770000000E+01 0.  1.
         15    1    1    2    0    0 -0.42642538296E+00  0.29230133790E+01  0.47148926854E+02  0.47274780574E+02  0.17770000000E+01 0. -1.
</event>
<event>
 6    1  0.1860328E-003  0.5027050E+03  0.7546771E-02  0.9393777E-01
        -11   -1    0    0    0    0  0.00000000000E+00  0.00000000000E+00  0.50000000000E+03  0.50000000000E+03  0.00000000000E+00 0. -1.
         11   -1    0    0    0    0 -0.00000000000E+00 -0.00000000000E+00 -0.50000000000E+03  0.50000000000E+03  0.00000000000E+00 0.  1.
        -11    1    1    2    0    0  0.61766755680E+01 -0.39538909197E+00  0.45649903661E+03  0.45654099277E+03  0.00000000000E+00 0. -1.
         11    1    1    2    0    0  0.10526638942E+02  0.50088097764E+01 -0.49715831332E+03  0.49729496962E+03  0.00000000000E+00 0.  1.
        -15    1    1    2    0    0 -0.15867047635E+02 -0.11209461969E+00  0.24240178107E+02  0.29026190406E+02  0.17770000000E+01 0.  1.
         15    1    1    2    0    0 -0.83626687566E+00 -0.45013260648E+01  0.16419098608E+02  0.17137847202E+02  0.17770000000E+01 0.  1.
</event>
<event>
 6    1  0.1860328E-003  0.5071342E+03  0.7546771E-02  0.9383986E-01
        -11   -1    0    0    0    0  0.00000000000E+00  0.00000000000E+00  0.50000000000E+03  0.50000000000E+03  0.00000000000E+00 0. -1.
         11   -1    0    0    0    0 -0.00000000000E+00 -0.00000000000E+00 -0.50000000000E+03  0.50000000000E+03  0.00000000000E+00 0. -1.
        -11    1    1    2    0    0  0.77373259586E+01  0.58341576578E+01  0.49277049212E+03  0.49286576420E+03  0.00000000000E+00 0. -1.
         11    1    1    2    0    0 -0.26686859550E+01 -0.81942375245E+01 -0.48618351312E+03  0.48625988508E+03  0.00000000000E+00 0. -1.
        -15    1    1    2    0    0  0.76982585249E+00  0.56480524999E+01 -0.11098946218E+02  0.12603073634E+02  0.17770000000E+01 0.  1.
         15    1    1    2    0    0 -0.58384658561E+01 -0.32879726332E+01  0.45119672086E+01  0.82712770889E+01  0.17770000000E+01 0. -1.
</event>
<event>
 6    1  0.1860328E-003  0.5013797E+03  0.7546771E-02  0.9396728E-01
        -11   -1    0    0    0    0  0.00000000000E+00  0.00000000000E+00  0.50000000000E+03  0.50000000000E+03  0.00000000000E+00 0. -1.
         11   -1    0    0    0    0 -0.00000000000E+00 -0.00000000000E+00 -0.50000000000E+03  0.50000000000E+03  0.00000000000E+00 0. -1.
        -11    1    1    2    0    0  0.14598375847E+01  0.76955413579E+01  0.24035709446E+03  0.24048468837E+03  0.00000000000E+00 0. -1.
         11    1    1    2    0    0 -0.21003030678E+00  0.12039310854E+02 -0.49847492767E+03  0.49862033917E+03  0.00000000000E+00 0. -1.
        -15    1    1    2    0    0  0.13785392605E+02 -0.17845207208E+02  0.14529625978E+03  0.14704641888E+03  0.17770000000E+01 0. -1.
         15    1    1    2    0    0 -0.15035199883E+02 -0.18896450041E+01  0.11282157342E+03  0.11384855358E+03  0.17770000000E+01 0.  1.
</event>
<event>
 6    1  0.1860328E-003  0.5040508E+03  0.7546771E-02  0.9390791E-01
        -11   -1    0    0    0    0  0.00000000000E+00  0.00000000000E+00  0.50000000000E+03  0.50000000000E+03  0.00000000000E+00 0. -1.
         11   -1    0    0    0    0 -0.00000000000E+00 -0.00000000000E+00 -0.50000000000E+03  0.50000000000E+03  0.00000000000E+00 0. -1.
        -11    1    1    2    0    0 -0.41957206479E+00 -0.12384925335E+01  0.25534217546E+02  0.25567678232E+02  0.00000000000E+00 0. -1.
         11    1    1    2    0    0  0.67223425819E+01 -0.92738099609E+00 -0.49590273686E+03  0.49594916509E+03  0.00000000000E+00 0. -1.
        -15    1    1    2    0    0 -0.64234749816E+01 -0.61080201863E+01  0.10643965887E+01  0.91027254454E+01  0.17770000000E+01 0.  1.
         15    1    1    2    0    0  0.12070446447E+00  0.82738937160E+01  0.46930412273E+03  0.46938043123E+03  0.17770000000E+01 0. -1.
</event>
<event>
 6    1  0.1860328E-003  0.5037673E+03  0.7546771E-02  0.9391419E-01
        -11   -1    0    0    0    0  0.00000000000E+00  0.00000000000E+00  0.50000000000E+03  0.50000000000E+03  0.00000000000E+00 0. -1.
         11   -1    0    0    0    0 -0.00000000000E+00 -0.00000000000E+00 -0.50000000000E+03  0.50000000000E+03  0.00000000000E+00 0. -1.
        -11    1    1    2    0    0 -0.11588551751E+02 -0.27485836106E+01  0.49608976128E+03  0.49623270800E+03  0.00000000000E+00 0. -1.
         11    1    1    2    0    0  0.36377380138E+01 -0.16654905315E+02 -0.45031186556E+03  0.45063443640E+03  0.00000000000E+00 0. -1.
        -15    1    1    2    0    0  0.44135935991E+01  0.21112063479E+02 -0.42582416736E+02  0.47766295407E+02  0.17770000000E+01 0. -1.
         15    1    1    2    0    0  0.35372201385E+01 -0.17085745540E+01 -0.31954789898E+01  0.53665601915E+01  0.17770000000E+01 0.  1.
</event>
<event>
 6    1  0.1860328E-003  0.4938880E+03  0.7546771E-02  0.9413591E-01
        -11   -1    0    0    0    0  0.00000000000E+00  0.00000000000E+00  0.50000000000E+03  0.50000000000E+03  0.00000000000E+00 0.  1.
         11   -1    0    0    0    0 -0.00000000000E+00 -0.00000000000E+00 -0.50000000000E+03  0.50000000000E+03  0.00000000000E+00 0. -1.
        -11    1    1    2    0    0  0.41996441012E+01  0.99167004947E+01  0.49937865249E+03  0.49949476125E+03  0.00000000000E+00 0.  1.
         11    1    1    2    0    0 -0.15839223327E+01  0.31223845964E+00 -0.12937429145E+02  0.13037767282E+02  0.00000000000E+00 0. -1.
        -15    1    1    2    0    0 -0.31193922128E+01  0.82816203331E+01 -0.29173791326E+03  0.29187751473E+03  0.17770000000E+01 0. -1.
         15    1    1    2    0    0  0.50367044437E+00 -0.18510559287E+02 -0.19470331008E+03  0.19558995673E+03  0.17770000000E+01 0.  1.
</event>
<event>
 6    1  0.1860328E-003  0.5011354E+03  0.7546771E-02  0.9397273E-01
        -11   -1    0    0    0    0  0.00000000000E+00  0.00000000000E+00  0.50000000000E+03  0.50000000000E+03  0.00000000000E+00 0. -1.
         11   -1    0    0    0    0 -0.00000000000E+00 -0.00000000000E+00 -0.50000000000E+03  0.50000000000E+03  0.00000000000E+00 0.  1.
        -11    1    1    2    0    0  0.23986165870E+01 -0.77422796628E+01  0.49879876678E+03  0.49886461690E+03  0.00000000000E+00 0. -1.
         11    1    1    2    0    0 -0.51836958468E+00  0.21936555660E+01 -0.10896915389E+03  0.10899246456E+03  0.00000000000E+00 0.  1.
        -15    1    1    2    0    0  0.51529086832E+01  0.30034295666E+01 -0.75426683848E+01  0.97786825504E+01  0.17770000000E+01 0.  1.
         15    1    1    2    0    0 -0.70331556855E+01  0.25451945302E+01 -0.38228694450E+03  0.38236423599E+03  0.17770000000E+01 0. -1.
</event>
<event>
 6    1  0.1860328E-003  0.5054787E+03  0.7546771E-02  0.9387633E-01
        -11   -1    0    0    0    0  0.00000000000E+00  0.00000000000E+00  0.50000000000E+03  0.50000000000E+03  0.00000000000E+00 0. -1.
         11   -1    0    0    0    0 -0.00000000000E+00 -0.00000000000E+00 -0.50000000000E+03  0.50000000000E+03  0.00000000000E+00 0.  1.
        -11    1    1    2    0    0  0.53430502757E+01 -0.51797918229E+01  0.49446528156E+03  0.49452127669E+03  0.00000000000E+00 0. -1.
         11    1    1    2    0    0  0.40750971833E+01 -0.85477869202E+01 -0.44564467244E+03  0.44574526935E+03  0.00000000000E+00 0.  1.
        -15    1    1    2    0    0  0.87573955470E+01  0.20674042013E+01 -0.41126099829E+01  0.10051737500E+02  0.17770000000E+01 0. -1.
         15    1    1    2    0    0 -0.18175543006E+02  0.11660174542E+02 -0.44707999140E+02  0.49681716456E+02  0.17770000000E+01 0.  1.
</event>
<event>
 6    1  0.1860328E-003  0.5148772E+03  0.7546771E-02  0.9367123E-01
        -11   -1    0    0    0    0  0.00000000000E+00  0.00000000000E+00  0.50000000000E+03  0.50000000000E+03  0.00000000000E+00 0. -1.
         11   -1    0    0    0    0 -0.00000000000E+00 -0.00000000000E+00 -0.50000000000E+03  0.50000000000E+03  0.00000000000E+00 0.  1.
        -11    1    1    2    0    0 -0.73734929564E+01 -0.65460683462E+01  0.34294876994E+03  0.34309048108E+03  0.00000000000E+00 0. -1.
         11    1    1    2    0    0 -0.10475159418E+02  0.38527707995E+01 -0.48499442474E+03  0.48512283479E+03  0.00000000000E+00 0.  1.
        -15    1    1    2    0    0  0.24755942589E+02 -0.70593602385E+01 -0.32336055664E+01  0.26005868461E+02  0.17770000000E+01 0. -1.
         15    1    1    2    0    0 -0.69072902144E+01  0.97526577852E+01  0.14527926037E+03  0.14578081566E+03  0.17770000000E+01 0.  1.
</event>
<event>
 6    1  0.1860328E-003  0.5020719E+03  0.7546771E-02  0.9395186E-01
        -11   -1    0    0    0    0  0.00000000000E+00  0.00000000000E+00  0.50000000000E+03  0.50000000000E+03  0.00000000000E+00 0. -1.
         11   -1    0    0    0    0 -0.00000000000E+00 -0.00000000000E+00 -0.50000000000E+03  0.50000000000E+03  0.00000000000E+00 0. -1.
        -11    1    1    2    0    0 -0.19757549632E+00 -0.21059108269E+01  0.11789792977E+03  0.11791690184E+03  0.00000000000E+00 0. -1.
         11    1    1    2    0    0  0.74021551419E+01 -0.20474663648E+01 -0.49786886091E+03  0.49792809389E+03  0.00000000000E+00 0. -1.
        -15    1    1    2    0    0 -0.16889529687E+02 -0.16162582082E+01  0.36465933247E+03  0.36505815289E+03  0.17770000000E+01 0. -1.
         15    1    1    2    0    0  0.96849500409E+01  0.57696353999E+01  0.15311598664E+02  0.19096851379E+02  0.17770000000E+01 0.  1.
</event>
<event>
 6    1  0.1860328E-003  0.4091941E+03  0.7546771E-02  0.9629619E-01
        -11   -1    0    0    0    0  0.00000000000E+00  0.00000000000E+00  0.50000000000E+03  0.50000000000E+03  0.00000000000E+00 0. -1.
         11   -1    0    0    0    0 -0.00000000000E+00 -0.00000000000E+00 -0.50000000000E+03  0.50000000000E+03  0.00000000000E+00 0.  1.
        -11    1    1    2    0    0  0.75597276194E+02 -0.14972805973E+01  0.39072028021E+03  0.39796925433E+03  0.00000000000E+00 0. -1.
         11    1    1    2    0    0  0.18745617266E+02  0.47961972050E+02 -0.42473892560E+03  0.42784916016E+03  0.00000000000E+00 0.  1.
        -15    1    1    2    0    0 -0.31708524970E+02  0.29479078975E+02 -0.33522976324E+02  0.54784982647E+02  0.17770000000E+01 0. -1.
         15    1    1    2    0    0 -0.62634368490E+02 -0.75943770428E+02  0.67541621713E+02  0.11939660286E+03  0.17770000000E+01 0.  1.
</event>
<event>
 6    1  0.1860328E-003  0.5030923E+03  0.7546771E-02  0.9392917E-01
        -11   -1    0    0    0    0  0.00000000000E+00  0.00000000000E+00  0.50000000000E+03  0.50000000000E+03  0.00000000000E+00 0.  1.
         11   -1    0    0    0    0 -0.00000000000E+00 -0.00000000000E+00 -0.50000000000E+03  0.50000000000E+03  0.00000000000E+00 0.  1.
        -11    1    1    2    0    0 -0.73082537124E+01  0.62036657281E+01  0.32943876343E+03  0.32957820755E+03  0.00000000000E+00 0.  1.
         11    1    1    2    0    0 -0.72747149894E+01 -0.13160086432E+02 -0.49668012374E+03  0.49690769231E+03  0.00000000000E+00 0.  1.
        -15    1    1    2    0    0 -0.45292199768E+01  0.10676847477E-01  0.13665627285E+03  0.13674285570E+03  0.17770000000E+01 0. -1.
         15    1    1    2    0    0  0.19112188679E+02  0.69457438562E+01  0.30585087466E+02  0.36771244446E+02  0.17770000000E+01 0.  1.
</event>
<event>
 6    1  0.1860328E-003  0.5026371E+03  0.7546771E-02  0.9393928E-01
        -11   -1    0    0    0    0  0.00000000000E+00  0.00000000000E+00  0.50000000000E+03  0.50000000000E+03  0.00000000000E+00 0.  1.
         11   -1    0    0    0    0 -0.00000000000E+00 -0.00000000000E+00 -0.50000000000E+03  0.50000000000E+03  0.00000000000E+00 0.  1.
        -11    1    1    2    0    0 -0.11364490319E+02 -0.56805206013E+01  0.28189865944E+03  0.28218482268E+03  0.00000000000E+00 0.  1.
         11    1    1    2    0    0  0.56233222690E+01 -0.57720639224E+01 -0.49729759367E+03  0.49736288075E+03  0.00000000000E+00 0.  1.
        -15    1    1    2    0    0 -0.40877657982E+01  0.29882835416E+01  0.76634061220E+00  0.54207632931E+01  0.17770000000E+01 0. -1.
         15    1    1    2    0    0  0.98289338485E+01  0.84643009821E+01  0.21463259362E+03  0.21503153328E+03  0.17770000000E+01 0.  1.
</event>
<event>
 6    1  0.1860328E-003  0.5161993E+03  0.7546771E-02  0.9364275E-01
        -11   -1    0    0    0    0  0.00000000000E+00  0.00000000000E+00  0.50000000000E+03  0.50000000000E+03  0.00000000000E+00 0.  1.
         11   -1    0    0    0    0 -0.00000000000E+00 -0.00000000000E+00 -0.50000000000E+03  0.50000000000E+03  0.00000000000E+00 0. -1.
        -11    1    1    2    0    0 -0.48201332256E+01 -0.41133469372E+00  0.19492521772E+03  0.19498523889E+03  0.00000000000E+00 0.  1.
         11    1    1    2    0    0 -0.12004127026E+02  0.12812748951E+02 -0.48348198925E+03  0.48380068162E+03  0.00000000000E+00 0. -1.
        -15    1    1    2    0    0 -0.29998315202E+02 -0.47904143009E+02  0.49882203140E+02  0.75406218255E+02  0.17770000000E+01 0. -1.
         15    1    1    2    0    0  0.46822575455E+02  0.35502728752E+02  0.23867456839E+03  0.24580786124E+03  0.17770000000E+01 0.  1.
</event>
<event>
 6    1  0.1860328E-003  0.5012751E+03  0.7546771E-02  0.9396961E-01
        -11   -1    0    0    0    0  0.00000000000E+00  0.00000000000E+00  0.50000000000E+03  0.50000000000E+03  0.00000000000E+00 0.  1.
         11   -1    0    0    0    0 -0.00000000000E+00 -0.00000000000E+00 -0.50000000000E+03  0.50000000000E+03  0.00000000000E+00 0.  1.
        -11    1    1    2    0    0  0.43134371985E+01 -0.25920276857E+00  0.23544612775E+03  0.23548577876E+03  0.00000000000E+00 0.  1.
         11    1    1    2    0    0  0.96648877839E+01 -0.25435836829E+01 -0.49862471155E+03  0.49872485686E+03  0.00000000000E+00 0.  1.
        -15    1    1    2    0    0  0.83251924963E-01  0.74837103275E+00 -0.27267870934E+00  0.19491210235E+01  0.17770000000E+01 0. -1.
         15    1    1    2    0    0 -0.14061576907E+02  0.20544154187E+01  0.26345126251E+03  0.26384024336E+03  0.17770000000E+01 0.  1.
</event>
<event>
 6    1  0.1860328E-003  0.5010240E+03  0.7546771E-02  0.9397521E-01
        -11   -1    0    0    0    0  0.00000000000E+00  0.00000000000E+00  0.50000000000E+03  0.50000000000E+03  0.00000000000E+00 0. -1.
         11   -1    0    0    0    0 -0.00000000000E+00 -0.00000000000E+00 -0.50000000000E+03  0.50000000000E+03  0.00000000000E+00 0. -1.
        -11    1    1    2    0    0 -0.68761942559E+01 -0.30776133452E+01  0.49891910231E+03  0.49897597578E+03  0.00000000000E+00 0. -1.
         11    1    1    2    0    0 -0.10893256769E+01  0.34161647094E+01 -0.23330894753E+03  0.23333649909E+03  0.00000000000E+00 0. -1.
        -15    1    1    2    0    0 -0.56061898619E+00 -0.27081765339E+01 -0.18482728281E+01  0.37712538013E+01  0.17770000000E+01 0.  1.
         15    1    1    2    0    0  0.85261389190E+01  0.23696251696E+01 -0.26376188196E+03  0.26391627133E+03  0.17770000000E+01 0. -1.
</event>
<event>
 6    1  0.1860328E-003  0.5008125E+03  0.7546771E-02  0.9397994E-01
        -11   -1    0    0    0    0  0.00000000000E+00  0.00000000000E+00  0.50000000000E+03  0.50000000000E+03  0.00000000000E+00 0.  1.
         11   -1    0    0    0    0 -0.00000000000E+00 -0.00000000000E+00 -0.50000000000E+03  0.50000000000E+03  0.00000000000E+00 0.  1.
        -11    1    1    2    0    0  0.15351488933E+02 -0.16334247596E+02  0.49868397563E+03  0.49918752329E+03  0.00000000000E+00 0.  1.
         11    1    1    2    0    0  0.35755254390E+01  0.15676987504E+01 -0.17150492222E+03  0.17154935269E+03  0.00000000000E+00 0.  1.
        -15    1    1    2    0    0 -0.43736613904E+01  0.18056535365E+02 -0.11061756000E+03  0.11218096850E+03  0.17770000000E+01 0.  1.
         15    1    1    2    0    0 -0.14553352981E+02 -0.32899865195E+01 -0.21656149340E+03  0.21708215553E+03  0.17770000000E+01 0. -1.
</event>
<event>
 6    1  0.5796506E-003  0.5158251E+03  0.7546771E-02  0.9365080E-01
        -11   -1    0    0    0    0  0.00000000000E+00  0.00000000000E+00  0.50000000000E+03  0.50000000000E+03  0.00000000000E+00 0.  1.
         11   -1    0    0    0    0 -0.00000000000E+00 -0.00000000000E+00 -0.50000000000E+03  0.50000000000E+03  0.00000000000E+00 0. -1.
        -11    1    1    2    0    0 -0.32586455331E+02 -0.42989996297E+01  0.48305789959E+03  0.48417485769E+03  0.00000000000E+00 0.  1.
         11    1    1    2    0    0 -0.81745973456E+00  0.53077634089E+01 -0.32769608596E+03  0.32774008810E+03  0.00000000000E+00 0. -1.
        -15    1    1    2    0    0  0.20086352359E+01 -0.24113527238E+01 -0.15654451017E+03  0.15658604865E+03  0.17770000000E+01 0. -1.
         15    1    1    2    0    0  0.31395279829E+02  0.14025889446E+01  0.11826965441E+01  0.31499005562E+02  0.17770000000E+01 0.  1.
</event>
<event>
 6    1  0.1860328E-003  0.5065613E+03  0.7546771E-02  0.9385247E-01
        -11   -1    0    0    0    0  0.00000000000E+00  0.00000000000E+00  0.50000000000E+03  0.50000000000E+03  0.00000000000E+00 0.  1.
         11   -1    0    0    0    0 -0.00000000000E+00 -0.00000000000E+00 -0.50000000000E+03  0.50000000000E+03  0.00000000000E+00 0.  1.
        -11    1    1    2    0    0 -0.11344579247E+01  0.64548537133E+01  0.45787343043E+03  0.45792033196E+03  0.00000000000E+00 0.  1.
         11    1    1    2    0    0 -0.92165044597E+01 -0.15317382966E+02 -0.49311480719E+03  0.49343872896E+03  0.00000000000E+00 0.  1.
        -15    1    1    2    0    0  0.90660526115E+01  0.43676903640E+01  0.40271410900E+02  0.41547735124E+02  0.17770000000E+01 0. -1.
         15    1    1    2    0    0  0.12849097730E+01  0.44948388883E+01 -0.50300341445E+01  0.70932039482E+01  0.17770000000E+01 0.  1.
</event>
<event>
 6    1  0.1860328E-003  0.5026261E+03  0.7546771E-02  0.9393953E-01
        -11   -1    0    0    0    0  0.00000000000E+00  0.00000000000E+00  0.50000000000E+03  0.50000000000E+03  0.00000000000E+00 0. -1.
         11   -1    0    0    0    0 -0.00000000000E+00 -0.00000000000E+00 -0.50000000000E+03  0.50000000000E+03  0.00000000000E+00 0. -1.
        -11    1    1    2    0    0  0.53496422773E+01  0.36537236236E+01  0.10368832817E+03  0.10389050855E+03  0.00000000000E+00 0. -1.
         11    1    1    2    0    0 -0.63824167515E+01 -0.81507519762E+01 -0.49726618878E+03  0.49737393630E+03  0.00000000000E+00 0. -1.
        -15    1    1    2    0    0 -0.32057208471E+00  0.19356034432E+02  0.36607344150E+02  0.41448934969E+02  0.17770000000E+01 0.  1.
         15    1    1    2    0    0  0.13533465590E+01 -0.14859006079E+02  0.35697051647E+03  0.35728662019E+03  0.17770000000E+01 0. -1.
</event>
<event>
 6    1  0.1860328E-003  0.5031322E+03  0.7546771E-02  0.9392828E-01
        -11   -1    0    0    0    0  0.00000000000E+00  0.00000000000E+00  0.50000000000E+03  0.50000000000E+03  0.00000000000E+00 0. -1.
         11   -1    0    0    0    0 -0.00000000000E+00 -0.00000000000E+00 -0.50000000000E+03  0.50000000000E+03  0.00000000000E+00 0.  1.
        -11    1    1    2    0    0  0.90544942854E+01  0.32104565160E+01  0.47247814640E+03  0.47257580315E+03  0.00000000000E+00 0. -1.
         11    1    1    2    0    0 -0.22996592412E+01  0.78176490344E+01 -0.49680097792E+03  0.49686780509E+03  0.00000000000E+00 0.  1.
        -15    1    1    2    0    0  0.19990067753E+01 -0.45681661276E+01  0.19976532473E+01  0.56579605295E+01  0.17770000000E+01 0.  1.
         15    1    1    2    0    0 -0.87538418195E+01 -0.64599394229E+01  0.22325178277E+02  0.24898431237E+02  0.17770000000E+01 0. -1.
</event>
<event>
 6    1  0.1860328E-003  0.5020891E+03  0.7546771E-02  0.9395147E-01
        -11   -1    0    0    0    0  0.00000000000E+00  0.00000000000E+00  0.50000000000E+03  0.50000000000E+03  0.00000000000E+00 0. -1.
         11   -1    0    0    0    0 -0.00000000000E+00 -0.00000000000E+00 -0.50000000000E+03  0.50000000000E+03  0.00000000000E+00 0.  1.
        -11    1    1    2    0    0  0.72014047444E+01 -0.14102575785E+02  0.49765905042E+03  0.49791090904E+03  0.00000000000E+00 0. -1.
         11    1    1    2    0    0 -0.11554154466E+02  0.55360122942E+01 -0.39497050671E+03  0.39517824723E+03  0.00000000000E+00 0.  1.
        -15    1    1    2    0    0  0.48983502727E+01 -0.85146553305E+01 -0.61141816453E+02  0.61951373180E+02  0.17770000000E+01 0. -1.
         15    1    1    2    0    0 -0.54560055115E+00  0.17081218821E+02 -0.41546727266E+02  0.44959470547E+02  0.17770000000E+01 0.  1.
</event>
<event>
 6    1  0.1860328E-003  0.5084793E+03  0.7546771E-02  0.9381034E-01
        -11   -1    0    0    0    0  0.00000000000E+00  0.00000000000E+00  0.50000000000E+03  0.50000000000E+03  0.00000000000E+00 0.  1.
         11   -1    0    0    0    0 -0.00000000000E+00 -0.00000000000E+00 -0.50000000000E+03  0.50000000000E+03  0.00000000000E+00 0. -1.
        -11    1    1    2    0    0 -0.16621269394E+02  0.96976113297E+01  0.49114388967E+03  0.49152073264E+03  0.00000000000E+00 0.  1.
         11    1    1    2    0    0  0.71533656657E+00  0.25880559111E+02 -0.31840246964E+03  0.31945335766E+03  0.00000000000E+00 0. -1.
        -15    1    1    2    0    0 -0.21638637678E+02 -0.29042695139E+02 -0.61144890804E+02  0.71088425091E+02  0.17770000000E+01 0.  1.
         15    1    1    2    0    0  0.37544570505E+02 -0.65354753021E+01 -0.11159652922E+03  0.11793748461E+03  0.17770000000E+01 0. -1.
</event>
<event>
 6    1  0.1860328E-003  0.5053878E+03  0.7546771E-02  0.9387834E-01
        -11   -1    0    0    0    0  0.00000000000E+00  0.00000000000E+00  0.50000000000E+03  0.50000000000E+03  0.00000000000E+00 0.  1.
         11   -1    0    0    0    0 -0.00000000000E+00 -0.00000000000E+00 -0.50000000000E+03  0.50000000000E+03  0.00000000000E+00 0.  1.
        -11    1    1    2    0    0 -0.69927313273E+01 -0.42153751983E+00  0.47951555149E+03  0.47956672122E+03  0.00000000000E+00 0.  1.
         11    1    1    2    0    0  0.57694220445E+01  0.38705006092E+01 -0.49456342236E+03  0.49461221755E+03  0.00000000000E+00 0.  1.
        -15    1    1    2    0    0  0.56011341256E+01 -0.10149912898E+01  0.18530811101E+02  0.19466679221E+02  0.17770000000E+01 0.  1.
         15    1    1    2    0    0 -0.43778248428E+01 -0.24339717996E+01 -0.34829402271E+01  0.63543820077E+01  0.17770000000E+01 0.  1.
</event>
<event>
 6    1  0.1860328E-003  0.5008936E+03  0.7546771E-02  0.9397812E-01
        -11   -1    0    0    0    0  0.00000000000E+00  0.00000000000E+00  0.50000000000E+03  0.50000000000E+03  0.00000000000E+00 0.  1.
         11   -1    0    0    0    0 -0.00000000000E+00 -0.00000000000E+00 -0.50000000000E+03  0.50000000000E+03  0.00000000000E+00 0. -1.
        -11    1    1    2    0    0 -0.65439167749E+01 -0.68680010055E+01  0.49901621234E+03  0.49910637390E+03  0.00000000000E+00 0.  1.
         11    1    1    2    0    0 -0.19673817191E+01 -0.44928847646E+01 -0.36037075270E+03  0.36040412873E+03  0.00000000000E+00 0. -1.
        -15    1    1    2    0    0  0.54930235378E+00  0.40186543652E+01 -0.63613303050E+01  0.77508430659E+01  0.17770000000E+01 0.  1.
         15    1    1    2    0    0  0.79619961403E+01  0.73422314049E+01 -0.13228412933E+03  0.13273865431E+03  0.17770000000E+01 0. -1.
</event>
<event>
 6    1  0.1860328E-003  0.5002930E+03  0.7546771E-02  0.9399154E-01
        -11   -1    0    0    0    0  0.00000000000E+00  0.00000000000E+00  0.50000000000E+03  0.50000000000E+03  0.00000000000E+00 0.  1.
         11   -1    0    0    0    0 -0.00000000000E+00 -0.00000000000E+00 -0.50000000000E+03  0.50000000000E+03  0.00000000000E+00 0.  1.
        -11    1    1    2    0    0  0.34350870675E+01 -0.23261607614E+02  0.49915349086E+03  0.49970702381E+03  0.00000000000E+00 0.  1.
         11    1    1    2    0    0 -0.11210859319E+02  0.63782431905E+01 -0.19432553219E+03  0.19475312017E+03  0.00000000000E+00 0.  1.
        -15    1    1    2    0    0  0.26065897134E+01  0.65907355152E+01 -0.61425838625E+02  0.61858899799E+02  0.17770000000E+01 0. -1.
         15    1    1    2    0    0  0.51691825383E+01  0.10292628909E+02 -0.24340212004E+03  0.24368095622E+03  0.17770000000E+01 0.  1.
</event>
<event>
 6    1  0.1860328E-003  0.5766876E+03  0.7546771E-02  0.9242880E-01
        -11   -1    0    0    0    0  0.00000000000E+00  0.00000000000E+00  0.50000000000E+03  0.50000000000E+03  0.00000000000E+00 0. -1.
         11   -1    0    0    0    0 -0.00000000000E+00 -0.00000000000E+00 -0.50000000000E+03  0.50000000000E+03  0.00000000000E+00 0. -1.
        -11    1    1    2    0    0 -0.41176979921E+01  0.21882024439E+01  0.30800030269E+03  0.30803559879E+03  0.00000000000E+00 0. -1.
         11    1    1    2    0    0 -0.12823820805E+02 -0.21723899120E+01 -0.42311257786E+03  0.42331244159E+03  0.00000000000E+00 0. -1.
        -15    1    1    2    0    0  0.23019235250E+02  0.16431307202E+02 -0.73730428623E+02  0.78988650335E+02  0.17770000000E+01 0.  1.
         15    1    1    2    0    0 -0.60777164534E+01 -0.16447119733E+02  0.18884270379E+03  0.18966330929E+03  0.17770000000E+01 0. -1.
</event>
<event>
 6    1  0.1860328E-003  0.5067238E+03  0.7546771E-02  0.9384889E-01
        -11   -1    0    0    0    0  0.00000000000E+00  0.00000000000E+00  0.50000000000E+03  0.50000000000E+03  0.00000000000E+00 0.  1.
         11   -1    0    0    0    0 -0.00000000000E+00 -0.00000000000E+00 -0.50000000000E+03  0.50000000000E+03  0.00000000000E+00 0.  1.
        -11    1    1    2    0    0 -0.18582003511E+01  0.76661646507E+01  0.48071391133E+03  0.48077862633E+03  0.00000000000E+00 0.  1.
         11    1    1    2    0    0  0.26711291673E+01  0.12294082004E+02 -0.49311574538E+03  0.49327620835E+03  0.00000000000E+00 0.  1.
        -15    1    1    2    0    0  0.29347814723E+01 -0.14187646555E+02  0.11876092910E+02  0.18817586691E+02  0.17770000000E+01 0.  1.
         15    1    1    2    0    0 -0.37477102886E+01 -0.57726001005E+01  0.52574113455E+00  0.71275786259E+01  0.17770000000E+01 0. -1.
</event>
<event>
 6    1  0.1860328E-003  0.5007372E+03  0.7546771E-02  0.9398162E-01
        -11   -1    0    0    0    0  0.00000000000E+00  0.00000000000E+00  0.50000000000E+03  0.50000000000E+03  0.00000000000E+00 0.  1.
         11   -1    0    0    0    0 -0.00000000000E+00 -0.00000000000E+00 -0.50000000000E+03  0.50000000000E+03  0.00000000000E+00 0.  1.
        -11    1    1    2    0    0  0.20988706166E+01  0.79218783643E+01  0.49919557467E+03  0.49926283978E+03  0.00000000000E+00 0.  1.
         11    1    1    2    0    0 -0.39654609417E+00  0.11560340030E+01 -0.88990125139E+02  0.88998517042E+02  0.00000000000E+00 0.  1.
        -15    1    1    2    0    0  0.78889715139E+01 -0.18034033874E+02 -0.16564344352E+03  0.16681837536E+03  0.17770000000E+01 0.  1.
         15    1    1    2    0    0 -0.95912960364E+01  0.89561215069E+01 -0.24456200602E+03  0.24492026782E+03  0.17770000000E+01 0. -1.
</event>
<event>
 6    1  0.1860328E-003  0.5030986E+03  0.7546771E-02  0.9392903E-01
        -11   -1    0    0    0    0  0.00000000000E+00  0.00000000000E+00  0.50000000000E+03  0.50000000000E+03  0.00000000000E+00 0. -1.
         11   -1    0    0    0    0 -0.00000000000E+00 -0.00000000000E+00 -0.50000000000E+03  0.50000000000E+03  0.00000000000E+00 0. -1.
        -11    1    1    2    0    0  0.30194482361E+01  0.36130714309E+01  0.33548986955E+03  0.33552291118E+03  0.00000000000E+00 0. -1.
         11    1    1    2    0    0  0.93586843451E+01 -0.40723563013E+01 -0.49679660385E+03  0.49690143354E+03  0.00000000000E+00 0. -1.
        -15    1    1    2    0    0  0.37277932637E+01  0.61056141044E+00  0.14326253669E+03  0.14332334554E+03  0.17770000000E+01 0.  1.
         15    1    1    2    0    0 -0.16105925845E+02 -0.15127654005E+00  0.18044197604E+02  0.24252309747E+02  0.17770000000E+01 0. -1.
</event>
<event>
 6    1  0.1860328E-003  0.5012813E+03  0.7546771E-02  0.9396947E-01
        -11   -1    0    0    0    0  0.00000000000E+00  0.00000000000E+00  0.50000000000E+03  0.50000000000E+03  0.00000000000E+00 0. -1.
         11   -1    0    0    0    0 -0.00000000000E+00 -0.00000000000E+00 -0.50000000000E+03  0.50000000000E+03  0.00000000000E+00 0.  1.
        -11    1    1    2    0    0 -0.20677030412E+02  0.79987235805E+01  0.49822565276E+03  0.49871867845E+03  0.00000000000E+00 0. -1.
         11    1    1    2    0    0 -0.22061057337E+01  0.71268619043E+00 -0.97356904185E+02  0.97384503986E+02  0.00000000000E+00 0.  1.
        -15    1    1    2    0    0  0.30736905452E+02  0.70977584669E+01 -0.26310055085E+03  0.26499093026E+03  0.17770000000E+01 0. -1.
         15    1    1    2    0    0 -0.78537693067E+01 -0.15809168238E+02 -0.13776819773E+03  0.13890588730E+03  0.17770000000E+01 0.  1.
</event>
<event>
 6    1  0.1860328E-003  0.5302691E+03  0.7546771E-02  0.9334516E-01
        -11   -1    0    0    0    0  0.00000000000E+00  0.00000000000E+00  0.50000000000E+03  0.50000000000E+03  0.00000000000E+00 0. -1.
         11   -1    0    0    0    0 -0.00000000000E+00 -0.00000000000E+00 -0.50000000000E+03  0.50000000000E+03  0.00000000000E+00 0.  1.
        -11    1    1    2    0    0  0.77767157867E+01  0.10547918782E+02  0.46954805954E+03  0.46973089755E+03  0.00000000000E+00 0. -1.
         11    1    1    2    0    0 -0.18567708796E+02 -0.47201283901E+00 -0.34888862735E+03  0.34938267973E+03  0.00000000000E+00 0.  1.
        -15    1    1    2    0    0  0.11735191244E+01 -0.59309688768E+02 -0.11102122238E+02  0.60377406173E+02  0.17770000000E+01 0. -1.
         15    1    1    2    0    0  0.96174738845E+01  0.49233782826E+02 -0.10955730995E+03  0.12050901654E+03  0.17770000000E+01 0.  1.
</event>
<event>
 6    1  0.1860328E-003  0.5158448E+03  0.7546771E-02  0.9365037E-01
        -11   -1    0    0    0    0  0.00000000000E+00  0.00000000000E+00  0.50000000000E+03  0.50000000000E+03  0.00000000000E+00 0.  1.
         11   -1    0    0    0    0 -0.00000000000E+00 -0.00000000000E+00 -0.50000000000E+03  0.50000000000E+03  0.00000000000E+00 0.  1.
        -11    1    1    2    0    0 -0.14177829517E+02 -0.44129006103E+01  0.48392747010E+03  0.48415522393E+03  0.00000000000E+00 0.  1.
         11    1    1    2    0    0  0.81725549972E+01 -0.19622392646E+01 -0.47792487364E+03  0.47799877184E+03  0.00000000000E+00 0.  1.
        -15    1    1    2    0    0 -0.75234377909E+00  0.94669215401E+01  0.13671160716E+02  0.16740579110E+02  0.17770000000E+01 0. -1.
         15    1    1    2    0    0  0.67576182991E+01 -0.30917816652E+01 -0.19673757181E+02  0.21105425121E+02  0.17770000000E+01 0.  1.
</event>
<event>
 6    1  0.1860328E-003  0.5057586E+03  0.7546771E-02  0.9387016E-01
        -11   -1    0    0    0    0  0.00000000000E+00  0.00000000000E+00  0.50000000000E+03  0.50000000000E+03  0.00000000000E+00 0. -1.
         11   -1    0    0    0    0 -0.00000000000E+00 -0.00000000000E+00 -0.50000000000E+03  0.50000000000E+03  0.00000000000E+00 0.  1.
        -11    1    1    2    0    0 -0.37952620403E+01  0.10807467731E+02  0.15476350267E+03  0.15518681366E+03  0.00000000000E+00 0. -1.
         11    1    1    2    0    0 -0.33807914702E+01 -0.95281469045E+01 -0.49413793391E+03  0.49424135102E+03  0.00000000000E+00 0.  1.
        -15    1    1    2    0    0 -0.70588401722E+01  0.14265919448E+02  0.69226122196E+01  0.17447749747E+02  0.17770000000E+01 0.  1.
         15    1    1    2    0    0  0.14234893683E+02 -0.15545240275E+02  0.33245181902E+03  0.33312408557E+03  0.17770000000E+01 0. -1.
</event>
<event>
 6    1  0.1860328E-003  0.5007342E+03  0.7546771E-02  0.9398168E-01
        -11   -1    0    0    0    0  0.00000000000E+00  0.00000000000E+00  0.50000000000E+03  0.50000000000E+03  0.00000000000E+00 0.  1.
         11   -1    0    0    0    0 -0.00000000000E+00 -0.00000000000E+00 -0.50000000000E+03  0.50000000000E+03  0.00000000000E+00 0. -1.
        -11    1    1    2    0    0  0.15407866487E+01 -0.82207558883E+01  0.49919570654E+03  0.49926576918E+03  0.00000000000E+00 0.  1.
         11    1    1    2    0    0  0.55465924170E+01 -0.17364346436E+01 -0.41872684542E+03  0.41876717990E+03  0.00000000000E+00 0. -1.
        -15    1    1    2    0    0 -0.12405526460E+01  0.42155945846E+01 -0.10786964669E+02  0.11782467668E+02  0.17770000000E+01 0.  1.
         15    1    1    2    0    0 -0.58468264196E+01  0.57415959473E+01 -0.69681896452E+02  0.70184583245E+02  0.17770000000E+01 0. -1.
</event>
<event>
 6    1  0.1860328E-003  0.5026631E+03  0.7546771E-02  0.9393870E-01
        -11   -1    0    0    0    0  0.00000000000E+00  0.00000000000E+00  0.50000000000E+03  0.50000000000E+03  0.00000000000E+00 0.  1.
         11   -1    0    0    0    0 -0.00000000000E+00 -0.00000000000E+00 -0.50000000000E+03  0.50000000000E+03  0.00000000000E+00 0.  1.
        -11    1    1    2    0    0  0.56676711565E+01 -0.17428842427E+01  0.39549298088E+03  0.39553742941E+03  0.00000000000E+00 0.  1.
         11    1    1    2    0    0  0.12672655347E+02  0.60481118089E+01 -0.49713863828E+03  0.49733690947E+03  0.00000000000E+00 0.  1.
        -15    1    1    2    0    0 -0.19869593665E+01  0.42220279184E+00  0.77402743390E+02  0.77449781640E+02  0.17770000000E+01 0. -1.
         15    1    1    2    0    0 -0.16353367137E+02 -0.47274303580E+01  0.24242914007E+02  0.29675879482E+02  0.17770000000E+01 0.  1.
</event>
<event>
 6    1  0.1860328E-003  0.5102475E+03  0.7546771E-02  0.9377168E-01
        -11   -1    0    0    0    0  0.00000000000E+00  0.00000000000E+00  0.50000000000E+03  0.50000000000E+03  0.00000000000E+00 0. -1.
         11   -1    0    0    0    0 -0.00000000000E+00 -0.00000000000E+00 -0.50000000000E+03  0.50000000000E+03  0.00000000000E+00 0. -1.
        -11    1    1    2    0    0 -0.18814055175E+02 -0.80315472691E+01  0.48932506874E+03  0.48975248577E+03  0.00000000000E+00 0. -1.
         11    1    1    2    0    0 -0.11964986252E+01 -0.75211077640E+01 -0.39310181005E+03  0.39317557367E+03  0.00000000000E+00 0. -1.
        -15    1    1    2    0    0 -0.16704577173E+02  0.13114639213E+01 -0.48128781000E+01  0.17523822664E+02  0.17770000000E+01 0.  1.
         15    1    1    2    0    0  0.36715130973E+02  0.14241191112E+02 -0.91410380590E+02  0.99548117889E+02  0.17770000000E+01 0. -1.
</event>
<event>
 6    1  0.1860328E-003  0.5790155E+03  0.7546771E-02  0.9238527E-01
        -11   -1    0    0    0    0  0.00000000000E+00  0.00000000000E+00  0.50000000000E+03  0.50000000000E+03  0.00000000000E+00 0.  1.
         11   -1    0    0    0    0 -0.00000000000E+00 -0.00000000000E+00 -0.50000000000E+03  0.50000000000E+03  0.00000000000E+00 0.  1.
        -11    1    1    2    0    0 -0.14903751776E+02  0.24361714667E+02  0.42001470916E+03  0.42098452569E+03  0.00000000000E+00 0.  1.
         11    1    1    2    0    0  0.17616199209E+00  0.70755488792E+01 -0.38650454606E+03  0.38656934507E+03  0.00000000000E+00 0.  1.
        -15    1    1    2    0    0  0.14547139525E+02 -0.20381480766E+02  0.77195900131E+02  0.81175050062E+02  0.17770000000E+01 0. -1.
         15    1    1    2    0    0  0.18045025949E+00 -0.11055782780E+02 -0.11070606323E+03  0.11127107917E+03  0.17770000000E+01 0.  1.
</event>
<event>
 6    1  0.1860328E-003  0.5004753E+03  0.7546771E-02  0.9398747E-01
        -11   -1    0    0    0    0  0.00000000000E+00  0.00000000000E+00  0.50000000000E+03  0.50000000000E+03  0.00000000000E+00 0. -1.
         11   -1    0    0    0    0 -0.00000000000E+00 -0.00000000000E+00 -0.50000000000E+03  0.50000000000E+03  0.00000000000E+00 0.  1.
        -11    1    1    2    0    0  0.20063369060E+01  0.35963947917E+01  0.29766848106E+03  0.29769696683E+03  0.00000000000E+00 0. -1.
         11    1    1    2    0    0 -0.16245871249E+01 -0.87502291087E+01 -0.49944539668E+03  0.49952468413E+03  0.00000000000E+00 0.  1.
        -15    1    1    2    0    0 -0.60586546760E+01 -0.46259885101E+00  0.16416300683E+03  0.16428503229E+03  0.17770000000E+01 0.  1.
         15    1    1    2    0    0  0.56769048949E+01  0.56164331681E+01  0.37613908794E+02  0.38493316751E+02  0.17770000000E+01 0. -1.
</event>
<event>
 6    1  0.1860328E-003  0.4645178E+03  0.7546771E-02  0.9482903E-01
        -11   -1    0    0    0    0  0.00000000000E+00  0.00000000000E+00  0.50000000000E+03  0.50000000000E+03  0.00000000000E+00 0.  1.
         11   -1    0    0    0    0 -0.00000000000E+00 -0.00000000000E+00 -0.50000000000E+03  0.50000000000E+03  0.00000000000E+00 0. -1.
        -11    1    1    2    0    0 -0.15688609920E+02 -0.65373193179E+01  0.45471102606E+03  0.45502855542E+03  0.00000000000E+00 0.  1.
         11    1    1    2    0    0 -0.86833440153E+01 -0.17229329874E+02 -0.47444794741E+03  0.47484008369E+03  0.00000000000E+00 0. -1.
        -15    1    1    2    0    0  0.19097542372E+02  0.35731357876E+02  0.32350721230E+02  0.51876516397E+02  0.17770000000E+01 0.  1.
         15    1    1    2    0    0  0.52744115640E+01 -0.11964708685E+02 -0.12613799878E+02  0.18254844497E+02  0.17770000000E+01 0. -1.
</event>
<event>
 6    1  0.1860328E-003  0.5067332E+03  0.7546771E-02  0.9384868E-01
        -11   -1    0    0    0    0  0.00000000000E+00  0.00000000000E+00  0.50000000000E+03  0.50000000000E+03  0.00000000000E+00 0.  1.
         11   -1    0    0    0    0 -0.00000000000E+00 -0.00000000000E+00 -0.50000000000E+03  0.50000000000E+03  0.00000000000E+00 0. -1.
        -11    1    1    2    0    0  0.37763930515E+01  0.24169683964E+01  0.31148950809E+03  0.31152177537E+03  0.00000000000E+00 0.  1.
         11    1    1    2    0    0  0.37554302423E+02 -0.13008653841E+02 -0.49166303686E+03  0.49326675594E+03  0.00000000000E+00 0. -1.
        -15    1    1    2    0    0 -0.28858518674E+01 -0.20764094698E+01  0.13286276739E+03  0.13292220396E+03  0.17770000000E+01 0.  1.
         15    1    1    2    0    0 -0.38444843607E+02  0.12668094915E+02  0.47310761376E+02  0.62289264723E+02  0.17770000000E+01 0. -1.
</event>
<event>
 6    1  0.1860328E-003  0.5030586E+03  0.7546771E-02  0.9392992E-01
        -11   -1    0    0    0    0  0.00000000000E+00  0.00000000000E+00  0.50000000000E+03  0.50000000000E+03  0.00000000000E+00 0. -1.
         11   -1    0    0    0    0 -0.00000000000E+00 -0.00000000000E+00 -0.50000000000E+03  0.50000000000E+03  0.00000000000E+00 0. -1.
        -11    1    1    2    0    0 -0.23235605097E+01 -0.72033142011E+01  0.45578965998E+03  0.45585249897E+03  0.00000000000E+00 0. -1.
         11    1    1    2    0    0 -0.63891612587E+01  0.45670589289E+01 -0.49687934456E+03  0.49694140747E+03  0.00000000000E+00 0. -1.
        -15    1    1    2    0    0  0.66194903253E+01  0.78939714098E+01  0.39781270662E+02  0.41131978572E+02  0.17770000000E+01 0.  1.
         15    1    1    2    0    0  0.20932314431E+01 -0.52577161377E+01  0.13084139196E+01  0.60741149844E+01  0.17770000000E+01 0. -1.
</event>
<event>
 6    1  0.1860328E-003  0.5117244E+03  0.7546771E-02  0.9373951E-01
        -11   -1    0    0    0    0  0.00000000000E+00  0.00000000000E+00  0.50000000000E+03  0.50000000000E+03  0.00000000000E+00 0. -1.
         11   -1    0    0    0    0 -0.00000000000E+00 -0.00000000000E+00 -0.50000000000E+03  0.50000000000E+03  0.00000000000E+00 0.  1.
        -11    1    1    2    0    0 -0.66246022259E+01 -0.34613408376E+00  0.44607766110E+03  0.44612698293E+03  0.00000000000E+00 0. -1.
         11    1    1    2    0    0 -0.87440106156E+01  0.84530152940E+01 -0.48812413550E+03  0.48827562181E+03  0.00000000000E+00 0.  1.
        -15    1    1    2    0    0  0.28379631514E+02 -0.65456252892E+01  0.98594413410E+01  0.30799594280E+02  0.17770000000E+01 0.  1.
         15    1    1    2    0    0 -0.13011018672E+02 -0.15612559211E+01  0.32187033060E+02  0.34797800981E+02  0.17770000000E+01 0. -1.
</event>
<event>
 6    1  0.1860328E-003  0.5006565E+03  0.7546771E-02  0.9398342E-01
        -11   -1    0    0    0    0  0.00000000000E+00  0.00000000000E+00  0.50000000000E+03  0.50000000000E+03  0.00000000000E+00 0.  1.
         11   -1    0    0    0    0 -0.00000000000E+00 -0.00000000000E+00 -0.50000000000E+03  0.50000000000E+03  0.00000000000E+00 0. -1.
        -11    1    1    2    0    0 -0.54735478537E+01  0.50515755959E+01  0.49928792753E+03  0.49934348171E+03  0.00000000000E+00 0.  1.
         11    1    1    2    0    0 -0.21742857502E+01  0.33938576252E+01 -0.29271297327E+03  0.29274072233E+03  0.00000000000E+00 0. -1.
        -15    1    1    2    0    0  0.75594833119E+01 -0.62692019641E+01 -0.37141791012E+02  0.38459316814E+02  0.17770000000E+01 0. -1.
         15    1    1    2    0    0  0.88350292076E-01 -0.21762312570E+01 -0.16943316325E+03  0.16945647915E+03  0.17770000000E+01 0. -1.
</event>
<event>
 6    1  0.1860328E-003  0.4534714E+03  0.7546771E-02  0.9510398E-01
        -11   -1    0    0    0    0  0.00000000000E+00  0.00000000000E+00  0.50000000000E+03  0.50000000000E+03  0.00000000000E+00 0.  1.
         11   -1    0    0    0    0 -0.00000000000E+00 -0.00000000000E+00 -0.50000000000E+03  0.50000000000E+03  0.00000000000E+00 0. -1.
        -11    1    1    2    0    0 -0.70907741763E+01  0.37409292079E+02  0.44907293040E+03  0.45068418103E+03  0.00000000000E+00 0.  1.
         11    1    1    2    0    0  0.78227155625E+01  0.17164845306E+01 -0.45706741359E+03  0.45713757422E+03  0.00000000000E+00 0. -1.
        -15    1    1    2    0    0  0.82825237312E+00 -0.45285137037E+02  0.39417933912E+02  0.60069633604E+02  0.17770000000E+01 0.  1.
         15    1    1    2    0    0 -0.15601937593E+01  0.61593604269E+01 -0.31423450722E+02  0.32108611145E+02  0.17770000000E+01 0. -1.
</event>
<event>
 6    1  0.1860328E-003  0.5207650E+03  0.7546771E-02  0.9354509E-01
        -11   -1    0    0    0    0  0.00000000000E+00  0.00000000000E+00  0.50000000000E+03  0.50000000000E+03  0.00000000000E+00 0.  1.
         11   -1    0    0    0    0 -0.00000000000E+00 -0.00000000000E+00 -0.50000000000E+03  0.50000000000E+03  0.00000000000E+00 0. -1.
        -11    1    1    2    0    0  0.32334443630E+02  0.12259059604E+02  0.47798572722E+03  0.47923496974E+03  0.00000000000E+00 0.  1.
         11    1    1    2    0    0  0.76675164177E+00  0.93539515125E+01 -0.42053138227E+03  0.42063609901E+03  0.00000000000E+00 0. -1.
        -15    1    1    2    0    0 -0.36914377474E+02 -0.21055644085E+02 -0.16299142201E-01  0.42534332095E+02  0.17770000000E+01 0. -1.
         15    1    1    2    0    0  0.38131822020E+01 -0.55736703197E+00 -0.57438045809E+02  0.57594599155E+02  0.17770000000E+01 0.  1.
</event>
<event>
 6    1  0.1860328E-003  0.5015777E+03  0.7546771E-02  0.9396286E-01
        -11   -1    0    0    0    0  0.00000000000E+00  0.00000000000E+00  0.50000000000E+03  0.50000000000E+03  0.00000000000E+00 0. -1.
         11   -1    0    0    0    0 -0.00000000000E+00 -0.00000000000E+00 -0.50000000000E+03  0.50000000000E+03  0.00000000000E+00 0. -1.
        -11    1    1    2    0    0 -0.32368647949E+01 -0.10523872072E+02  0.44123761214E+03  0.44137496479E+03  0.00000000000E+00 0. -1.
         11    1    1    2    0    0  0.80965805585E+01 -0.23214256962E+01 -0.49835116363E+03  0.49842233690E+03  0.00000000000E+00 0. -1.
        -15    1    1    2    0    0 -0.51808563156E+00  0.38251023692E+01  0.31497605301E+01  0.52894745726E+01  0.17770000000E+01 0.  1.
         15    1    1    2    0    0 -0.43416301320E+01  0.90201953989E+01  0.53963790958E+02  0.54913223734E+02  0.17770000000E+01 0. -1.
</event>
<event>
 6    1  0.1860328E-003  0.4210482E+03  0.7546771E-02  0.9596176E-01
        -11   -1    0    0    0    0  0.00000000000E+00  0.00000000000E+00  0.50000000000E+03  0.50000000000E+03  0.00000000000E+00 0. -1.
         11   -1    0    0    0    0 -0.00000000000E+00 -0.00000000000E+00 -0.50000000000E+03  0.50000000000E+03  0.00000000000E+00 0.  1.
        -11    1    1    2    0    0  0.20917689933E+02  0.12945468033E+02  0.43352028655E+03  0.43421765711E+03  0.00000000000E+00 0. -1.
         11    1    1    2    0    0  0.17019639253E+02  0.46578452150E+02 -0.40820961587E+03  0.41121078636E+03  0.00000000000E+00 0.  1.
        -15    1    1    2    0    0 -0.41885789879E+02 -0.80697158564E+02 -0.63345715645E+02  0.11082548540E+03  0.17770000000E+01 0. -1.
         15    1    1    2    0    0  0.39484606927E+01  0.21173238380E+02  0.38035044963E+02  0.43746071134E+02  0.17770000000E+01 0.  1.
</event>
<event>
 6    1  0.1860328E-003  0.5002240E+03  0.7546771E-02  0.9399309E-01
        -11   -1    0    0    0    0  0.00000000000E+00  0.00000000000E+00  0.50000000000E+03  0.50000000000E+03  0.00000000000E+00 0.  1.
         11   -1    0    0    0    0 -0.00000000000E+00 -0.00000000000E+00 -0.50000000000E+03  0.50000000000E+03  0.00000000000E+00 0.  1.
        -11    1    1    2    0    0  0.50576291193E+01  0.24554002070E+01  0.15261524511E+03  0.15271876650E+03  0.00000000000E+00 0.  1.
         11    1    1    2    0    0 -0.67050773787E+01 -0.13735864391E+01 -0.49972909380E+03  0.49977596180E+03  0.00000000000E+00 0.  1.
        -15    1    1    2    0    0 -0.16154485010E+01  0.68662765653E+01  0.11843179110E+03  0.11865497166E+03  0.17770000000E+01 0. -1.
         15    1    1    2    0    0  0.32628967604E+01 -0.79480903332E+01  0.22868205760E+03  0.22885030004E+03  0.17770000000E+01 0.  1.
</event>
<event>
 6    1  0.1860328E-003  0.5020830E+03  0.7546771E-02  0.9395161E-01
        -11   -1    0    0    0    0  0.00000000000E+00  0.00000000000E+00  0.50000000000E+03  0.50000000000E+03  0.00000000000E+00 0. -1.
         11   -1    0    0    0    0 -0.00000000000E+00 -0.00000000000E+00 -0.50000000000E+03  0.50000000000E+03  0.00000000000E+00 0.  1.
        -11    1    1    2    0    0 -0.46077288957E+01 -0.63870900397E+01  0.49785475154E+03  0.49791704100E+03  0.00000000000E+00 0. -1.
         11    1    1    2    0    0 -0.82083759138E+00  0.14973290715E+00 -0.56693503804E+02  0.56699643455E+02  0.00000000000E+00 0.  1.
        -15    1    1    2    0    0 -0.26846261664E+02  0.55841703218E+01 -0.15673472174E+03  0.15912521941E+03  0.17770000000E+01 0. -1.
         15    1    1    2    0    0  0.32274828151E+02  0.65318681075E+00 -0.28442652600E+03  0.28625809614E+03  0.17770000000E+01 0.  1.
</event>
<event>
 6    1  0.1860328E-003  0.5224658E+03  0.7546771E-02  0.9350898E-01
        -11   -1    0    0    0    0  0.00000000000E+00  0.00000000000E+00  0.50000000000E+03  0.50000000000E+03  0.00000000000E+00 0. -1.
         11   -1    0    0    0    0 -0.00000000000E+00 -0.00000000000E+00 -0.50000000000E+03  0.50000000000E+03  0.00000000000E+00 0. -1.
        -11    1    1    2    0    0  0.85879708168E+01 -0.23386639534E+02  0.44767074399E+03  0.44836344986E+03  0.00000000000E+00 0. -1.
         11    1    1    2    0    0  0.84520765550E+01 -0.49048089166E+01 -0.47743418958E+03  0.47753418739E+03  0.00000000000E+00 0. -1.
        -15    1    1    2    0    0 -0.10627149300E+02 -0.12951876005E+01 -0.15921571119E+02  0.19268315159E+02  0.17770000000E+01 0.  1.
         15    1    1    2    0    0 -0.64128980717E+01  0.29586636051E+02  0.45685016709E+02  0.54834047590E+02  0.17770000000E+01 0. -1.
</event>
<event>
 6    1  0.1860328E-003  0.4168227E+03  0.7546771E-02  0.9607961E-01
        -11   -1    0    0    0    0  0.00000000000E+00  0.00000000000E+00  0.50000000000E+03  0.50000000000E+03  0.00000000000E+00 0.  1.
         11   -1    0    0    0    0 -0.00000000000E+00 -0.00000000000E+00 -0.50000000000E+03  0.50000000000E+03  0.00000000000E+00 0. -1.
        -11    1    1    2    0    0 -0.15878823405E+02  0.70857856591E+01  0.41700768390E+03  0.41737004423E+03  0.00000000000E+00 0.  1.
         11    1    1    2    0    0  0.12188576731E+02 -0.46165186997E+01 -0.41608353553E+03  0.41628761955E+03  0.00000000000E+00 0. -1.
        -15    1    1    2    0    0 -0.13353320007E+02  0.13761462938E+02 -0.80794386818E+02  0.83057688914E+02  0.17770000000E+01 0. -1.
         15    1    1    2    0    0  0.17043566681E+02 -0.16230729898E+02  0.79870238453E+02  0.83284647312E+02  0.17770000000E+01 0.  1.
</event>
<event>
 6    1  0.1860328E-003  0.5085038E+03  0.7546771E-02  0.9380980E-01
        -11   -1    0    0    0    0  0.00000000000E+00  0.00000000000E+00  0.50000000000E+03  0.50000000000E+03  0.00000000000E+00 0. -1.
         11   -1    0    0    0    0 -0.00000000000E+00 -0.00000000000E+00 -0.50000000000E+03  0.50000000000E+03  0.00000000000E+00 0.  1.
        -11    1    1    2    0    0  0.11315089479E+02 -0.95266819002E+01  0.49127362332E+03  0.49149624809E+03  0.00000000000E+00 0. -1.
         11    1    1    2    0    0 -0.44892521739E+01 -0.52856186537E+01 -0.46967075453E+03  0.46972194840E+03  0.00000000000E+00 0.  1.
        -15    1    1    2    0    0 -0.42510048654E+01  0.59844815036E+01  0.59919769316E+01  0.96408805501E+01  0.17770000000E+01 0.  1.
         15    1    1    2    0    0 -0.25748324402E+01  0.88278190503E+01 -0.27594845727E+02  0.29140922961E+02  0.17770000000E+01 0. -1.
</event>
<event>
 6    1  0.1860328E-003  0.5006678E+03  0.7546771E-02  0.9398317E-01
        -11   -1    0    0    0    0  0.00000000000E+00  0.00000000000E+00  0.50000000000E+03  0.50000000000E+03  0.00000000000E+00 0.  1.
         11   -1    0    0    0    0 -0.00000000000E+00 -0.00000000000E+00 -0.50000000000E+03  0.50000000000E+03  0.00000000000E+00 0. -1.
        -11    1    1    2    0    0 -0.12497487736E+01 -0.40906780148E+01  0.24600063615E+03  0.24603781926E+03  0.00000000000E+00 0.  1.
         11    1    1    2    0    0 -0.24255781578E-01  0.18454314634E+02 -0.49899104872E+03  0.49933218304E+03  0.00000000000E+00 0. -1.
        -15    1    1    2    0    0 -0.56196933629E+01 -0.18980864950E+02  0.15413790281E+03  0.15541397943E+03  0.17770000000E+01 0.  1.
         15    1    1    2    0    0  0.68936979181E+01  0.46172283309E+01  0.98852509755E+02  0.99216018274E+02  0.17770000000E+01 0. -1.
</event>
<event>
 6    1  0.1860328E-003  0.5078344E+03  0.7546771E-02  0.9382448E-01
        -11   -1    0    0    0    0  0.00000000000E+00  0.00000000000E+00  0.50000000000E+03  0.50000000000E+03  0.00000000000E+00 0.  1.
         11   -1    0    0    0    0 -0.00000000000E+00 -0.00000000000E+00 -0.50000000000E+03  0.50000000000E+03  0.00000000000E+00 0.  1.
        -11    1    1    2    0    0  0.87814011908E+01  0.82347245367E+00  0.47860452055E+03  0.47868578233E+03  0.00000000000E+00 0.  1.
         11    1    1    2    0    0 -0.55424644001E+01  0.36769586499E+01 -0.49212069428E+03  0.49216563947E+03  0.00000000000E+00 0.  1.
        -15    1    1    2    0    0  0.58435687502E+01 -0.12166653006E+02  0.53919613388E+01  0.14642599400E+02  0.17770000000E+01 0. -1.
         15    1    1    2    0    0 -0.90825055409E+01  0.76662219024E+01  0.81242123931E+01  0.14505978808E+02  0.17770000000E+01 0.  1.
</event>
<event>
 6    1  0.1860328E-003  0.5235449E+03  0.7546771E-02  0.9348615E-01
        -11   -1    0    0    0    0  0.00000000000E+00  0.00000000000E+00  0.50000000000E+03  0.50000000000E+03  0.00000000000E+00 0.  1.
         11   -1    0    0    0    0 -0.00000000000E+00 -0.00000000000E+00 -0.50000000000E+03  0.50000000000E+03  0.00000000000E+00 0.  1.
        -11    1    1    2    0    0  0.40932482287E+02  0.29425150174E+01  0.47468444955E+03  0.47645509037E+03  0.00000000000E+00 0.  1.
         11    1    1    2    0    0  0.67486926890E+01  0.26064246111E+01 -0.41780367492E+03  0.41786630527E+03  0.00000000000E+00 0.  1.
        -15    1    1    2    0    0 -0.43024157238E+02 -0.18568216544E+02  0.22666121405E+00  0.46894198746E+02  0.17770000000E+01 0.  1.
         15    1    1    2    0    0 -0.46570177382E+01  0.13019276916E+02 -0.57107435846E+02  0.58784405615E+02  0.17770000000E+01 0. -1.
</event>
<event>
 6    1  0.1860328E-003  0.5006295E+03  0.7546771E-02  0.9398402E-01
        -11   -1    0    0    0    0  0.00000000000E+00  0.00000000000E+00  0.50000000000E+03  0.50000000000E+03  0.00000000000E+00 0.  1.
         11   -1    0    0    0    0 -0.00000000000E+00 -0.00000000000E+00 -0.50000000000E+03  0.50000000000E+03  0.00000000000E+00 0.  1.
        -11    1    1    2    0    0  0.11959749496E+02 -0.17909924102E+01  0.49922408702E+03  0.49937053609E+03  0.00000000000E+00 0.  1.
         11    1    1    2    0    0  0.42528232660E+01 -0.40838479268E+01 -0.37478912857E+03  0.37483550421E+03  0.00000000000E+00 0.  1.
        -15    1    1    2    0    0 -0.15319345166E+01 -0.38798490930E+00 -0.15258020867E+02  0.15442224109E+02  0.17770000000E+01 0.  1.
         15    1    1    2    0    0 -0.14680638245E+02  0.62628252463E+01 -0.10917693758E+03  0.11035173559E+03  0.17770000000E+01 0. -1.
</event>
<event>
 6    1  0.1860328E-003  0.5073500E+03  0.7546771E-02  0.9383512E-01
        -11   -1    0    0    0    0  0.00000000000E+00  0.00000000000E+00  0.50000000000E+03  0.50000000000E+03  0.00000000000E+00 0. -1.
         11   -1    0    0    0    0 -0.00000000000E+00 -0.00000000000E+00 -0.50000000000E+03  0.50000000000E+03  0.00000000000E+00 0. -1.
        -11    1    1    2    0    0 -0.17649107589E+02 -0.87118557827E+01  0.49225668363E+03  0.49265000762E+03  0.00000000000E+00 0. -1.
         11    1    1    2    0    0  0.26852603136E+01 -0.11474532618E+02 -0.46494348625E+03  0.46509280894E+03  0.00000000000E+00 0. -1.
        -15    1    1    2    0    0  0.30364086167E+01  0.13476301569E+02 -0.24486379686E+02  0.28170392265E+02  0.17770000000E+01 0.  1.
         15    1    1    2    0    0  0.11927438658E+02  0.67100868315E+01 -0.28268176919E+01  0.14086791171E+02  0.17770000000E+01 0. -1.
</event>
<event>
 6    1  0.1860328E-003  0.4681241E+03  0.7546771E-02  0.9474103E-01
        -11   -1    0    0    0    0  0.00000000000E+00  0.00000000000E+00  0.50000000000E+03  0.50000000000E+03  0.00000000000E+00 0. -1.
         11   -1    0    0    0    0 -0.00000000000E+00 -0.00000000000E+00 -0.50000000000E+03  0.50000000000E+03  0.00000000000E+00 0.  1.
        -11    1    1    2    0    0  0.78590226177E+01  0.25697258081E+02  0.46903867203E+03  0.46980782153E+03  0.00000000000E+00 0. -1.
         11    1    1    2    0    0 -0.11378477127E+02 -0.32837063198E+01 -0.46656823240E+03  0.46671851040E+03  0.00000000000E+00 0.  1.
        -15    1    1    2    0    0 -0.95270234717E+00 -0.27700934031E+02  0.23596224552E+02  0.36444326446E+02  0.17770000000E+01 0. -1.
         15    1    1    2    0    0  0.44721568567E+01  0.52873822695E+01 -0.26066664183E+02  0.27029341628E+02  0.17770000000E+01 0.  1.
</event>
<event>
 6    1  0.1860328E-003  0.5005538E+03  0.7546771E-02  0.9398571E-01
        -11   -1    0    0    0    0  0.00000000000E+00  0.00000000000E+00  0.50000000000E+03  0.50000000000E+03  0.00000000000E+00 0.  1.
         11   -1    0    0    0    0 -0.00000000000E+00 -0.00000000000E+00 -0.50000000000E+03  0.50000000000E+03  0.00000000000E+00 0.  1.
        -11    1    1    2    0    0 -0.65700666397E+00  0.28678404451E+01  0.20145617798E+03  0.20147766083E+03  0.00000000000E+00 0.  1.
         11    1    1    2    0    0 -0.70728434933E+01  0.14624208490E+01 -0.49939399537E+03  0.49944621973E+03  0.00000000000E+00 0.  1.
        -15    1    1    2    0    0  0.24852748331E+01 -0.62214274888E+01  0.21778929911E+02  0.22855245964E+02  0.17770000000E+01 0. -1.
         15    1    1    2    0    0  0.52445753242E+01  0.18911661947E+01  0.27615888748E+03  0.27622087347E+03  0.17770000000E+01 0.  1.
</event>
<event>
 6    1  0.1860328E-003  0.5159163E+03  0.7546771E-02  0.9364883E-01
        -11   -1    0    0    0    0  0.00000000000E+00  0.00000000000E+00  0.50000000000E+03  0.50000000000E+03  0.00000000000E+00 0. -1.
         11   -1    0    0    0    0 -0.00000000000E+00 -0.00000000000E+00 -0.50000000000E+03  0.50000000000E+03  0.00000000000E+00 0. -1.
        -11    1    1    2    0    0  0.10231515143E+02 -0.19849152411E+02  0.48356831367E+03  0.48408365675E+03  0.00000000000E+00 0. -1.
         11    1    1    2    0    0 -0.14342104941E+01 -0.67239996089E+01 -0.45412041834E+03  0.45417246007E+03  0.00000000000E+00 0. -1.
        -15    1    1    2    0    0 -0.15867817364E+02  0.12278636262E+01  0.63950928604E+01  0.17243845820E+02  0.17770000000E+01 0.  1.
         15    1    1    2    0    0  0.70705127152E+01  0.25345288393E+02 -0.35842988188E+02  0.44500037360E+02  0.17770000000E+01 0. -1.
</event>
<event>
 6    1  0.1860328E-003  0.5070464E+03  0.7546771E-02  0.9384179E-01
        -11   -1    0    0    0    0  0.00000000000E+00  0.00000000000E+00  0.50000000000E+03  0.50000000000E+03  0.00000000000E+00 0.  1.
         11   -1    0    0    0    0 -0.00000000000E+00 -0.00000000000E+00 -0.50000000000E+03  0.50000000000E+03  0.00000000000E+00 0.  1.
        -11    1    1    2    0    0 -0.93739764139E+01 -0.55591189604E+00  0.40608878204E+03  0.40619734043E+03  0.00000000000E+00 0.  1.
         11    1    1    2    0    0 -0.18764402480E+02  0.79462887694E+01 -0.49253224413E+03  0.49295360615E+03  0.00000000000E+00 0.  1.
        -15    1    1    2    0    0  0.36482335104E+02  0.48358718581E+01  0.65314952320E+02  0.74990313754E+02  0.17770000000E+01 0. -1.
         15    1    1    2    0    0 -0.83439562106E+01 -0.12226248732E+02  0.21128509765E+02  0.25858739668E+02  0.17770000000E+01 0.  1.
</event>
<event>
 6    1  0.1860328E-003  0.5130902E+03  0.7546771E-02  0.9370987E-01
        -11   -1    0    0    0    0  0.00000000000E+00  0.00000000000E+00  0.50000000000E+03  0.50000000000E+03  0.00000000000E+00 0.  1.
         11   -1    0    0    0    0 -0.00000000000E+00 -0.00000000000E+00 -0.50000000000E+03  0.50000000000E+03  0.00000000000E+00 0. -1.
        -11    1    1    2    0    0  0.85260114175E+01  0.15060972934E+02  0.48660216419E+03  0.48690983968E+03  0.00000000000E+00 0.  1.
         11    1    1    2    0    0  0.21240538182E+01  0.69918615665E+01 -0.29998804849E+03  0.30007703506E+03  0.00000000000E+00 0. -1.
        -15    1    1    2    0    0  0.10062086859E+02 -0.31906458621E+00 -0.18235114166E+03  0.18263746600E+03  0.17770000000E+01 0.  1.
         15    1    1    2    0    0 -0.20712152095E+02 -0.21733769914E+02 -0.42629740449E+01  0.30375659265E+02  0.17770000000E+01 0. -1.
</event>
<event>
 6    1  0.1860328E-003  0.5077203E+03  0.7546771E-02  0.9382699E-01
        -11   -1    0    0    0    0  0.00000000000E+00  0.00000000000E+00  0.50000000000E+03  0.50000000000E+03  0.00000000000E+00 0. -1.
         11   -1    0    0    0    0 -0.00000000000E+00 -0.00000000000E+00 -0.50000000000E+03  0.50000000000E+03  0.00000000000E+00 0.  1.
        -11    1    1    2    0    0  0.53563632024E+01 -0.18510654834E+02  0.49190244387E+03  0.49227974695E+03  0.00000000000E+00 0. -1.
         11    1    1    2    0    0 -0.86589465839E+01  0.72882571960E+01 -0.31296255550E+03  0.31316713939E+03  0.00000000000E+00 0.  1.
        -15    1    1    2    0    0 -0.12825104499E+02 -0.16847750279E+02 -0.14872299831E+03  0.15023321188E+03  0.17770000000E+01 0.  1.
         15    1    1    2    0    0  0.16127687881E+02  0.28070147917E+02 -0.30216890063E+02  0.44319901789E+02  0.17770000000E+01 0. -1.
</event>
<event>
 6    1  0.1860328E-003  0.5021989E+03  0.7546771E-02  0.9394903E-01
        -11   -1    0    0    0    0  0.00000000000E+00  0.00000000000E+00  0.50000000000E+03  0.50000000000E+03  0.00000000000E+00 0. -1.
         11   -1    0    0    0    0 -0.00000000000E+00 -0.00000000000E+00 -0.50000000000E+03  0.50000000000E+03  0.00000000000E+00 0. -1.
        -11    1    1    2    0    0  0.40995117744E+01 -0.10723830106E+02  0.49766873837E+03  0.49780114471E+03  0.00000000000E+00 0. -1.
         11    1    1    2    0    0 -0.16148808275E+01 -0.14537586993E+02 -0.27350700933E+03  0.27389785218E+03  0.00000000000E+00 0. -1.
        -15    1    1    2    0    0 -0.10943342177E+01  0.34095141253E+02 -0.17732265549E+03  0.18058282893E+03  0.17770000000E+01 0.  1.
         15    1    1    2    0    0 -0.13902967292E+01 -0.88337241541E+01 -0.46839073542E+02  0.47718174176E+02  0.17770000000E+01 0. -1.
</event>
<event>
 6    1  0.1860328E-003  0.5044319E+03  0.7546771E-02  0.9389947E-01
        -11   -1    0    0    0    0  0.00000000000E+00  0.00000000000E+00  0.50000000000E+03  0.50000000000E+03  0.00000000000E+00 0. -1.
         11   -1    0    0    0    0 -0.00000000000E+00 -0.00000000000E+00 -0.50000000000E+03  0.50000000000E+03  0.00000000000E+00 0. -1.
        -11    1    1    2    0    0  0.21082694345E+01 -0.66515277936E+01  0.48032964201E+03  0.48038032080E+03  0.00000000000E+00 0. -1.
         11    1    1    2    0    0  0.86054505162E+01 -0.41979196508E+00 -0.49549318187E+03  0.49556808138E+03  0.00000000000E+00 0. -1.
        -15    1    1    2    0    0 -0.94458791457E+01  0.55819441358E+01  0.28730151618E+01  0.11480186335E+02  0.17770000000E+01 0.  1.
         15    1    1    2    0    0 -0.12678408049E+01  0.14893756229E+01  0.12290524706E+02  0.12571411480E+02  0.17770000000E+01 0. -1.
</event>
<event>
 6    1  0.1860328E-003  0.5082525E+03  0.7546771E-02  0.9381531E-01
        -11   -1    0    0    0    0  0.00000000000E+00  0.00000000000E+00  0.50000000000E+03  0.50000000000E+03  0.00000000000E+00 0. -1.
         11   -1    0    0    0    0 -0.00000000000E+00 -0.00000000000E+00 -0.50000000000E+03  0.50000000000E+03  0.00000000000E+00 0. -1.
        -11    1    1    2    0    0 -0.27411824957E+02  0.92085967667E+01  0.49089656694E+03  0.49174754279E+03  0.00000000000E+00 0. -1.
         11    1    1    2    0    0 -0.93824794415E+01  0.54144677275E+01 -0.34912889930E+03  0.34929691626E+03  0.00000000000E+00 0. -1.
        -15    1    1    2    0    0 -0.69649848680E+01  0.16269601199E+02 -0.27613661011E+02  0.32846353539E+02  0.17770000000E+01 0.  1.
         15    1    1    2    0    0  0.43759289266E+02 -0.30892665693E+02 -0.11415400663E+03  0.12610918741E+03  0.17770000000E+01 0. -1.
</event>
<event>
 6    1  0.1860328E-003  0.5024312E+03  0.7546771E-02  0.9394386E-01
        -11   -1    0    0    0    0  0.00000000000E+00  0.00000000000E+00  0.50000000000E+03  0.50000000000E+03  0.00000000000E+00 0. -1.
         11   -1    0    0    0    0 -0.00000000000E+00 -0.00000000000E+00 -0.50000000000E+03  0.50000000000E+03  0.00000000000E+00 0.  1.
        -11    1    1    2    0    0 -0.61865652858E+01 -0.41292512666E+01  0.49751324456E+03  0.49756884229E+03  0.00000000000E+00 0. -1.
         11    1    1    2    0    0 -0.10534595542E+02  0.14240605549E+02 -0.44804596134E+03  0.44839598128E+03  0.00000000000E+00 0.  1.
        -15    1    1    2    0    0  0.16881469093E+02 -0.74465452601E+01 -0.42044351066E+02  0.45949104677E+02  0.17770000000E+01 0.  1.
         15    1    1    2    0    0 -0.16030826438E+00 -0.26648090222E+01 -0.74229321456E+01  0.80860717597E+01  0.17770000000E+01 0.  1.
</event>
<event>
 6    1  0.1860328E-003  0.4663060E+03  0.7546771E-02  0.9478529E-01
        -11   -1    0    0    0    0  0.00000000000E+00  0.00000000000E+00  0.50000000000E+03  0.50000000000E+03  0.00000000000E+00 0.  1.
         11   -1    0    0    0    0 -0.00000000000E+00 -0.00000000000E+00 -0.50000000000E+03  0.50000000000E+03  0.00000000000E+00 0. -1.
        -11    1    1    2    0    0 -0.23633021663E+01 -0.13740425790E+02  0.46497277385E+03  0.46518175472E+03  0.00000000000E+00 0.  1.
         11    1    1    2    0    0 -0.21795896791E+02  0.85479029555E+01 -0.46717386032E+03  0.46776013461E+03  0.00000000000E+00 0. -1.
        -15    1    1    2    0    0 -0.18326584602E+01 -0.24828861080E+01  0.28813992961E+02  0.29033209947E+02  0.17770000000E+01 0. -1.
         15    1    1    2    0    0  0.25991857417E+02  0.76754089425E+01 -0.26612906492E+02  0.38024900728E+02  0.17770000000E+01 0.  1.
</event>
<event>
 6    1  0.1860328E-003  0.5055856E+03  0.7546771E-02  0.9387397E-01
        -11   -1    0    0    0    0  0.00000000000E+00  0.00000000000E+00  0.50000000000E+03  0.50000000000E+03  0.00000000000E+00 0.  1.
         11   -1    0    0    0    0 -0.00000000000E+00 -0.00000000000E+00 -0.50000000000E+03  0.50000000000E+03  0.00000000000E+00 0.  1.
        -11    1    1    2    0    0  0.96676176540E+01  0.10583568248E+01  0.44417190232E+03  0.44427836067E+03  0.00000000000E+00 0.  1.
         11    1    1    2    0    0 -0.14887711382E+02  0.93554733922E+01 -0.49410161377E+03  0.49441437435E+03  0.00000000000E+00 0.  1.
        -15    1    1    2    0    0 -0.90851369447E+01  0.33104468556E+01  0.35196938987E+02  0.36544233673E+02  0.17770000000E+01 0. -1.
         15    1    1    2    0    0  0.14305230673E+02 -0.13724277073E+02  0.14732772466E+02  0.24763031303E+02  0.17770000000E+01 0.  1.
</event>
<event>
 6    1  0.1860328E-003  0.5050632E+03  0.7546771E-02  0.9388551E-01
        -11   -1    0    0    0    0  0.00000000000E+00  0.00000000000E+00  0.50000000000E+03  0.50000000000E+03  0.00000000000E+00 0.  1.
         11   -1    0    0    0    0 -0.00000000000E+00 -0.00000000000E+00 -0.50000000000E+03  0.50000000000E+03  0.00000000000E+00 0.  1.
        -11    1    1    2    0    0  0.28447996207E+02 -0.23254263856E+01  0.49411304398E+03  0.49493675993E+03  0.00000000000E+00 0.  1.
         11    1    1    2    0    0  0.47047916168E+01 -0.31037955271E+01 -0.35472869297E+03  0.35477346889E+03  0.00000000000E+00 0.  1.
        -15    1    1    2    0    0 -0.38629466587E+02  0.12174965284E+01 -0.65584444795E+02  0.76145880483E+02  0.17770000000E+01 0.  1.
         15    1    1    2    0    0  0.54766787626E+01  0.42117253843E+01 -0.73799906215E+02  0.74143890694E+02  0.17770000000E+01 0. -1.
</event>
<event>
 6    1  0.1860328E-003  0.5043064E+03  0.7546771E-02  0.9390225E-01
        -11   -1    0    0    0    0  0.00000000000E+00  0.00000000000E+00  0.50000000000E+03  0.50000000000E+03  0.00000000000E+00 0. -1.
         11   -1    0    0    0    0 -0.00000000000E+00 -0.00000000000E+00 -0.50000000000E+03  0.50000000000E+03  0.00000000000E+00 0. -1.
        -11    1    1    2    0    0  0.83029906960E+01 -0.36242271177E+01  0.46609551470E+03  0.46618355129E+03  0.00000000000E+00 0. -1.
         11    1    1    2    0    0  0.53394061336E+01 -0.56719677506E+01 -0.49563242527E+03  0.49569363669E+03  0.00000000000E+00 0. -1.
        -15    1    1    2    0    0 -0.12023393646E+02  0.77256660825E+01  0.81575433719E+01  0.16551469846E+02  0.17770000000E+01 0. -1.
         15    1    1    2    0    0 -0.16190031832E+01  0.15705287858E+01  0.21379367202E+02  0.21571342168E+02  0.17770000000E+01 0.  1.
</event>
<event>
 6    1  0.1860328E-003  0.5102807E+03  0.7546771E-02  0.9377095E-01
        -11   -1    0    0    0    0  0.00000000000E+00  0.00000000000E+00  0.50000000000E+03  0.50000000000E+03  0.00000000000E+00 0. -1.
         11   -1    0    0    0    0 -0.00000000000E+00 -0.00000000000E+00 -0.50000000000E+03  0.50000000000E+03  0.00000000000E+00 0. -1.
        -11    1    1    2    0    0  0.40717280336E+00  0.64885227556E+01  0.47783247223E+03  0.47787669773E+03  0.00000000000E+00 0. -1.
         11    1    1    2    0    0  0.31098723905E+01  0.70255285206E+01 -0.48965899539E+03  0.48971926766E+03  0.00000000000E+00 0. -1.
        -15    1    1    2    0    0  0.85723977577E+01 -0.13586835387E+02  0.11955304615E+01  0.16207255203E+02  0.17770000000E+01 0. -1.
         15    1    1    2    0    0 -0.12089442952E+02  0.72784110563E-01  0.10630992698E+02  0.16196779407E+02  0.17770000000E+01 0.  1.
</event>
<event>
 6    1  0.1860328E-003  0.5079254E+03  0.7546771E-02  0.9382248E-01
        -11   -1    0    0    0    0  0.00000000000E+00  0.00000000000E+00  0.50000000000E+03  0.50000000000E+03  0.00000000000E+00 0.  1.
         11   -1    0    0    0    0 -0.00000000000E+00 -0.00000000000E+00 -0.50000000000E+03  0.50000000000E+03  0.00000000000E+00 0. -1.
        -11    1    1    2    0    0 -0.43793630117E+01  0.76737977042E+01  0.49199522057E+03  0.49207455030E+03  0.00000000000E+00 0.  1.
         11    1    1    2    0    0  0.59533489586E+01  0.53419899053E+01 -0.45303221571E+03  0.45310282243E+03  0.00000000000E+00 0. -1.
        -15    1    1    2    0    0 -0.13384241725E+02 -0.20246969739E+02 -0.21570955672E+02  0.32519864203E+02  0.17770000000E+01 0. -1.
         15    1    1    2    0    0  0.11810255778E+02  0.72311821291E+01 -0.17392049190E+02  0.22302763070E+02  0.17770000000E+01 0.  1.
</event>
<event>
 6    1  0.1860328E-003  0.5166126E+03  0.7546771E-02  0.9363386E-01
        -11   -1    0    0    0    0  0.00000000000E+00  0.00000000000E+00  0.50000000000E+03  0.50000000000E+03  0.00000000000E+00 0.  1.
         11   -1    0    0    0    0 -0.00000000000E+00 -0.00000000000E+00 -0.50000000000E+03  0.50000000000E+03  0.00000000000E+00 0.  1.
        -11    1    1    2    0    0 -0.68847896624E+01  0.16066631550E+02  0.36826766381E+03  0.36868226047E+03  0.00000000000E+00 0.  1.
         11    1    1    2    0    0  0.67172991542E+01 -0.32856900605E+01 -0.48332952168E+03  0.48338736475E+03  0.00000000000E+00 0.  1.
        -15    1    1    2    0    0 -0.45225310269E+02 -0.18938320814E+01  0.46063204001E+02  0.64605663689E+02  0.17770000000E+01 0. -1.
         15    1    1    2    0    0  0.45392800777E+02 -0.10887109408E+02  0.68998653875E+02  0.83324711096E+02  0.17770000000E+01 0.  1.
</event>
<event>
 6    1  0.1860328E-003  0.5037665E+03  0.7546771E-02  0.9391421E-01
        -11   -1    0    0    0    0  0.00000000000E+00  0.00000000000E+00  0.50000000000E+03  0.50000000000E+03  0.00000000000E+00 0.  1.
         11   -1    0    0    0    0 -0.00000000000E+00 -0.00000000000E+00 -0.50000000000E+03  0.50000000000E+03  0.00000000000E+00 0. -1.
        -11    1    1    2    0    0  0.62900345925E+01 -0.47947482644E+01  0.30107413923E+03  0.30117800627E+03  0.00000000000E+00 0.  1.
         11    1    1    2    0    0  0.32525358283E+01  0.98166172479E+01 -0.49612569711E+03  0.49623346551E+03  0.00000000000E+00 0. -1.
        -15    1    1    2    0    0 -0.21688758775E+01 -0.11959615551E+01  0.19400529866E+03  0.19402924518E+03  0.17770000000E+01 0.  1.
         15    1    1    2    0    0 -0.73736945433E+01 -0.38259074284E+01  0.10462592170E+01  0.85592830435E+01  0.17770000000E+01 0. -1.
</event>
<event>
 6    1  0.1860328E-003  0.5002499E+03  0.7546771E-02  0.9399251E-01
        -11   -1    0    0    0    0  0.00000000000E+00  0.00000000000E+00  0.50000000000E+03  0.50000000000E+03  0.00000000000E+00 0.  1.
         11   -1    0    0    0    0 -0.00000000000E+00 -0.00000000000E+00 -0.50000000000E+03  0.50000000000E+03  0.00000000000E+00 0. -1.
        -11    1    1    2    0    0  0.11075171249E+02 -0.94325571571E+00  0.49962649031E+03  0.49975011653E+03  0.00000000000E+00 0.  1.
         11    1    1    2    0    0  0.16793727226E+01  0.39232713099E+00 -0.43218830306E+02  0.43253225386E+02  0.00000000000E+00 0. -1.
        -15    1    1    2    0    0 -0.65000505877E+01  0.36095345542E+01 -0.40674892137E+03  0.40682074942E+03  0.17770000000E+01 0. -1.
         15    1    1    2    0    0 -0.62544933840E+01 -0.30586059694E+01 -0.49658738639E+02  0.50175908664E+02  0.17770000000E+01 0.  1.
</event>
<event>
 6    1  0.1860328E-003  0.5370328E+03  0.7546771E-02  0.9320557E-01
        -11   -1    0    0    0    0  0.00000000000E+00  0.00000000000E+00  0.50000000000E+03  0.50000000000E+03  0.00000000000E+00 0. -1.
         11   -1    0    0    0    0 -0.00000000000E+00 -0.00000000000E+00 -0.50000000000E+03  0.50000000000E+03  0.00000000000E+00 0. -1.
        -11    1    1    2    0    0 -0.53812971319E+01 -0.22679480939E+02  0.44087961956E+03  0.44149536369E+03  0.00000000000E+00 0. -1.
         11    1    1    2    0    0  0.11064153565E+02  0.21775182117E+02 -0.46232249126E+03  0.46296723424E+03  0.00000000000E+00 0. -1.
        -15    1    1    2    0    0  0.17027885964E+02  0.36823264216E+01  0.53397619269E+02  0.56195835263E+02  0.17770000000E+01 0. -1.
         15    1    1    2    0    0 -0.22710742396E+02 -0.27780275996E+01 -0.31954747569E+02  0.39341566806E+02  0.17770000000E+01 0.  1.
</event>
<event>
 6    1  0.1860328E-003  0.5007801E+03  0.7546771E-02  0.9398066E-01
        -11   -1    0    0    0    0  0.00000000000E+00  0.00000000000E+00  0.50000000000E+03  0.50000000000E+03  0.00000000000E+00 0. -1.
         11   -1    0    0    0    0 -0.00000000000E+00 -0.00000000000E+00 -0.50000000000E+03  0.50000000000E+03  0.00000000000E+00 0. -1.
        -11    1    1    2    0    0  0.21837226022E+01 -0.13741539441E+01  0.10501941483E+03  0.10505110392E+03  0.00000000000E+00 0. -1.
         11    1    1    2    0    0 -0.22317614008E+02 -0.20715989886E+01 -0.49871647590E+03  0.49921988217E+03  0.00000000000E+00 0. -1.
        -15    1    1    2    0    0  0.22663492124E+02 -0.53487740931E+01  0.14595071568E+03  0.14780734892E+03  0.17770000000E+01 0.  1.
         15    1    1    2    0    0 -0.25296007183E+01  0.87945270258E+01  0.24774634539E+03  0.24792166498E+03  0.17770000000E+01 0. -1.
</event>
<event>
 6    1  0.1860328E-003  0.4823986E+03  0.7546771E-02  0.9440079E-01
        -11   -1    0    0    0    0  0.00000000000E+00  0.00000000000E+00  0.50000000000E+03  0.50000000000E+03  0.00000000000E+00 0.  1.
         11   -1    0    0    0    0 -0.00000000000E+00 -0.00000000000E+00 -0.50000000000E+03  0.50000000000E+03  0.00000000000E+00 0. -1.
        -11    1    1    2    0    0 -0.74959939106E+01 -0.22724936697E+01  0.47878796317E+03  0.47885203124E+03  0.00000000000E+00 0.  1.
         11    1    1    2    0    0 -0.36688495313E+01 -0.12354847393E+02 -0.48597649060E+03  0.48614735640E+03  0.00000000000E+00 0. -1.
        -15    1    1    2    0    0  0.21935339833E+01  0.72231435696E+01  0.17635394570E+02  0.19265260575E+02  0.17770000000E+01 0. -1.
         15    1    1    2    0    0  0.89713094587E+01  0.74041974930E+01 -0.10446867133E+02  0.15735351786E+02  0.17770000000E+01 0.  1.
</event>
<event>
 6    1  0.1860328E-003  0.5004124E+03  0.7546771E-02  0.9398887E-01
        -11   -1    0    0    0    0  0.00000000000E+00  0.00000000000E+00  0.50000000000E+03  0.50000000000E+03  0.00000000000E+00 0. -1.
         11   -1    0    0    0    0 -0.00000000000E+00 -0.00000000000E+00 -0.50000000000E+03  0.50000000000E+03  0.00000000000E+00 0. -1.
        -11    1    1    2    0    0 -0.10046155512E+02 -0.40823018400E+02  0.49781551962E+03  0.49958756555E+03  0.00000000000E+00 0. -1.
         11    1    1    2    0    0  0.14522181000E+01  0.24015318833E+01 -0.56908324701E+02  0.56977484264E+02  0.00000000000E+00 0. -1.
        -15    1    1    2    0    0  0.56634489102E+01  0.41282868308E+02 -0.41943355810E+03  0.42150209639E+03  0.17770000000E+01 0. -1.
         15    1    1    2    0    0  0.29304885019E+01 -0.28613817908E+01 -0.21473636820E+02  0.21932853802E+02  0.17770000000E+01 0. -1.
</event>
<event>
 6    1  0.1860328E-003  0.5096244E+03  0.7546771E-02  0.9378528E-01
        -11   -1    0    0    0    0  0.00000000000E+00  0.00000000000E+00  0.50000000000E+03  0.50000000000E+03  0.00000000000E+00 0. -1.
         11   -1    0    0    0    0 -0.00000000000E+00 -0.00000000000E+00 -0.50000000000E+03  0.50000000000E+03  0.00000000000E+00 0. -1.
        -11    1    1    2    0    0  0.15409705445E+02  0.43043248089E+01  0.49011456140E+03  0.49037564125E+03  0.00000000000E+00 0. -1.
         11    1    1    2    0    0 -0.21078008853E+02  0.25565686405E+02 -0.27475575910E+03  0.27674647954E+03  0.00000000000E+00 0. -1.
        -15    1    1    2    0    0  0.29893495065E+02  0.73284724383E+01 -0.15439844017E+03  0.15744638329E+03  0.17770000000E+01 0.  1.
         15    1    1    2    0    0 -0.24225191657E+02 -0.37198483652E+02 -0.60960362130E+02  0.75431495921E+02  0.17770000000E+01 0. -1.
</event>
<event>
 6    1  0.1860328E-003  0.4963043E+03  0.7546771E-02  0.9408117E-01
        -11   -1    0    0    0    0  0.00000000000E+00  0.00000000000E+00  0.50000000000E+03  0.50000000000E+03  0.00000000000E+00 0.  1.
         11   -1    0    0    0    0 -0.00000000000E+00 -0.00000000000E+00 -0.50000000000E+03  0.50000000000E+03  0.00000000000E+00 0.  1.
        -11    1    1    2    0    0 -0.18038034699E+02  0.37731446853E+02  0.49576560347E+03  0.49752644790E+03  0.00000000000E+00 0.  1.
         11    1    1    2    0    0  0.19454722366E+01  0.25888415868E+00 -0.11891041692E+02  0.12051919173E+02  0.00000000000E+00 0.  1.
        -15    1    1    2    0    0  0.41965167244E+01 -0.18527497446E+02 -0.44429827276E+03  0.44470776002E+03  0.17770000000E+01 0.  1.
         15    1    1    2    0    0  0.11896045738E+02 -0.19462833566E+02 -0.39576289020E+02  0.45713872908E+02  0.17770000000E+01 0. -1.
</event>
<event>
 6    1  0.1860328E-003  0.5039450E+03  0.7546771E-02  0.9391026E-01
        -11   -1    0    0    0    0  0.00000000000E+00  0.00000000000E+00  0.50000000000E+03  0.50000000000E+03  0.00000000000E+00 0. -1.
         11   -1    0    0    0    0 -0.00000000000E+00 -0.00000000000E+00 -0.50000000000E+03  0.50000000000E+03  0.00000000000E+00 0. -1.
        -11    1    1    2    0    0  0.89885552542E+00 -0.10924291940E+02  0.49593391892E+03  0.49605503730E+03  0.00000000000E+00 0. -1.
         11    1    1    2    0    0 -0.71206722794E+01  0.13038420427E+02 -0.48010884287E+03  0.48033863615E+03  0.00000000000E+00 0. -1.
        -15    1    1    2    0    0 -0.21981980681E+01  0.53840015206E+01 -0.49473313909E+01  0.78392196048E+01  0.17770000000E+01 0. -1.
         15    1    1    2    0    0  0.84200148221E+01 -0.74981300073E+01 -0.10877744665E+02  0.15767106939E+02  0.17770000000E+01 0.  1.
</event>
<event>
 6    1  0.1860328E-003  0.5043794E+03  0.7546771E-02  0.9390063E-01
        -11   -1    0    0    0    0  0.00000000000E+00  0.00000000000E+00  0.50000000000E+03  0.50000000000E+03  0.00000000000E+00 0.  1.
         11   -1    0    0    0    0 -0.00000000000E+00 -0.00000000000E+00 -0.50000000000E+03  0.50000000000E+03  0.00000000000E+00 0. -1.
        -11    1    1    2    0    0 -0.23034448351E+01 -0.13857968484E+02  0.49542147304E+03  0.49562060601E+03  0.00000000000E+00 0.  1.
         11    1    1    2    0    0 -0.23131235207E+02 -0.66105010527E+01 -0.24346820362E+03  0.24465387579E+03  0.00000000000E+00 0. -1.
        -15    1    1    2    0    0  0.10471210516E+02  0.24862487749E+02 -0.47380198509E+02  0.54551173099E+02  0.17770000000E+01 0.  1.
         15    1    1    2    0    0  0.14963469526E+02 -0.43940182126E+01 -0.20457307092E+03  0.20517434511E+03  0.17770000000E+01 0. -1.
</event>
<event>
 6    1  0.1860328E-003  0.5063772E+03  0.7546771E-02  0.9385652E-01
        -11   -1    0    0    0    0  0.00000000000E+00  0.00000000000E+00  0.50000000000E+03  0.50000000000E+03  0.00000000000E+00 0. -1.
         11   -1    0    0    0    0 -0.00000000000E+00 -0.00000000000E+00 -0.50000000000E+03  0.50000000000E+03  0.00000000000E+00 0. -1.
        -11    1    1    2    0    0  0.87048766714E+01  0.55734099075E+01  0.49351458130E+03  0.49362281120E+03  0.00000000000E+00 0. -1.
         11    1    1    2    0    0 -0.11697373911E+02  0.78641759041E+01 -0.47608060502E+03  0.47628921497E+03  0.00000000000E+00 0. -1.
        -15    1    1    2    0    0 -0.83508385671E+01 -0.69896057801E+01 -0.55551181556E+01  0.12353467548E+02  0.17770000000E+01 0.  1.
         15    1    1    2    0    0  0.11343335807E+02 -0.64479800314E+01 -0.11878858128E+02  0.17734506284E+02  0.17770000000E+01 0. -1.
</event>
<event>
 6    1  0.1860328E-003  0.5038028E+03  0.7546771E-02  0.9391341E-01
        -11   -1    0    0    0    0  0.00000000000E+00  0.00000000000E+00  0.50000000000E+03  0.50000000000E+03  0.00000000000E+00 0.  1.
         11   -1    0    0    0    0 -0.00000000000E+00 -0.00000000000E+00 -0.50000000000E+03  0.50000000000E+03  0.00000000000E+00 0. -1.
        -11    1    1    2    0    0 -0.83899700866E+00  0.62966792101E+01  0.37264475110E+03  0.37269889000E+03  0.00000000000E+00 0.  1.
         11    1    1    2    0    0  0.14635550342E+02  0.48097517251E+01 -0.49595803054E+03  0.49619724012E+03  0.00000000000E+00 0. -1.
        -15    1    1    2    0    0 -0.33965978296E+01 -0.25945245272E+02  0.68733574942E+02  0.73567347936E+02  0.17770000000E+01 0. -1.
         15    1    1    2    0    0 -0.10399955504E+02  0.14838814336E+02  0.54579704502E+02  0.57536521949E+02  0.17770000000E+01 0.  1.
</event>
<event>
 6    1  0.1860328E-003  0.5040004E+03  0.7546771E-02  0.9390903E-01
        -11   -1    0    0    0    0  0.00000000000E+00  0.00000000000E+00  0.50000000000E+03  0.50000000000E+03  0.00000000000E+00 0. -1.
         11   -1    0    0    0    0 -0.00000000000E+00 -0.00000000000E+00 -0.50000000000E+03  0.50000000000E+03  0.00000000000E+00 0.  1.
        -11    1    1    2    0    0  0.67245632656E+01 -0.26253961923E+01  0.46477392851E+03  0.46482998729E+03  0.00000000000E+00 0. -1.
         11    1    1    2    0    0  0.27770504337E+01 -0.11539641033E+02 -0.49585755551E+03  0.49599958738E+03  0.00000000000E+00 0.  1.
        -15    1    1    2    0    0 -0.48436782053E+01  0.47569299929E+01  0.26783324303E+02  0.27687430202E+02  0.17770000000E+01 0.  1.
         15    1    1    2    0    0 -0.46579354940E+01  0.94081072325E+01  0.43003026960E+01  0.11482995125E+02  0.17770000000E+01 0. -1.
</event>
<event>
 6    1  0.1860328E-003  0.5261442E+03  0.7546771E-02  0.9343138E-01
        -11   -1    0    0    0    0  0.00000000000E+00  0.00000000000E+00  0.50000000000E+03  0.50000000000E+03  0.00000000000E+00 0.  1.
         11   -1    0    0    0    0 -0.00000000000E+00 -0.00000000000E+00 -0.50000000000E+03  0.50000000000E+03  0.00000000000E+00 0.  1.
        -11    1    1    2    0    0  0.17776839407E+01 -0.13355817686E+02  0.47366419083E+03  0.47385578365E+03  0.00000000000E+00 0.  1.
         11    1    1    2    0    0 -0.15976633902E+01 -0.58776199389E+01 -0.36359945639E+03  0.36365046903E+03  0.00000000000E+00 0.  1.
        -15    1    1    2    0    0  0.18875493999E+02  0.75176783081E+01  0.21145596863E+02  0.29378457355E+02  0.17770000000E+01 0. -1.
         15    1    1    2    0    0 -0.19055514550E+02  0.11715759317E+02 -0.13121033130E+03  0.13311528996E+03  0.17770000000E+01 0.  1.
</event>
<event>
 6    1  0.1860328E-003  0.5007036E+03  0.7546771E-02  0.9398237E-01
        -11   -1    0    0    0    0  0.00000000000E+00  0.00000000000E+00  0.50000000000E+03  0.50000000000E+03  0.00000000000E+00 0. -1.
         11   -1    0    0    0    0 -0.00000000000E+00 -0.00000000000E+00 -0.50000000000E+03  0.50000000000E+03  0.00000000000E+00 0. -1.
        -11    1    1    2    0    0 -0.13141270100E+01  0.15125767218E+01  0.12899085687E+03  0.12900641835E+03  0.00000000000E+00 0. -1.
         11    1    1    2    0    0 -0.22303084177E+01 -0.89544038996E+01 -0.49921107944E+03  0.49929636235E+03  0.00000000000E+00 0. -1.
        -15    1    1    2    0    0  0.16653705998E+02  0.49729043793E+01  0.14031952621E+03  0.14140298040E+03  0.17770000000E+01 0.  1.
         15    1    1    2    0    0 -0.13109270570E+02  0.24689227985E+01  0.22990069636E+03  0.23029423890E+03  0.17770000000E+01 0. -1.
</event>
<event>
 6    1  0.1860328E-003  0.5022384E+03  0.7546771E-02  0.9394815E-01
        -11   -1    0    0    0    0  0.00000000000E+00  0.00000000000E+00  0.50000000000E+03  0.50000000000E+03  0.00000000000E+00 0.  1.
         11   -1    0    0    0    0 -0.00000000000E+00 -0.00000000000E+00 -0.50000000000E+03  0.50000000000E+03  0.00000000000E+00 0.  1.
        -11    1    1    2    0    0  0.61614030323E+01  0.32230025234E+01  0.49771300481E+03  0.49776157524E+03  0.00000000000E+00 0.  1.
         11    1    1    2    0    0 -0.65177984285E+01 -0.13830699245E+01 -0.47075608317E+03  0.47080323323E+03  0.00000000000E+00 0.  1.
        -15    1    1    2    0    0 -0.51315669038E+01 -0.58868690309E+01 -0.84998470070E+01  0.11678755671E+02  0.17770000000E+01 0. -1.
         15    1    1    2    0    0  0.54879623000E+01  0.40469364321E+01 -0.18457074637E+02  0.19756435859E+02  0.17770000000E+01 0. -1.
</event>
<event>
 6    1  0.1860328E-003  0.5002178E+03  0.7546771E-02  0.9399322E-01
        -11   -1    0    0    0    0  0.00000000000E+00  0.00000000000E+00  0.50000000000E+03  0.50000000000E+03  0.00000000000E+00 0.  1.
         11   -1    0    0    0    0 -0.00000000000E+00 -0.00000000000E+00 -0.50000000000E+03  0.50000000000E+03  0.00000000000E+00 0. -1.
        -11    1    1    2    0    0  0.23235793656E+01  0.67978323947E+00  0.27546376578E+02  0.27652558452E+02  0.00000000000E+00 0.  1.
         11    1    1    2    0    0  0.52566902276E+00  0.17300080451E+02 -0.49948240035E+03  0.49978218993E+03  0.00000000000E+00 0. -1.
        -15    1    1    2    0    0  0.45880933500E+01 -0.48950207715E+01  0.25788638063E+03  0.25797975671E+03  0.17770000000E+01 0.  1.
         15    1    1    2    0    0 -0.74373417384E+01 -0.13084842919E+02  0.21404964314E+03  0.21458549491E+03  0.17770000000E+01 0. -1.
</event>
<event>
 6    1  0.1860328E-003  0.5006919E+03  0.7546771E-02  0.9398263E-01
        -11   -1    0    0    0    0  0.00000000000E+00  0.00000000000E+00  0.50000000000E+03  0.50000000000E+03  0.00000000000E+00 0.  1.
         11   -1    0    0    0    0 -0.00000000000E+00 -0.00000000000E+00 -0.50000000000E+03  0.50000000000E+03  0.00000000000E+00 0. -1.
        -11    1    1    2    0    0 -0.67277017824E+00  0.15500136154E+02  0.49906699020E+03  0.49930808881E+03  0.00000000000E+00 0.  1.
         11    1    1    2    0    0  0.19973599094E+01  0.40447907140E+01 -0.23064351899E+03  0.23068762999E+03  0.00000000000E+00 0. -1.
        -15    1    1    2    0    0 -0.16676158899E+01  0.76690232682E+00 -0.13563992217E+03  0.13566397937E+03  0.17770000000E+01 0. -1.
         15    1    1    2    0    0  0.34302615874E+00 -0.20311829195E+02 -0.13278354905E+03  0.13434030184E+03  0.17770000000E+01 0.  1.
</event>
<event>
 6    1  0.1860328E-003  0.5013065E+03  0.7546771E-02  0.9396891E-01
        -11   -1    0    0    0    0  0.00000000000E+00  0.00000000000E+00  0.50000000000E+03  0.50000000000E+03  0.00000000000E+00 0. -1.
         11   -1    0    0    0    0 -0.00000000000E+00 -0.00000000000E+00 -0.50000000000E+03  0.50000000000E+03  0.00000000000E+00 0.  1.
        -11    1    1    2    0    0  0.67577016925E+01  0.19863952049E+01  0.49864370881E+03  0.49869345357E+03  0.00000000000E+00 0. -1.
         11    1    1    2    0    0 -0.31072349665E+00  0.51272146812E+01 -0.37557031587E+03  0.37560544064E+03  0.00000000000E+00 0.  1.
        -15    1    1    2    0    0  0.15515093940E+01 -0.13245485615E+02 -0.45250919796E+02  0.47208617242E+02  0.17770000000E+01 0.  1.
         15    1    1    2    0    0 -0.79984875899E+01  0.61318757292E+01 -0.77822473144E+02  0.78492488551E+02  0.17770000000E+01 0. -1.
</event>
<event>
 6    1  0.1860328E-003  0.5032385E+03  0.7546771E-02  0.9392592E-01
        -11   -1    0    0    0    0  0.00000000000E+00  0.00000000000E+00  0.50000000000E+03  0.50000000000E+03  0.00000000000E+00 0.  1.
         11   -1    0    0    0    0 -0.00000000000E+00 -0.00000000000E+00 -0.50000000000E+03  0.50000000000E+03  0.00000000000E+00 0. -1.
        -11    1    1    2    0    0  0.38126298480E+01  0.49278065152E+01  0.42030763589E+03  0.42035381313E+03  0.00000000000E+00 0.  1.
         11    1    1    2    0    0 -0.74693270850E+01 -0.22473350709E+01 -0.49670024301E+03  0.49676148478E+03  0.00000000000E+00 0. -1.
        -15    1    1    2    0    0 -0.77737859498E+01  0.11468584221E+01  0.67045829496E+02  0.67528127577E+02  0.17770000000E+01 0.  1.
         15    1    1    2    0    0  0.11430483187E+02 -0.38273298663E+01  0.93467776208E+01  0.15356574510E+02  0.17770000000E+01 0. -1.
</event>
<event>
 6    1  0.1860328E-003  0.5065610E+03  0.7546771E-02  0.9385247E-01
        -11   -1    0    0    0    0  0.00000000000E+00  0.00000000000E+00  0.50000000000E+03  0.50000000000E+03  0.00000000000E+00 0.  1.
         11   -1    0    0    0    0 -0.00000000000E+00 -0.00000000000E+00 -0.50000000000E+03  0.50000000000E+03  0.00000000000E+00 0. -1.
        -11    1    1    2    0    0 -0.12028918957E+02  0.17793219748E+02  0.41904210545E+03  0.41959215876E+03  0.00000000000E+00 0.  1.
         11    1    1    2    0    0  0.13223480559E+02  0.16621465427E+02 -0.49298164117E+03  0.49343898517E+03  0.00000000000E+00 0. -1.
        -15    1    1    2    0    0  0.89520804804E+01  0.73655495125E+00  0.14470821285E+02  0.17124387749E+02  0.17770000000E+01 0.  1.
         15    1    1    2    0    0 -0.10146642083E+02 -0.35151240127E+02  0.59468714443E+02  0.69844468317E+02  0.17770000000E+01 0. -1.
</event>
<event>
 6    1  0.1860328E-003  0.3832245E+03  0.7546771E-02  0.9707308E-01
        -11   -1    0    0    0    0  0.00000000000E+00  0.00000000000E+00  0.50000000000E+03  0.50000000000E+03  0.00000000000E+00 0. -1.
         11   -1    0    0    0    0 -0.00000000000E+00 -0.00000000000E+00 -0.50000000000E+03  0.50000000000E+03  0.00000000000E+00 0.  1.
        -11    1    1    2    0    0 -0.30862069512E+01 -0.33121370973E+02  0.12234210261E+03  0.12678383161E+03  0.00000000000E+00 0. -1.
         11    1    1    2    0    0  0.13925479439E+02 -0.15332456784E+02 -0.39472819893E+03  0.39527124136E+03  0.00000000000E+00 0.  1.
        -15    1    1    2    0    0  0.44198184929E+02 -0.15176615911E+02 -0.92409925049E+02  0.10356911315E+03  0.17770000000E+01 0.  1.
         15    1    1    2    0    0 -0.55037457417E+02  0.63630443668E+02  0.36479602138E+03  0.37437581388E+03  0.17770000000E+01 0. -1.
</event>
<event>
 6    1  0.1860328E-003  0.5032584E+03  0.7546771E-02  0.9392548E-01
        -11   -1    0    0    0    0  0.00000000000E+00  0.00000000000E+00  0.50000000000E+03  0.50000000000E+03  0.00000000000E+00 0.  1.
         11   -1    0    0    0    0 -0.00000000000E+00 -0.00000000000E+00 -0.50000000000E+03  0.50000000000E+03  0.00000000000E+00 0. -1.
        -11    1    1    2    0    0  0.87277430223E+01  0.14554312540E+02  0.49645163194E+03  0.49674160724E+03  0.00000000000E+00 0.  1.
         11    1    1    2    0    0 -0.78489603186E+01 -0.55316178276E+01 -0.43551954615E+03  0.43562538959E+03  0.00000000000E+00 0. -1.
        -15    1    1    2    0    0  0.79033048654E+01  0.47429569509E+01 -0.84125167812E+01  0.12605000437E+02  0.17770000000E+01 0.  1.
         15    1    1    2    0    0 -0.87820875692E+01 -0.13765651663E+02 -0.52519569004E+02  0.55028002737E+02  0.17770000000E+01 0. -1.
</event>
<event>
 6    1  0.1860328E-003  0.5197570E+03  0.7546771E-02  0.9356656E-01
        -11   -1    0    0    0    0  0.00000000000E+00  0.00000000000E+00  0.50000000000E+03  0.50000000000E+03  0.00000000000E+00 0.  1.
         11   -1    0    0    0    0 -0.00000000000E+00 -0.00000000000E+00 -0.50000000000E+03  0.50000000000E+03  0.00000000000E+00 0.  1.
        -11    1    1    2    0    0  0.27058472468E+02 -0.22992243911E+02  0.43950191148E+03  0.44093393429E+03  0.00000000000E+00 0.  1.
         11    1    1    2    0    0 -0.16400106012E+02 -0.29768942058E+02 -0.47903880311E+03  0.48024298878E+03  0.00000000000E+00 0.  1.
        -15    1    1    2    0    0  0.51985108364E+01  0.49790141713E+02  0.37267457874E+02  0.62434796965E+02  0.17770000000E+01 0.  1.
         15    1    1    2    0    0 -0.15856877293E+02  0.29710442562E+01  0.22694337568E+01  0.16388279960E+02  0.17770000000E+01 0. -1.
</event>
<event>
 6    1  0.1860328E-003  0.5014237E+03  0.7546771E-02  0.9396630E-01
        -11   -1    0    0    0    0  0.00000000000E+00  0.00000000000E+00  0.50000000000E+03  0.50000000000E+03  0.00000000000E+00 0. -1.
         11   -1    0    0    0    0 -0.00000000000E+00 -0.00000000000E+00 -0.50000000000E+03  0.50000000000E+03  0.00000000000E+00 0. -1.
        -11    1    1    2    0    0  0.30816718734E+01  0.21966734211E+01  0.25702915440E+03  0.25705701369E+03  0.00000000000E+00 0. -1.
         11    1    1    2    0    0  0.21506552013E+02 -0.56733020960E+01 -0.49807987303E+03  0.49857625099E+03  0.00000000000E+00 0. -1.
        -15    1    1    2    0    0 -0.19290131197E+02  0.37932439454E+01  0.58700577999E+02  0.61930714897E+02  0.17770000000E+01 0.  1.
         15    1    1    2    0    0 -0.52980926896E+01 -0.31661527049E+00  0.18235014063E+03  0.18243602042E+03  0.17770000000E+01 0. -1.
</event>
<event>
 6    1  0.1860328E-003  0.5003344E+03  0.7546771E-02  0.9399062E-01
        -11   -1    0    0    0    0  0.00000000000E+00  0.00000000000E+00  0.50000000000E+03  0.50000000000E+03  0.00000000000E+00 0.  1.
         11   -1    0    0    0    0 -0.00000000000E+00 -0.00000000000E+00 -0.50000000000E+03  0.50000000000E+03  0.00000000000E+00 0. -1.
        -11    1    1    2    0    0 -0.45732941842E+01  0.55374478544E+01  0.49961396516E+03  0.49966558070E+03  0.00000000000E+00 0.  1.
         11    1    1    2    0    0  0.85673739682E+01  0.48968723953E+00 -0.42446184656E+03  0.42454858247E+03  0.00000000000E+00 0. -1.
        -15    1    1    2    0    0  0.58539394893E+00 -0.40803327139E+01 -0.36001746915E+02  0.36280508694E+02  0.17770000000E+01 0.  1.
         15    1    1    2    0    0 -0.45794737330E+01 -0.19468023800E+01 -0.39150371683E+02  0.39505328136E+02  0.17770000000E+01 0. -1.
</event>
<event>
 6    1  0.1860328E-003  0.5247936E+03  0.7546771E-02  0.9345979E-01
        -11   -1    0    0    0    0  0.00000000000E+00  0.00000000000E+00  0.50000000000E+03  0.50000000000E+03  0.00000000000E+00 0. -1.
         11   -1    0    0    0    0 -0.00000000000E+00 -0.00000000000E+00 -0.50000000000E+03  0.50000000000E+03  0.00000000000E+00 0.  1.
        -11    1    1    2    0    0 -0.61238688042E+01 -0.11595538940E+02  0.41110778233E+03  0.41131686932E+03  0.00000000000E+00 0. -1.
         11    1    1    2    0    0 -0.23092900433E+02 -0.30090347042E+02 -0.47369017359E+03  0.47520636737E+03  0.00000000000E+00 0.  1.
        -15    1    1    2    0    0  0.21365362531E+02  0.26144653048E+02 -0.12752139983E+02  0.36135804989E+02  0.17770000000E+01 0.  1.
         15    1    1    2    0    0  0.78514067061E+01  0.15541232934E+02  0.75334531236E+02  0.77340958321E+02  0.17770000000E+01 0. -1.
</event>
<event>
 6    1  0.1860328E-003  0.5106593E+03  0.7546771E-02  0.9376270E-01
        -11   -1    0    0    0    0  0.00000000000E+00  0.00000000000E+00  0.50000000000E+03  0.50000000000E+03  0.00000000000E+00 0.  1.
         11   -1    0    0    0    0 -0.00000000000E+00 -0.00000000000E+00 -0.50000000000E+03  0.50000000000E+03  0.00000000000E+00 0.  1.
        -11    1    1    2    0    0  0.64160623259E+01  0.64543080938E+01  0.48925610554E+03  0.48934074095E+03  0.00000000000E+00 0.  1.
         11    1    1    2    0    0 -0.18845649370E+02 -0.13501538817E+02 -0.44293187038E+03  0.44353815152E+03  0.00000000000E+00 0.  1.
        -15    1    1    2    0    0  0.48549210869E+01  0.26824360879E+02 -0.25737204498E+02  0.37532359634E+02  0.17770000000E+01 0.  1.
         15    1    1    2    0    0  0.75746659569E+01 -0.19777130156E+02 -0.20587030662E+02  0.29588747895E+02  0.17770000000E+01 0. -1.
</event>
<event>
 6    1  0.1860328E-003  0.5006196E+03  0.7546771E-02  0.9398424E-01
        -11   -1    0    0    0    0  0.00000000000E+00  0.00000000000E+00  0.50000000000E+03  0.50000000000E+03  0.00000000000E+00 0. -1.
         11   -1    0    0    0    0 -0.00000000000E+00 -0.00000000000E+00 -0.50000000000E+03  0.50000000000E+03  0.00000000000E+00 0.  1.
        -11    1    1    2    0    0 -0.50867933358E+00 -0.10773953754E+01  0.44437036536E+02  0.44453006103E+02  0.00000000000E+00 0. -1.
         11    1    1    2    0    0  0.11536545164E+02 -0.52457997756E+01 -0.49921958499E+03  0.49938042044E+03  0.00000000000E+00 0.  1.
        -15    1    1    2    0    0 -0.43084605624E+01  0.13514149045E+02  0.41131626319E+03  0.41156460143E+03  0.17770000000E+01 0. -1.
         15    1    1    2    0    0 -0.67194052676E+01 -0.71909538943E+01  0.43466285261E+02  0.44601972024E+02  0.17770000000E+01 0.  1.
</event>
<event>
 6    1  0.1860328E-003  0.5156440E+03  0.7546771E-02  0.9365470E-01
        -11   -1    0    0    0    0  0.00000000000E+00  0.00000000000E+00  0.50000000000E+03  0.50000000000E+03  0.00000000000E+00 0. -1.
         11   -1    0    0    0    0 -0.00000000000E+00 -0.00000000000E+00 -0.50000000000E+03  0.50000000000E+03  0.00000000000E+00 0.  1.
        -11    1    1    2    0    0  0.20215590498E+02 -0.75735796050E+01  0.46255048458E+03  0.46305397093E+03  0.00000000000E+00 0. -1.
         11    1    1    2    0    0  0.11835647693E+02 -0.14066435750E+01 -0.48420927959E+03  0.48435595139E+03  0.00000000000E+00 0.  1.
        -15    1    1    2    0    0 -0.24624777502E+02  0.96108521251E+01  0.30823274687E+02  0.40644558517E+02  0.17770000000E+01 0.  1.
         15    1    1    2    0    0 -0.74264606888E+01 -0.63062894508E+00 -0.91644796770E+01  0.11945519159E+02  0.17770000000E+01 0. -1.
</event>
<event>
 6    1  0.1860328E-003  0.4451890E+03  0.7546771E-02  0.9531565E-01
        -11   -1    0    0    0    0  0.00000000000E+00  0.00000000000E+00  0.50000000000E+03  0.50000000000E+03  0.00000000000E+00 0.  1.
         11   -1    0    0    0    0 -0.00000000000E+00 -0.00000000000E+00 -0.50000000000E+03  0.50000000000E+03  0.00000000000E+00 0.  1.
        -11    1    1    2    0    0 -0.20882269008E+01 -0.17239731753E+02  0.46861314588E+03  0.46893480307E+03  0.00000000000E+00 0.  1.
         11    1    1    2    0    0 -0.36000824057E+02 -0.52258637485E+02 -0.42145561696E+03  0.42620636034E+03  0.00000000000E+00 0.  1.
        -15    1    1    2    0    0  0.32116865177E+02  0.65132952912E+02 -0.18157628247E+02  0.74877578596E+02  0.17770000000E+01 0. -1.
         15    1    1    2    0    0  0.59721857813E+01  0.43654163254E+01 -0.28999900671E+02  0.29981257990E+02  0.17770000000E+01 0.  1.
</event>
<event>
 6    1  0.1860328E-003  0.5002709E+03  0.7546771E-02  0.9399204E-01
        -11   -1    0    0    0    0  0.00000000000E+00  0.00000000000E+00  0.50000000000E+03  0.50000000000E+03  0.00000000000E+00 0. -1.
         11   -1    0    0    0    0 -0.00000000000E+00 -0.00000000000E+00 -0.50000000000E+03  0.50000000000E+03  0.00000000000E+00 0.  1.
        -11    1    1    2    0    0  0.24267358870E+01 -0.76921313271E+01  0.49966404011E+03  0.49972913754E+03  0.00000000000E+00 0. -1.
         11    1    1    2    0    0 -0.79619638162E+01  0.18118805821E+01 -0.16073040333E+03  0.16093768463E+03  0.00000000000E+00 0.  1.
        -15    1    1    2    0    0  0.65119888939E+00  0.97519400915E+01 -0.21746524989E+03  0.21769202336E+03  0.17770000000E+01 0. -1.
         15    1    1    2    0    0  0.48840290398E+01 -0.38716893466E+01 -0.12146838689E+03  0.12164115447E+03  0.17770000000E+01 0.  1.
</event>
<event>
 6    1  0.1860328E-003  0.5042937E+03  0.7546771E-02  0.9390253E-01
        -11   -1    0    0    0    0  0.00000000000E+00  0.00000000000E+00  0.50000000000E+03  0.50000000000E+03  0.00000000000E+00 0.  1.
         11   -1    0    0    0    0 -0.00000000000E+00 -0.00000000000E+00 -0.50000000000E+03  0.50000000000E+03  0.00000000000E+00 0. -1.
        -11    1    1    2    0    0 -0.46479017001E+01 -0.64004273988E+01  0.44772079115E+03  0.44779066012E+03  0.00000000000E+00 0.  1.
         11    1    1    2    0    0  0.42751960994E+01 -0.61245514271E+01 -0.49564998756E+03  0.49570626141E+03  0.00000000000E+00 0. -1.
        -15    1    1    2    0    0 -0.43824851967E+01  0.10149778092E+02  0.35142543448E+01  0.11735922819E+02  0.17770000000E+01 0. -1.
         15    1    1    2    0    0  0.47551907974E+01  0.23752007341E+01  0.44414942061E+02  0.44767155654E+02  0.17770000000E+01 0.  1.
</event>
<event>
 6    1  0.1860328E-003  0.5103093E+03  0.7546771E-02  0.9377033E-01
        -11   -1    0    0    0    0  0.00000000000E+00  0.00000000000E+00  0.50000000000E+03  0.50000000000E+03  0.00000000000E+00 0.  1.
         11   -1    0    0    0    0 -0.00000000000E+00 -0.00000000000E+00 -0.50000000000E+03  0.50000000000E+03  0.00000000000E+00 0.  1.
        -11    1    1    2    0    0 -0.63869318314E+01 -0.92307466848E+01  0.48956207649E+03  0.48969074559E+03  0.00000000000E+00 0.  1.
         11    1    1    2    0    0 -0.10630845987E+02 -0.12005289018E+02 -0.43043408341E+03  0.43073268045E+03  0.00000000000E+00 0.  1.
        -15    1    1    2    0    0  0.10145920949E+02  0.13541252528E+02  0.23842782110E+01  0.17179864479E+02  0.17770000000E+01 0. -1.
         15    1    1    2    0    0  0.68718568701E+01  0.76947831750E+01 -0.61512271294E+02  0.62396709478E+02  0.17770000000E+01 0.  1.
</event>
<event>
 6    1  0.1860328E-003  0.5084965E+03  0.7546771E-02  0.9380996E-01
        -11   -1    0    0    0    0  0.00000000000E+00  0.00000000000E+00  0.50000000000E+03  0.50000000000E+03  0.00000000000E+00 0. -1.
         11   -1    0    0    0    0 -0.00000000000E+00 -0.00000000000E+00 -0.50000000000E+03  0.50000000000E+03  0.00000000000E+00 0.  1.
        -11    1    1    2    0    0 -0.54267915945E+01 -0.51885345536E+01  0.49144615814E+03  0.49150350691E+03  0.00000000000E+00 0. -1.
         11    1    1    2    0    0 -0.84543613585E+01  0.29471459013E+02 -0.37876997171E+03  0.38000886120E+03  0.00000000000E+00 0.  1.
        -15    1    1    2    0    0  0.33527180690E+02 -0.10874422868E+02 -0.48182634099E+02  0.59724776060E+02  0.17770000000E+01 0. -1.
         15    1    1    2    0    0 -0.19646027737E+02 -0.13408501592E+02 -0.64493552328E+02  0.68762855828E+02  0.17770000000E+01 0.  1.
</event>
<event>
 6    1  0.1860328E-003  0.5012571E+03  0.7546771E-02  0.9397001E-01
        -11   -1    0    0    0    0  0.00000000000E+00  0.00000000000E+00  0.50000000000E+03  0.50000000000E+03  0.00000000000E+00 0. -1.
         11   -1    0    0    0    0 -0.00000000000E+00 -0.00000000000E+00 -0.50000000000E+03  0.50000000000E+03  0.00000000000E+00 0. -1.
        -11    1    1    2    0    0 -0.59133788191E+01  0.93544969686E+01  0.41101657048E+03  0.41116553342E+03  0.00000000000E+00 0. -1.
         11    1    1    2    0    0 -0.68894592650E+01 -0.42220972109E+00 -0.49869515398E+03  0.49874291926E+03  0.00000000000E+00 0. -1.
        -15    1    1    2    0    0  0.10948453185E+02 -0.78893552155E+01  0.85470600083E+02  0.86547627122E+02  0.17770000000E+01 0.  1.
         15    1    1    2    0    0  0.18543848990E+01 -0.10429320320E+01  0.22079834230E+01  0.35439201985E+01  0.17770000000E+01 0. -1.
</event>
<event>
 6    1  0.1860328E-003  0.5079762E+03  0.7546771E-02  0.9382137E-01
        -11   -1    0    0    0    0  0.00000000000E+00  0.00000000000E+00  0.50000000000E+03  0.50000000000E+03  0.00000000000E+00 0.  1.
         11   -1    0    0    0    0 -0.00000000000E+00 -0.00000000000E+00 -0.50000000000E+03  0.50000000000E+03  0.00000000000E+00 0.  1.
        -11    1    1    2    0    0  0.92851653096E+01 -0.59903289645E+01  0.47921633419E+03  0.47934371102E+03  0.00000000000E+00 0.  1.
         11    1    1    2    0    0  0.67178681717E+01 -0.65537958277E+01 -0.49193433172E+03  0.49202384975E+03  0.00000000000E+00 0.  1.
        -15    1    1    2    0    0 -0.11785784304E+02  0.10712899421E+02  0.11606337401E+01  0.16067847564E+02  0.17770000000E+01 0.  1.
         15    1    1    2    0    0 -0.42172491776E+01  0.18312253711E+01  0.11557363790E+02  0.12564591667E+02  0.17770000000E+01 0. -1.
</event>
<event>
 6    1  0.1860328E-003  0.5017247E+03  0.7546771E-02  0.9395959E-01
        -11   -1    0    0    0    0  0.00000000000E+00  0.00000000000E+00  0.50000000000E+03  0.50000000000E+03  0.00000000000E+00 0. -1.
         11   -1    0    0    0    0 -0.00000000000E+00 -0.00000000000E+00 -0.50000000000E+03  0.50000000000E+03  0.00000000000E+00 0.  1.
        -11    1    1    2    0    0 -0.77069994251E+01  0.67814851665E+00  0.49821523199E+03  0.49827530052E+03  0.00000000000E+00 0. -1.
         11    1    1    2    0    0 -0.10772083262E+00  0.62760675782E+01 -0.46571838636E+03  0.46576068535E+03  0.00000000000E+00 0.  1.
        -15    1    1    2    0    0  0.32893917948E+01  0.63318661842E+00 -0.22631823285E+01  0.44159650050E+01  0.17770000000E+01 0. -1.
         15    1    1    2    0    0  0.45253284628E+01 -0.75874027133E+01 -0.30233663300E+02  0.31548049118E+02  0.17770000000E+01 0.  1.
</event>
<event>
 6    1  0.1860328E-003  0.5010032E+03  0.7546771E-02  0.9397568E-01
        -11   -1    0    0    0    0  0.00000000000E+00  0.00000000000E+00  0.50000000000E+03  0.50000000000E+03  0.00000000000E+00 0.  1.
         11   -1    0    0    0    0 -0.00000000000E+00 -0.00000000000E+00 -0.50000000000E+03  0.50000000000E+03  0.00000000000E+00 0. -1.
        -11    1    1    2    0    0  0.21156372284E+01  0.12615229758E+01  0.10481095634E+03  0.10483989666E+03  0.00000000000E+00 0.  1.
         11    1    1    2    0    0  0.41206980116E+02  0.66353013839E+01 -0.49724824032E+03  0.49899684862E+03  0.00000000000E+00 0. -1.
        -15    1    1    2    0    0 -0.37531558620E+02 -0.85545930085E+01  0.20283311847E+03  0.20646120854E+03  0.17770000000E+01 0. -1.
         15    1    1    2    0    0 -0.57910587249E+01  0.65776864882E+00  0.18960416551E+03  0.18970204619E+03  0.17770000000E+01 0.  1.
</event>
<event>
 6    1  0.1860328E-003  0.5020937E+03  0.7546771E-02  0.9395137E-01
        -11   -1    0    0    0    0  0.00000000000E+00  0.00000000000E+00  0.50000000000E+03  0.50000000000E+03  0.00000000000E+00 0. -1.
         11   -1    0    0    0    0 -0.00000000000E+00 -0.00000000000E+00 -0.50000000000E+03  0.50000000000E+03  0.00000000000E+00 0. -1.
        -11    1    1    2    0    0 -0.29013937362E+01  0.70357803561E+01  0.49784811171E+03  0.49790627896E+03  0.00000000000E+00 0. -1.
         11    1    1    2    0    0  0.51932711450E+01 -0.77832930830E+01 -0.45388372136E+03  0.45398015621E+03  0.00000000000E+00 0. -1.
        -15    1    1    2    0    0 -0.94457723705E+00 -0.87180869795E+01 -0.14039557381E+02  0.16648248172E+02  0.17770000000E+01 0.  1.
         15    1    1    2    0    0 -0.13473001717E+01  0.94655997064E+01 -0.29924832968E+02  0.31465316663E+02  0.17770000000E+01 0. -1.
</event>
<event>
 6    1  0.1860328E-003  0.5034602E+03  0.7546771E-02  0.9392100E-01
        -11   -1    0    0    0    0  0.00000000000E+00  0.00000000000E+00  0.50000000000E+03  0.50000000000E+03  0.00000000000E+00 0. -1.
         11   -1    0    0    0    0 -0.00000000000E+00 -0.00000000000E+00 -0.50000000000E+03  0.50000000000E+03  0.00000000000E+00 0.  1.
        -11    1    1    2    0    0  0.41838306278E+01 -0.11176138314E+02  0.49639637471E+03  0.49653979833E+03  0.00000000000E+00 0. -1.
         11    1    1    2    0    0  0.11772343976E+01 -0.75883367428E+01 -0.42048905103E+03  0.42055916442E+03  0.00000000000E+00 0.  1.
        -15    1    1    2    0    0  0.35723023263E+00  0.23487822792E+02 -0.42087692687E+02  0.48232116247E+02  0.17770000000E+01 0.  1.
         15    1    1    2    0    0 -0.57182952580E+01 -0.47233477351E+01 -0.33819630986E+02  0.34668921003E+02  0.17770000000E+01 0. -1.
</event>
<event>
 6    1  0.1860328E-003  0.5012658E+03  0.7546771E-02  0.9396982E-01
        -11   -1    0    0    0    0  0.00000000000E+00  0.00000000000E+00  0.50000000000E+03  0.50000000000E+03  0.00000000000E+00 0.  1.
         11   -1    0    0    0    0 -0.00000000000E+00 -0.00000000000E+00 -0.50000000000E+03  0.50000000000E+03  0.00000000000E+00 0.  1.
        -11    1    1    2    0    0 -0.72554903622E+01 -0.20692720191E+01  0.49867709410E+03  0.49873416587E+03  0.00000000000E+00 0.  1.
         11    1    1    2    0    0  0.67814721257E+01 -0.22279358819E+01 -0.38250286918E+03  0.38256946688E+03  0.00000000000E+00 0.  1.
        -15    1    1    2    0    0  0.69639123231E+01  0.89113071826E+01 -0.29572466670E+02  0.31711133447E+02  0.17770000000E+01 0. -1.
         15    1    1    2    0    0 -0.64898940866E+01 -0.46140992817E+01 -0.86601758254E+02  0.86985233799E+02  0.17770000000E+01 0.  1.
</event>
<event>
 6    1  0.1860328E-003  0.5031945E+03  0.7546771E-02  0.9392690E-01
        -11   -1    0    0    0    0  0.00000000000E+00  0.00000000000E+00  0.50000000000E+03  0.50000000000E+03  0.00000000000E+00 0. -1.
         11   -1    0    0    0    0 -0.00000000000E+00 -0.00000000000E+00 -0.50000000000E+03  0.50000000000E+03  0.00000000000E+00 0.  1.
        -11    1    1    2    0    0 -0.68491403252E+01  0.43001875550E+01  0.49673964275E+03  0.49680546999E+03  0.00000000000E+00 0. -1.
         11    1    1    2    0    0 -0.92020198848E+01 -0.11242906962E+01 -0.24600721845E+03  0.24618182859E+03  0.00000000000E+00 0.  1.
        -15    1    1    2    0    0  0.92031827774E+01 -0.84682756577E+00 -0.24923842447E+03  0.24941604931E+03  0.17770000000E+01 0.  1.
         15    1    1    2    0    0  0.68479774325E+01 -0.23290692930E+01 -0.14939998262E+01  0.75966521027E+01  0.17770000000E+01 0. -1.
</event>
<event>
 6    1  0.1860328E-003  0.5232258E+03  0.7546771E-02  0.9349289E-01
        -11   -1    0    0    0    0  0.00000000000E+00  0.00000000000E+00  0.50000000000E+03  0.50000000000E+03  0.00000000000E+00 0.  1.
         11   -1    0    0    0    0 -0.00000000000E+00 -0.00000000000E+00 -0.50000000000E+03  0.50000000000E+03  0.00000000000E+00 0.  1.
        -11    1    1    2    0    0  0.19495369614E+01 -0.10020964637E+02  0.47666486323E+03  0.47677417324E+03  0.00000000000E+00 0.  1.
         11    1    1    2    0    0  0.21715585897E+01 -0.13866494187E+01 -0.16785876682E+03  0.16787853961E+03  0.00000000000E+00 0.  1.
        -15    1    1    2    0    0  0.35471330237E+02  0.24167647714E+02 -0.31071226917E+03  0.31366791740E+03  0.17770000000E+01 0.  1.
         15    1    1    2    0    0 -0.39592425788E+02 -0.12760033659E+02  0.19061727602E+01  0.41679369745E+02  0.17770000000E+01 0. -1.
</event>
<event>
 6    1  0.1860328E-003  0.5020024E+03  0.7546771E-02  0.9395340E-01
        -11   -1    0    0    0    0  0.00000000000E+00  0.00000000000E+00  0.50000000000E+03  0.50000000000E+03  0.00000000000E+00 0.  1.
         11   -1    0    0    0    0 -0.00000000000E+00 -0.00000000000E+00 -0.50000000000E+03  0.50000000000E+03  0.00000000000E+00 0. -1.
        -11    1    1    2    0    0 -0.77364457182E+00 -0.12277664086E+02  0.49784561882E+03  0.49799759009E+03  0.00000000000E+00 0.  1.
         11    1    1    2    0    0 -0.63207381606E+01 -0.44187340916E+01 -0.43892179126E+03  0.43898953950E+03  0.00000000000E+00 0. -1.
        -15    1    1    2    0    0 -0.11748040412E+01  0.10973729333E+02 -0.21652366532E+02  0.24367716459E+02  0.17770000000E+01 0.  1.
         15    1    1    2    0    0  0.82691867736E+01  0.57226688448E+01 -0.37271461020E+02  0.38645153955E+02  0.17770000000E+01 0. -1.
</event>
<event>
 6    1  0.1860328E-003  0.5006476E+03  0.7546771E-02  0.9398362E-01
        -11   -1    0    0    0    0  0.00000000000E+00  0.00000000000E+00  0.50000000000E+03  0.50000000000E+03  0.00000000000E+00 0.  1.
         11   -1    0    0    0    0 -0.00000000000E+00 -0.00000000000E+00 -0.50000000000E+03  0.50000000000E+03  0.00000000000E+00 0.  1.
        -11    1    1    2    0    0 -0.12338498770E+02 -0.75093411282E+01  0.49914345029E+03  0.49935239333E+03  0.00000000000E+00 0.  1.
         11    1    1    2    0    0 -0.12415365692E+01 -0.70699454023E+01 -0.34270819916E+03  0.34278336499E+03  0.00000000000E+00 0.  1.
        -15    1    1    2    0    0  0.63023849450E+01  0.11054681616E+02 -0.88996262125E+02  0.89918954858E+02  0.17770000000E+01 0.  1.
         15    1    1    2    0    0  0.72776503939E+01  0.35246049145E+01 -0.67438989000E+02  0.67945286822E+02  0.17770000000E+01 0. -1.
</event>
<event>
 6    1  0.1860328E-003  0.5043877E+03  0.7546771E-02  0.9390045E-01
        -11   -1    0    0    0    0  0.00000000000E+00  0.00000000000E+00  0.50000000000E+03  0.50000000000E+03  0.00000000000E+00 0.  1.
         11   -1    0    0    0    0 -0.00000000000E+00 -0.00000000000E+00 -0.50000000000E+03  0.50000000000E+03  0.00000000000E+00 0.  1.
        -11    1    1    2    0    0  0.50759739684E+01 -0.10876447507E+02  0.49546698963E+03  0.49561234895E+03  0.00000000000E+00 0.  1.
         11    1    1    2    0    0 -0.40480238365E+01 -0.10247128054E+02 -0.46664859733E+03  0.46677864510E+03  0.00000000000E+00 0.  1.
        -15    1    1    2    0    0 -0.46869083768E+01  0.16285948820E+02 -0.16275923652E+02  0.23564011943E+02  0.17770000000E+01 0.  1.
         15    1    1    2    0    0  0.36589582449E+01  0.48376267403E+01 -0.12542468646E+02  0.14044994007E+02  0.17770000000E+01 0. -1.
</event>
<event>
 6    1  0.1860328E-003  0.1000000E+04  0.7546771E-02  0.8684367E-01
        -11   -1    0    0    0    0  0.00000000000E+00  0.00000000000E+00  0.50000000000E+03  0.50000000000E+03  0.00000000000E+00 0. -1.
         11   -1    0    0    0    0 -0.00000000000E+00 -0.00000000000E+00 -0.50000000000E+03  0.50000000000E+03  0.00000000000E+00 0. -1.
        -11    1    1    2    0    0  0.14328088342E+02  0.98020954416E+02 -0.70399089428E+02  0.12152955777E+03  0.00000000000E+00 0. -1.
         11    1    1    2    0    0  0.95012714700E+01 -0.16624363106E+01 -0.26008992241E+03  0.26026871805E+03  0.00000000000E+00 0. -1.
        -15    1    1    2    0    0 -0.20277904225E+02 -0.85929882790E+02  0.47001062986E+03  0.47823455340E+03  0.17770000000E+01 0. -1.
         15    1    1    2    0    0 -0.35514555874E+01 -0.10428635315E+02 -0.13952161802E+03  0.13996717078E+03  0.17770000000E+01 0.  1.
</event>
<event>
 6    1  0.1860328E-003  0.5030712E+03  0.7546771E-02  0.9392964E-01
        -11   -1    0    0    0    0  0.00000000000E+00  0.00000000000E+00  0.50000000000E+03  0.50000000000E+03  0.00000000000E+00 0. -1.
         11   -1    0    0    0    0 -0.00000000000E+00 -0.00000000000E+00 -0.50000000000E+03  0.50000000000E+03  0.00000000000E+00 0.  1.
        -11    1    1    2    0    0 -0.71907407036E+01 -0.72391616724E+01  0.40307565512E+03  0.40320478168E+03  0.00000000000E+00 0. -1.
         11    1    1    2    0    0 -0.15565934637E+02  0.15081942883E+02 -0.49645587089E+03  0.49692876257E+03  0.00000000000E+00 0.  1.
        -15    1    1    2    0    0  0.14157196495E+02 -0.77448844175E-01  0.82973353557E+02  0.84191254536E+02  0.17770000000E+01 0. -1.
         15    1    1    2    0    0  0.85994788459E+01 -0.77653323665E+01  0.10406862212E+02  0.15675201220E+02  0.17770000000E+01 0.  1.
</event>
<event>
 6    1  0.1860328E-003  0.5159666E+03  0.7546771E-02  0.9364775E-01
        -11   -1    0    0    0    0  0.00000000000E+00  0.00000000000E+00  0.50000000000E+03  0.50000000000E+03  0.00000000000E+00 0. -1.
         11   -1    0    0    0    0 -0.00000000000E+00 -0.00000000000E+00 -0.50000000000E+03  0.50000000000E+03  0.00000000000E+00 0. -1.
        -11    1    1    2    0    0  0.51671413005E-01  0.11634978264E+02  0.48389349017E+03  0.48403335134E+03  0.00000000000E+00 0. -1.
         11    1    1    2    0    0 -0.75761151599E+01 -0.80937161844E+01 -0.47859223889E+03  0.47872062509E+03  0.00000000000E+00 0. -1.
        -15    1    1    2    0    0  0.49395795215E+01  0.79363840732E+01 -0.17678768388E+02  0.20076907599E+02  0.17770000000E+01 0. -1.
         15    1    1    2    0    0  0.25848642254E+01 -0.11477646153E+02  0.12377517111E+02  0.17169115967E+02  0.17770000000E+01 0.  1.
</event>
<event>
 6    1  0.1860328E-003  0.5050781E+03  0.7546771E-02  0.9388518E-01
        -11   -1    0    0    0    0  0.00000000000E+00  0.00000000000E+00  0.50000000000E+03  0.50000000000E+03  0.00000000000E+00 0.  1.
         11   -1    0    0    0    0 -0.00000000000E+00 -0.00000000000E+00 -0.50000000000E+03  0.50000000000E+03  0.00000000000E+00 0.  1.
        -11    1    1    2    0    0  0.70301873878E+01 -0.22625490344E+02  0.49435452666E+03  0.49492194776E+03  0.00000000000E+00 0.  1.
         11    1    1    2    0    0 -0.58438016143E+01  0.38435190221E+01 -0.34107664200E+03  0.34114835245E+03  0.00000000000E+00 0.  1.
        -15    1    1    2    0    0 -0.27860996345E+02  0.12412597789E+02 -0.76050969482E+02  0.81958619982E+02  0.17770000000E+01 0.  1.
         15    1    1    2    0    0  0.26674610572E+02  0.63693735322E+01 -0.77226915175E+02  0.81971079807E+02  0.17770000000E+01 0. -1.
</event>
<event>
 6    1  0.1860328E-003  0.5002635E+03  0.7546771E-02  0.9399220E-01
        -11   -1    0    0    0    0  0.00000000000E+00  0.00000000000E+00  0.50000000000E+03  0.50000000000E+03  0.00000000000E+00 0.  1.
         11   -1    0    0    0    0 -0.00000000000E+00 -0.00000000000E+00 -0.50000000000E+03  0.50000000000E+03  0.00000000000E+00 0.  1.
        -11    1    1    2    0    0  0.91644367277E+01  0.32847687715E+01  0.49964170051E+03  0.49973653608E+03  0.00000000000E+00 0.  1.
         11    1    1    2    0    0 -0.34656717788E+01  0.30239655325E+01 -0.15359762205E+03  0.15366647242E+03  0.00000000000E+00 0.  1.
        -15    1    1    2    0    0 -0.75225557564E+01  0.38489181729E+01 -0.19446442452E+03  0.19465603805E+03  0.17770000000E+01 0.  1.
         15    1    1    2    0    0  0.18237908074E+01 -0.10157652477E+02 -0.15157965394E+03  0.15194095345E+03  0.17770000000E+01 0. -1.
</event>
<event>
 6    1  0.1860328E-003  0.4866425E+03  0.7546771E-02  0.9430204E-01
        -11   -1    0    0    0    0  0.00000000000E+00  0.00000000000E+00  0.50000000000E+03  0.50000000000E+03  0.00000000000E+00 0.  1.
         11   -1    0    0    0    0 -0.00000000000E+00 -0.00000000000E+00 -0.50000000000E+03  0.50000000000E+03  0.00000000000E+00 0.  1.
        -11    1    1    2    0    0 -0.24194434590E+01 -0.66326775495E+01  0.48553784699E+03  0.48558917510E+03  0.00000000000E+00 0.  1.
         11    1    1    2    0    0 -0.44769254042E+01 -0.73635797681E+01 -0.48774718258E+03  0.48782330745E+03  0.00000000000E+00 0.  1.
        -15    1    1    2    0    0  0.71872309707E+01  0.13059226247E+02  0.10326300623E+02  0.18220589802E+02  0.17770000000E+01 0.  1.
         15    1    1    2    0    0 -0.29086210746E+00  0.93703107094E+00 -0.81169650284E+01  0.83669276479E+01  0.17770000000E+01 0. -1.
</event>
<event>
 6    1  0.1860328E-003  0.5016798E+03  0.7546771E-02  0.9396059E-01
        -11   -1    0    0    0    0  0.00000000000E+00  0.00000000000E+00  0.50000000000E+03  0.50000000000E+03  0.00000000000E+00 0.  1.
         11   -1    0    0    0    0 -0.00000000000E+00 -0.00000000000E+00 -0.50000000000E+03  0.50000000000E+03  0.00000000000E+00 0. -1.
        -11    1    1    2    0    0 -0.64622957972E+01  0.50515139571E+01  0.49825265120E+03  0.49832016163E+03  0.00000000000E+00 0.  1.
         11    1    1    2    0    0 -0.20196104405E+01  0.64062578884E+01 -0.46049920903E+03  0.46054819561E+03  0.00000000000E+00 0. -1.
        -15    1    1    2    0    0  0.81169120487E+01 -0.11844833097E+02 -0.33600453530E+02  0.36583227561E+02  0.17770000000E+01 0. -1.
         15    1    1    2    0    0  0.36499418896E+00  0.38706125183E+00 -0.41529886386E+01  0.45484151969E+01  0.17770000000E+01 0.  1.
</event>
<event>
 6    1  0.1860328E-003  0.5035912E+03  0.7546771E-02  0.9391810E-01
        -11   -1    0    0    0    0  0.00000000000E+00  0.00000000000E+00  0.50000000000E+03  0.50000000000E+03  0.00000000000E+00 0.  1.
         11   -1    0    0    0    0 -0.00000000000E+00 -0.00000000000E+00 -0.50000000000E+03  0.50000000000E+03  0.00000000000E+00 0.  1.
        -11    1    1    2    0    0  0.49196155214E+01  0.15150084088E+02  0.49615318434E+03  0.49640881337E+03  0.00000000000E+00 0.  1.
         11    1    1    2    0    0 -0.16248547502E+01  0.28805116227E+01 -0.20117813719E+03  0.20120531898E+03  0.00000000000E+00 0.  1.
        -15    1    1    2    0    0 -0.10670377627E+02 -0.59730590577E+01 -0.72872937975E+01  0.14345618603E+02  0.17770000000E+01 0.  1.
         15    1    1    2    0    0  0.73756168560E+01 -0.12057536653E+02 -0.28768775335E+03  0.28804024905E+03  0.17770000000E+01 0. -1.
</event>
<event>
 6    1  0.1860328E-003  0.5013985E+03  0.7546771E-02  0.9396686E-01
        -11   -1    0    0    0    0  0.00000000000E+00  0.00000000000E+00  0.50000000000E+03  0.50000000000E+03  0.00000000000E+00 0. -1.
         11   -1    0    0    0    0 -0.00000000000E+00 -0.00000000000E+00 -0.50000000000E+03  0.50000000000E+03  0.00000000000E+00 0.  1.
        -11    1    1    2    0    0  0.27326439276E+01  0.22033899219E+02  0.49810694292E+03  0.49860153093E+03  0.00000000000E+00 0. -1.
         11    1    1    2    0    0 -0.18089038721E+01  0.17506539713E+01 -0.83963173356E+02  0.84000901200E+02  0.00000000000E+00 0.  1.
        -15    1    1    2    0    0  0.14951637623E+02  0.17862083863E+01 -0.25322925324E+03  0.25368278309E+03  0.17770000000E+01 0.  1.
         15    1    1    2    0    0 -0.15875377678E+02 -0.25570761577E+02 -0.16091451632E+03  0.16371478478E+03  0.17770000000E+01 0. -1.
</event>
<event>
 6    1  0.1860328E-003  0.5621037E+03  0.7546771E-02  0.9270656E-01
        -11   -1    0    0    0    0  0.00000000000E+00  0.00000000000E+00  0.50000000000E+03  0.50000000000E+03  0.00000000000E+00 0.  1.
         11   -1    0    0    0    0 -0.00000000000E+00 -0.00000000000E+00 -0.50000000000E+03  0.50000000000E+03  0.00000000000E+00 0. -1.
        -11    1    1    2    0    0 -0.13525474506E+02 -0.10320961600E+02  0.35019651826E+03  0.35060955793E+03  0.00000000000E+00 0.  1.
         11    1    1    2    0    0 -0.94965471365E+01  0.13453010373E+02 -0.43758656712E+03  0.43789630236E+03  0.00000000000E+00 0. -1.
        -15    1    1    2    0    0 -0.29950263005E+02  0.23318330633E+02  0.13198661297E+03  0.13734768483E+03  0.17770000000E+01 0.  1.
         15    1    1    2    0    0  0.52972284648E+02 -0.26450379406E+02 -0.44596564105E+02  0.74146454875E+02  0.17770000000E+01 0. -1.
</event>
<event>
 6    1  0.1860328E-003  0.5156774E+03  0.7546771E-02  0.9365398E-01
        -11   -1    0    0    0    0  0.00000000000E+00  0.00000000000E+00  0.50000000000E+03  0.50000000000E+03  0.00000000000E+00 0.  1.
         11   -1    0    0    0    0 -0.00000000000E+00 -0.00000000000E+00 -0.50000000000E+03  0.50000000000E+03  0.00000000000E+00 0.  1.
        -11    1    1    2    0    0  0.18097156397E+02  0.66850607667E+01  0.48393817892E+03  0.48432257651E+03  0.00000000000E+00 0.  1.
         11    1    1    2    0    0 -0.42528345719E+01 -0.66705927296E+00 -0.29981256012E+03  0.29984346379E+03  0.00000000000E+00 0.  1.
        -15    1    1    2    0    0 -0.18942397064E+01 -0.37516615662E+02 -0.10617484596E+02  0.39076505767E+02  0.17770000000E+01 0. -1.
         15    1    1    2    0    0 -0.11950082118E+02  0.31498614168E+02 -0.17350813420E+03  0.17675745393E+03  0.17770000000E+01 0.  1.
</event>
<event>
 6    1  0.1860328E-003  0.5033131E+03  0.7546771E-02  0.9392427E-01
        -11   -1    0    0    0    0  0.00000000000E+00  0.00000000000E+00  0.50000000000E+03  0.50000000000E+03  0.00000000000E+00 0.  1.
         11   -1    0    0    0    0 -0.00000000000E+00 -0.00000000000E+00 -0.50000000000E+03  0.50000000000E+03  0.00000000000E+00 0.  1.
        -11    1    1    2    0    0  0.72667584063E+01  0.11567923155E+02  0.49649899225E+03  0.49668689526E+03  0.00000000000E+00 0.  1.
         11    1    1    2    0    0  0.17017749775E+01  0.70019728635E+01 -0.36878637892E+03  0.36885677022E+03  0.00000000000E+00 0.  1.
        -15    1    1    2    0    0 -0.62827744948E+01 -0.98655596753E+01 -0.77671574105E+01  0.14152349144E+02  0.17770000000E+01 0. -1.
         15    1    1    2    0    0 -0.26857588891E+01 -0.87043363435E+01 -0.11994545592E+03  0.12030398537E+03  0.17770000000E+01 0.  1.
</event>
<event>
 6    1  0.1860328E-003  0.5340828E+03  0.7546771E-02  0.9326619E-01
        -11   -1    0    0    0    0  0.00000000000E+00  0.00000000000E+00  0.50000000000E+03  0.50000000000E+03  0.00000000000E+00 0.  1.
         11   -1    0    0    0    0 -0.00000000000E+00 -0.00000000000E+00 -0.50000000000E+03  0.50000000000E+03  0.00000000000E+00 0. -1.
        -11    1    1    2    0    0  0.82019277158E+01  0.25926086445E+02  0.46512298239E+03  0.46591718398E+03  0.00000000000E+00 0.  1.
         11    1    1    2    0    0  0.21427738831E+02  0.54693705038E+01 -0.24027861440E+03  0.24129416599E+03  0.00000000000E+00 0. -1.
        -15    1    1    2    0    0 -0.23463153014E+02 -0.18619886612E+02  0.27103871559E+02  0.40435099967E+02  0.17770000000E+01 0.  1.
         15    1    1    2    0    0 -0.61665135319E+01 -0.12775570337E+02 -0.25194823955E+03  0.25235355006E+03  0.17770000000E+01 0. -1.
</event>
<event>
 6    1  0.1860328E-003  0.5122361E+03  0.7546771E-02  0.9372839E-01
        -11   -1    0    0    0    0  0.00000000000E+00  0.00000000000E+00  0.50000000000E+03  0.50000000000E+03  0.00000000000E+00 0. -1.
         11   -1    0    0    0    0 -0.00000000000E+00 -0.00000000000E+00 -0.50000000000E+03  0.50000000000E+03  0.00000000000E+00 0. -1.
        -11    1    1    2    0    0 -0.10156752107E+02  0.74357332999E+01  0.45981792912E+03  0.45999019303E+03  0.00000000000E+00 0. -1.
         11    1    1    2    0    0 -0.42293502224E+01  0.60138735250E+01 -0.48770844716E+03  0.48776386039E+03  0.00000000000E+00 0. -1.
        -15    1    1    2    0    0  0.44075191050E+00 -0.60240865345E+01 -0.96245460766E+01  0.11501021563E+02  0.17770000000E+01 0. -1.
         15    1    1    2    0    0  0.13945350419E+02 -0.74255202904E+01  0.37515064116E+02  0.40744925016E+02  0.17770000000E+01 0. -1.
</event>
<event>
 6    1  0.2417756E-003  0.5081684E+03  0.7546771E-02  0.9381715E-01
        -11   -1    0    0    0    0  0.00000000000E+00  0.00000000000E+00  0.50000000000E+03  0.50000000000E+03  0.00000000000E+00 0. -1.
         11   -1    0    0    0    0 -0.00000000000E+00 -0.00000000000E+00 -0.50000000000E+03  0.50000000000E+03  0.00000000000E+00 0. -1.
        -11    1    1    2    0    0  0.10337575552E+02 -0.28758501922E+00  0.46601807399E+03  0.46613280668E+03  0.00000000000E+00 0. -1.
         11    1    1    2    0    0 -0.20797725443E+02 -0.37612736669E+01 -0.49137725828E+03  0.49183157942E+03  0.00000000000E+00 0. -1.
        -15    1    1    2    0    0 -0.57104366190E+01  0.12042839476E+00  0.24563304817E+02  0.25281164172E+02  0.17770000000E+01 0.  1.
         15    1    1    2    0    0  0.16170586510E+02  0.39284302914E+01  0.79587947061E+00  0.16754449730E+02  0.17770000000E+01 0. -1.
</event>
<event>
 6    1  0.1860328E-003  0.5245297E+03  0.7546771E-02  0.9346536E-01
        -11   -1    0    0    0    0  0.00000000000E+00  0.00000000000E+00  0.50000000000E+03  0.50000000000E+03  0.00000000000E+00 0.  1.
         11   -1    0    0    0    0 -0.00000000000E+00 -0.00000000000E+00 -0.50000000000E+03  0.50000000000E+03  0.00000000000E+00 0. -1.
        -11    1    1    2    0    0 -0.21618100032E+02 -0.20150687949E+02  0.44188901972E+03  0.44287616579E+03  0.00000000000E+00 0.  1.
         11    1    1    2    0    0  0.26846940273E+02  0.39576278966E+02 -0.47305911885E+03  0.47547026193E+03  0.00000000000E+00 0. -1.
        -15    1    1    2    0    0 -0.41607257958E+01 -0.21744004120E+02 -0.20300219205E+02  0.30089366612E+02  0.17770000000E+01 0.  1.
         15    1    1    2    0    0 -0.10681144448E+01  0.23184131031E+01  0.51470318333E+02  0.51564205667E+02  0.17770000000E+01 0. -1.
</event>
<event>
 6    1  0.1860328E-003  0.4745071E+03  0.7546771E-02  0.9458731E-01
        -11   -1    0    0    0    0  0.00000000000E+00  0.00000000000E+00  0.50000000000E+03  0.50000000000E+03  0.00000000000E+00 0. -1.
         11   -1    0    0    0    0 -0.00000000000E+00 -0.00000000000E+00 -0.50000000000E+03  0.50000000000E+03  0.00000000000E+00 0.  1.
        -11    1    1    2    0    0 -0.62667225282E+01 -0.54179658261E+01  0.47543245297E+03  0.47550461986E+03  0.00000000000E+00 0. -1.
         11    1    1    2    0    0 -0.31320011856E+01  0.96603543113E+01 -0.47345875365E+03  0.47356765439E+03  0.00000000000E+00 0.  1.
        -15    1    1    2    0    0  0.11986353725E+02 -0.34985612788E+01  0.22740507047E+02  0.26003865028E+02  0.17770000000E+01 0.  1.
         15    1    1    2    0    0 -0.25876300111E+01 -0.74382720634E+00 -0.24714206367E+02  0.24923860723E+02  0.17770000000E+01 0. -1.
</event>
<event>
 6    1  0.1860328E-003  0.5038804E+03  0.7546771E-02  0.9391169E-01
        -11   -1    0    0    0    0  0.00000000000E+00  0.00000000000E+00  0.50000000000E+03  0.50000000000E+03  0.00000000000E+00 0. -1.
         11   -1    0    0    0    0 -0.00000000000E+00 -0.00000000000E+00 -0.50000000000E+03  0.50000000000E+03  0.00000000000E+00 0.  1.
        -11    1    1    2    0    0  0.18948731155E+01  0.18033650451E+02  0.49578812542E+03  0.49611961098E+03  0.00000000000E+00 0. -1.
         11    1    1    2    0    0  0.47077824690E+01 -0.33936839006E+01 -0.77801646274E+02  0.78017795849E+02  0.00000000000E+00 0.  1.
        -15    1    1    2    0    0 -0.23698234084E+02 -0.28515715797E+02 -0.38083717644E+03  0.38264195409E+03  0.17770000000E+01 0.  1.
         15    1    1    2    0    0  0.17095578499E+02  0.13875749246E+02 -0.37149302710E+02  0.43220639077E+02  0.17770000000E+01 0. -1.
</event>
<event>
 6    1  0.1860328E-003  0.4719910E+03  0.7546771E-02  0.9464760E-01
        -11   -1    0    0    0    0  0.00000000000E+00  0.00000000000E+00  0.50000000000E+03  0.50000000000E+03  0.00000000000E+00 0.  1.
         11   -1    0    0    0    0 -0.00000000000E+00 -0.00000000000E+00 -0.50000000000E+03  0.50000000000E+03  0.00000000000E+00 0.  1.
        -11    1    1    2    0    0 -0.46117252962E+01  0.48842183909E+01  0.47559918427E+03  0.47564662059E+03  0.00000000000E+00 0.  1.
         11    1    1    2    0    0 -0.96630768037E+01 -0.21097072530E+00 -0.46838264422E+03  0.46848235929E+03  0.00000000000E+00 0.  1.
        -15    1    1    2    0    0 -0.13183282715E+01 -0.95294668052E+01  0.21030226801E+02  0.23194328947E+02  0.17770000000E+01 0.  1.
         15    1    1    2    0    0  0.15593130371E+02  0.48562191396E+01 -0.28246766853E+02  0.32676691169E+02  0.17770000000E+01 0. -1.
</event>
<event>
 6    1  0.1860328E-003  0.4788827E+03  0.7546771E-02  0.9448342E-01
        -11   -1    0    0    0    0  0.00000000000E+00  0.00000000000E+00  0.50000000000E+03  0.50000000000E+03  0.00000000000E+00 0.  1.
         11   -1    0    0    0    0 -0.00000000000E+00 -0.00000000000E+00 -0.50000000000E+03  0.50000000000E+03  0.00000000000E+00 0.  1.
        -11    1    1    2    0    0 -0.20101016506E+02  0.10436863262E+02  0.48132641073E+03  0.48185899664E+03  0.00000000000E+00 0.  1.
         11    1    1    2    0    0  0.52415643452E+01  0.61673084533E+01 -0.47611098455E+03  0.47617977624E+03  0.00000000000E+00 0.  1.
        -15    1    1    2    0    0 -0.59918983779E+01 -0.11812425631E+01 -0.13295204758E+02  0.14738330255E+02  0.17770000000E+01 0.  1.
         15    1    1    2    0    0  0.20851350539E+02 -0.15422929152E+02  0.80797785748E+01  0.27222896866E+02  0.17770000000E+01 0. -1.
</event>
<event>
 6    1  0.1860328E-003  0.5001794E+03  0.7546771E-02  0.9399408E-01
        -11   -1    0    0    0    0  0.00000000000E+00  0.00000000000E+00  0.50000000000E+03  0.50000000000E+03  0.00000000000E+00 0. -1.
         11   -1    0    0    0    0 -0.00000000000E+00 -0.00000000000E+00 -0.50000000000E+03  0.50000000000E+03  0.00000000000E+00 0.  1.
        -11    1    1    2    0    0  0.26931040690E+01  0.14419044961E+01  0.17458302434E+03  0.17460974854E+03  0.00000000000E+00 0. -1.
         11    1    1    2    0    0  0.11929092569E+01 -0.69795447849E+01 -0.49977043014E+03  0.49982058773E+03  0.00000000000E+00 0.  1.
        -15    1    1    2    0    0  0.50778469885E+00  0.62451671314E+01  0.62475679555E+02  0.62814235828E+02  0.17770000000E+01 0. -1.
         15    1    1    2    0    0 -0.43937980248E+01 -0.70752684261E+00  0.26271172625E+03  0.26275542790E+03  0.17770000000E+01 0.  1.
</event>
<event>
 6    1  0.1860328E-003  0.5225613E+03  0.7546771E-02  0.9350696E-01
        -11   -1    0    0    0    0  0.00000000000E+00  0.00000000000E+00  0.50000000000E+03  0.50000000000E+03  0.00000000000E+00 0.  1.
         11   -1    0    0    0    0 -0.00000000000E+00 -0.00000000000E+00 -0.50000000000E+03  0.50000000000E+03  0.00000000000E+00 0. -1.
        -11    1    1    2    0    0 -0.90183471592E+01 -0.79536224836E+01  0.45308238923E+03  0.45324192450E+03  0.00000000000E+00 0.  1.
         11    1    1    2    0    0  0.98363603823E+01  0.52642016899E+01 -0.47730831000E+03  0.47743867522E+03  0.00000000000E+00 0. -1.
        -15    1    1    2    0    0  0.13120284927E+02  0.20018373494E+02  0.36630442636E+02  0.43792969876E+02  0.17770000000E+01 0.  1.
         15    1    1    2    0    0 -0.13938298150E+02 -0.17328952700E+02 -0.12404521871E+02  0.25526430398E+02  0.17770000000E+01 0. -1.
</event>
<event>
 6    1  0.1860328E-003  0.5005483E+03  0.7546771E-02  0.9398584E-01
        -11   -1    0    0    0    0  0.00000000000E+00  0.00000000000E+00  0.50000000000E+03  0.50000000000E+03  0.00000000000E+00 0.  1.
         11   -1    0    0    0    0 -0.00000000000E+00 -0.00000000000E+00 -0.50000000000E+03  0.50000000000E+03  0.00000000000E+00 0. -1.
        -11    1    1    2    0    0  0.38331535515E+01 -0.30346214406E+01  0.52699634504E+02  0.52925924368E+02  0.00000000000E+00 0.  1.
         11    1    1    2    0    0  0.76440533379E+01 -0.29473149778E+00 -0.49939311156E+03  0.49945169766E+03  0.00000000000E+00 0. -1.
        -15    1    1    2    0    0 -0.89878542845E+01 -0.12574623921E+01  0.42878080110E+03  0.42888051466E+03  0.17770000000E+01 0.  1.
         15    1    1    2    0    0 -0.24893526049E+01  0.45868153305E+01  0.17912675957E+02  0.18741863307E+02  0.17770000000E+01 0. -1.
</event>
<event>
 6    1  0.1860328E-003  0.5085776E+03  0.7546771E-02  0.9380819E-01
        -11   -1    0    0    0    0  0.00000000000E+00  0.00000000000E+00  0.50000000000E+03  0.50000000000E+03  0.00000000000E+00 0.  1.
         11   -1    0    0    0    0 -0.00000000000E+00 -0.00000000000E+00 -0.50000000000E+03  0.50000000000E+03  0.00000000000E+00 0. -1.
        -11    1    1    2    0    0  0.46079989313E+01  0.87839550091E+01  0.49132225655E+03  0.49142237566E+03  0.00000000000E+00 0.  1.
         11    1    1    2    0    0 -0.58332786229E+01  0.48787978661E+01 -0.48312354384E+03  0.48318339005E+03  0.00000000000E+00 0. -1.
        -15    1    1    2    0    0 -0.97545244296E+00 -0.24301757838E+01 -0.12608783532E+02  0.12999862036E+02  0.17770000000E+01 0.  1.
         15    1    1    2    0    0  0.22007321345E+01 -0.11232577091E+02  0.44100708198E+01  0.12394372258E+02  0.17770000000E+01 0. -1.
</event>
<event>
 6    1  0.1860328E-003  0.5112518E+03  0.7546771E-02  0.9374979E-01
        -11   -1    0    0    0    0  0.00000000000E+00  0.00000000000E+00  0.50000000000E+03  0.50000000000E+03  0.00000000000E+00 0. -1.
         11   -1    0    0    0    0 -0.00000000000E+00 -0.00000000000E+00 -0.50000000000E+03  0.50000000000E+03  0.00000000000E+00 0.  1.
        -11    1    1    2    0    0  0.49585338369E+01  0.30205919885E+02  0.39476299750E+03  0.39594798756E+03  0.00000000000E+00 0. -1.
         11    1    1    2    0    0 -0.16969234228E+02 -0.60078692313E+01 -0.48841657470E+03  0.48874819677E+03  0.00000000000E+00 0.  1.
        -15    1    1    2    0    0  0.95532273902E+01 -0.32538788230E+01 -0.70255930292E+01  0.12424514774E+02  0.17770000000E+01 0. -1.
         15    1    1    2    0    0  0.24574730013E+01 -0.20944171831E+02  0.10067917022E+03  0.10287930090E+03  0.17770000000E+01 0.  1.
</event>
<event>
 6    1  0.1860328E-003  0.5002168E+03  0.7546771E-02  0.9399325E-01
        -11   -1    0    0    0    0  0.00000000000E+00  0.00000000000E+00  0.50000000000E+03  0.50000000000E+03  0.00000000000E+00 0.  1.
         11   -1    0    0    0    0 -0.00000000000E+00 -0.00000000000E+00 -0.50000000000E+03  0.50000000000E+03  0.00000000000E+00 0. -1.
        -11    1    1    2    0    0 -0.62120903934E+01 -0.45296441696E+01  0.49972410567E+03  0.49978324254E+03  0.00000000000E+00 0.  1.
         11    1    1    2    0    0  0.28095798053E+01 -0.39238660929E+01 -0.21140567498E+03  0.21146075257E+03  0.00000000000E+00 0. -1.
        -15    1    1    2    0    0 -0.49313599909E+00  0.30169110494E+01 -0.23018010089E+03  0.23020725772E+03  0.17770000000E+01 0. -1.
         15    1    1    2    0    0  0.38956465872E+01  0.54365992131E+01 -0.58138329800E+02  0.58548747162E+02  0.17770000000E+01 0.  1.
</event>
<event>
 6    1  0.1860328E-003  0.5041403E+03  0.7546771E-02  0.9390593E-01
        -11   -1    0    0    0    0  0.00000000000E+00  0.00000000000E+00  0.50000000000E+03  0.50000000000E+03  0.00000000000E+00 0. -1.
         11   -1    0    0    0    0 -0.00000000000E+00 -0.00000000000E+00 -0.50000000000E+03  0.50000000000E+03  0.00000000000E+00 0.  1.
        -11    1    1    2    0    0 -0.39255886772E+01  0.75494181826E+01  0.44168064535E+03  0.44176260190E+03  0.00000000000E+00 0. -1.
         11    1    1    2    0    0 -0.25282362527E+01  0.83970750273E+01 -0.49578217792E+03  0.49585972895E+03  0.00000000000E+00 0.  1.
        -15    1    1    2    0    0  0.38334819474E+01 -0.44861992904E+01  0.49089541981E+02  0.49474866637E+02  0.17770000000E+01 0.  1.
         15    1    1    2    0    0  0.26203429824E+01 -0.11460293920E+02  0.50119905895E+01  0.12902802515E+02  0.17770000000E+01 0. -1.
</event>
<event>
 6    1  0.1860328E-003  0.5429725E+03  0.7546771E-02  0.9308478E-01
        -11   -1    0    0    0    0  0.00000000000E+00  0.00000000000E+00  0.50000000000E+03  0.50000000000E+03  0.00000000000E+00 0.  1.
         11   -1    0    0    0    0 -0.00000000000E+00 -0.00000000000E+00 -0.50000000000E+03  0.50000000000E+03  0.00000000000E+00 0.  1.
        -11    1    1    2    0    0 -0.22684715674E+00 -0.67821671957E+01  0.45697713890E+03  0.45702752076E+03  0.00000000000E+00 0.  1.
         11    1    1    2    0    0  0.49682670115E+02  0.71305621697E+01 -0.41830229009E+03  0.42130276349E+03  0.00000000000E+00 0.  1.
        -15    1    1    2    0    0 -0.39858177996E+02 -0.30191313305E+02  0.20981699193E+02  0.54254761839E+02  0.17770000000E+01 0. -1.
         15    1    1    2    0    0 -0.95976449621E+01  0.29842918331E+02 -0.59656548003E+02  0.67414953920E+02  0.17770000000E+01 0.  1.
</event>
<event>
 6    1  0.1860328E-003  0.5021034E+03  0.7546771E-02  0.9395115E-01
        -11   -1    0    0    0    0  0.00000000000E+00  0.00000000000E+00  0.50000000000E+03  0.50000000000E+03  0.00000000000E+00 0.  1.
         11   -1    0    0    0    0 -0.00000000000E+00 -0.00000000000E+00 -0.50000000000E+03  0.50000000000E+03  0.00000000000E+00 0. -1.
        -11    1    1    2    0    0  0.90428062239E+01 -0.66726160351E+01  0.47579494670E+03  0.47592764939E+03  0.00000000000E+00 0.  1.
         11    1    1    2    0    0 -0.69147438309E+01  0.31093838118E+01 -0.49783884943E+03  0.49789657756E+03  0.00000000000E+00 0. -1.
        -15    1    1    2    0    0  0.44937143265E+01  0.49927372201E+01  0.89939211345E+01  0.11365264615E+02  0.17770000000E+01 0. -1.
         15    1    1    2    0    0 -0.66217767195E+01 -0.14295049969E+01  0.13049981593E+02  0.14810508433E+02  0.17770000000E+01 0.  1.
</event>
<event>
 6    1  0.1860328E-003  0.5052859E+03  0.7546771E-02  0.9388059E-01
        -11   -1    0    0    0    0  0.00000000000E+00  0.00000000000E+00  0.50000000000E+03  0.50000000000E+03  0.00000000000E+00 0. -1.
         11   -1    0    0    0    0 -0.00000000000E+00 -0.00000000000E+00 -0.50000000000E+03  0.50000000000E+03  0.00000000000E+00 0. -1.
        -11    1    1    2    0    0 -0.33135117367E+01  0.11167843693E+02  0.46443375037E+03  0.46457981938E+03  0.00000000000E+00 0. -1.
         11    1    1    2    0    0 -0.92840608318E+01  0.61091914512E+00 -0.49462657641E+03  0.49471407611E+03  0.00000000000E+00 0. -1.
        -15    1    1    2    0    0 -0.18569785753E+01  0.86857664827E+00 -0.18654427571E+01  0.32924763482E+01  0.17770000000E+01 0.  1.
         15    1    1    2    0    0  0.14454551144E+02 -0.12647339487E+02  0.32058268799E+02  0.37413628162E+02  0.17770000000E+01 0.  1.
</event>
<event>
 6    1  0.1860328E-003  0.5311281E+03  0.7546771E-02  0.9332731E-01
        -11   -1    0    0    0    0  0.00000000000E+00  0.00000000000E+00  0.50000000000E+03  0.50000000000E+03  0.00000000000E+00 0. -1.
         11   -1    0    0    0    0 -0.00000000000E+00 -0.00000000000E+00 -0.50000000000E+03  0.50000000000E+03  0.00000000000E+00 0. -1.
        -11    1    1    2    0    0  0.17002324429E+02 -0.76650889465E+01  0.40366276496E+03  0.40409338084E+03  0.00000000000E+00 0. -1.
         11    1    1    2    0    0 -0.30665675826E+02 -0.26482120667E+02 -0.46711796385E+03  0.46887192125E+03  0.00000000000E+00 0. -1.
        -15    1    1    2    0    0  0.29003231198E+02  0.48788027065E+02  0.81364964907E+02  0.99221339681E+02  0.17770000000E+01 0. -1.
         15    1    1    2    0    0 -0.15339879800E+02 -0.14640817452E+02 -0.17909766017E+02  0.27813358224E+02  0.17770000000E+01 0.  1.
</event>
<event>
 6    1  0.1860328E-003  0.5105281E+03  0.7546771E-02  0.9376556E-01
        -11   -1    0    0    0    0  0.00000000000E+00  0.00000000000E+00  0.50000000000E+03  0.50000000000E+03  0.00000000000E+00 0. -1.
         11   -1    0    0    0    0 -0.00000000000E+00 -0.00000000000E+00 -0.50000000000E+03  0.50000000000E+03  0.00000000000E+00 0. -1.
        -11    1    1    2    0    0 -0.48809611699E+01  0.46943388763E+01  0.48942500268E+03  0.48947185195E+03  0.00000000000E+00 0. -1.
         11    1    1    2    0    0 -0.14813452871E+02  0.46677553349E+01 -0.43503255921E+03  0.43530972180E+03  0.00000000000E+00 0. -1.
        -15    1    1    2    0    0  0.41408976929E+01 -0.10134981277E+02 -0.58069365693E+02  0.59119149522E+02  0.17770000000E+01 0. -1.
         15    1    1    2    0    0  0.15553516348E+02  0.77288706583E+00  0.36769222206E+01  0.16099276730E+02  0.17770000000E+01 0.  1.
</event>
<event>
 6    1  0.1860328E-003  0.5058912E+03  0.7546771E-02  0.9386723E-01
        -11   -1    0    0    0    0  0.00000000000E+00  0.00000000000E+00  0.50000000000E+03  0.50000000000E+03  0.00000000000E+00 0. -1.
         11   -1    0    0    0    0 -0.00000000000E+00 -0.00000000000E+00 -0.50000000000E+03  0.50000000000E+03  0.00000000000E+00 0.  1.
        -11    1    1    2    0    0  0.29364035368E+02 -0.39532576891E+01  0.30412309758E+03  0.30556297764E+03  0.00000000000E+00 0. -1.
         11    1    1    2    0    0  0.66666490573E+01  0.61676574785E+01 -0.49402529258E+03  0.49410876729E+03  0.00000000000E+00 0.  1.
        -15    1    1    2    0    0  0.72951493127E+01 -0.16079465327E+02  0.42507380547E+02  0.46063038747E+02  0.17770000000E+01 0.  1.
         15    1    1    2    0    0 -0.43325833738E+02  0.13865065538E+02  0.14739481445E+03  0.15426521632E+03  0.17770000000E+01 0. -1.
</event>
<event>
 6    1  0.1860328E-003  0.5046122E+03  0.7546771E-02  0.9389548E-01
        -11   -1    0    0    0    0  0.00000000000E+00  0.00000000000E+00  0.50000000000E+03  0.50000000000E+03  0.00000000000E+00 0. -1.
         11   -1    0    0    0    0 -0.00000000000E+00 -0.00000000000E+00 -0.50000000000E+03  0.50000000000E+03  0.00000000000E+00 0.  1.
        -11    1    1    2    0    0 -0.18356557967E+01 -0.14174287337E+02  0.49518155107E+03  0.49538777596E+03  0.00000000000E+00 0. -1.
         11    1    1    2    0    0  0.21662321657E+02 -0.34994748897E+01 -0.40766153285E+03  0.40825167222E+03  0.00000000000E+00 0.  1.
        -15    1    1    2    0    0 -0.14916378645E+02  0.17878269227E+02 -0.88063049224E+02  0.91106471943E+02  0.17770000000E+01 0. -1.
         15    1    1    2    0    0 -0.49102872146E+01 -0.20450700055E+00  0.54303100942E+00  0.52540798738E+01  0.17770000000E+01 0.  1.
</event>
<event>
 6    1  0.1860328E-003  0.5027524E+03  0.7546771E-02  0.9393672E-01
        -11   -1    0    0    0    0  0.00000000000E+00  0.00000000000E+00  0.50000000000E+03  0.50000000000E+03  0.00000000000E+00 0.  1.
         11   -1    0    0    0    0 -0.00000000000E+00 -0.00000000000E+00 -0.50000000000E+03  0.50000000000E+03  0.00000000000E+00 0. -1.
        -11    1    1    2    0    0 -0.10131908079E+01  0.89156412193E+01  0.22640393915E+03  0.22658168257E+03  0.00000000000E+00 0.  1.
         11    1    1    2    0    0  0.82448687646E+01 -0.10257423718E+02 -0.49707343273E+03  0.49724761450E+03  0.00000000000E+00 0. -1.
        -15    1    1    2    0    0 -0.10145903984E+02  0.89609070170E+01  0.14688511516E+02  0.20053611190E+02  0.17770000000E+01 0. -1.
         15    1    1    2    0    0  0.29142260268E+01 -0.76191245186E+01  0.25598098207E+03  0.25611709174E+03  0.17770000000E+01 0.  1.
</event>
<event>
 6    1  0.1860328E-003  0.5054370E+03  0.7546771E-02  0.9387726E-01
        -11   -1    0    0    0    0  0.00000000000E+00  0.00000000000E+00  0.50000000000E+03  0.50000000000E+03  0.00000000000E+00 0. -1.
         11   -1    0    0    0    0 -0.00000000000E+00 -0.00000000000E+00 -0.50000000000E+03  0.50000000000E+03  0.00000000000E+00 0. -1.
        -11    1    1    2    0    0  0.16056653145E+02 -0.51395205679E+01  0.49427560357E+03  0.49456304256E+03  0.00000000000E+00 0. -1.
         11    1    1    2    0    0 -0.12363356283E+02 -0.48356946789E+00 -0.44762551701E+03  0.44779648267E+03  0.00000000000E+00 0. -1.
        -15    1    1    2    0    0  0.92017170772E+01  0.12175895248E+02 -0.37260842437E+02  0.40304492682E+02  0.17770000000E+01 0.  1.
         15    1    1    2    0    0 -0.12895013939E+02 -0.65528052121E+01 -0.93892441269E+01  0.17335982087E+02  0.17770000000E+01 0. -1.
</event>
<event>
 6    1  0.1860328E-003  0.5160336E+03  0.7546771E-02  0.9364631E-01
        -11   -1    0    0    0    0  0.00000000000E+00  0.00000000000E+00  0.50000000000E+03  0.50000000000E+03  0.00000000000E+00 0.  1.
         11   -1    0    0    0    0 -0.00000000000E+00 -0.00000000000E+00 -0.50000000000E+03  0.50000000000E+03  0.00000000000E+00 0.  1.
        -11    1    1    2    0    0 -0.18625099858E+02 -0.22936417491E+02  0.42297654413E+03  0.42400722927E+03  0.00000000000E+00 0.  1.
         11    1    1    2    0    0 -0.16070832371E+02 -0.16634002811E+02 -0.48341337073E+03  0.48396637146E+03  0.00000000000E+00 0.  1.
        -15    1    1    2    0    0  0.21991830495E+02  0.37848326347E+02  0.17490515723E+02  0.47172155824E+02  0.17770000000E+01 0.  1.
         15    1    1    2    0    0  0.12704101735E+02  0.17220939549E+01  0.42946310878E+02  0.44854243450E+02  0.17770000000E+01 0. -1.
</event>
<event>
 6    1  0.1860328E-003  0.5007569E+03  0.7546771E-02  0.9398118E-01
        -11   -1    0    0    0    0  0.00000000000E+00  0.00000000000E+00  0.50000000000E+03  0.50000000000E+03  0.00000000000E+00 0. -1.
         11   -1    0    0    0    0 -0.00000000000E+00 -0.00000000000E+00 -0.50000000000E+03  0.50000000000E+03  0.00000000000E+00 0. -1.
        -11    1    1    2    0    0  0.77482152118E+00 -0.36072514616E+01  0.26659223355E+03  0.26661776310E+03  0.00000000000E+00 0. -1.
         11    1    1    2    0    0  0.72658765732E+01 -0.80920521808E+01 -0.49912465169E+03  0.49924311933E+03  0.00000000000E+00 0. -1.
        -15    1    1    2    0    0 -0.29894282375E+00  0.28955430816E+01  0.18871089671E+03  0.18874171188E+03  0.17770000000E+01 0.  1.
         15    1    1    2    0    0 -0.77417552706E+01  0.88037605608E+01  0.43821521429E+02  0.45397405697E+02  0.17770000000E+01 0. -1.
</event>
<event>
 6    1  0.1860328E-003  0.5072273E+03  0.7546771E-02  0.9383782E-01
        -11   -1    0    0    0    0  0.00000000000E+00  0.00000000000E+00  0.50000000000E+03  0.50000000000E+03  0.00000000000E+00 0.  1.
         11   -1    0    0    0    0 -0.00000000000E+00 -0.00000000000E+00 -0.50000000000E+03  0.50000000000E+03  0.00000000000E+00 0. -1.
        -11    1    1    2    0    0 -0.60245706404E+01  0.28739685316E+01  0.45490052028E+03  0.45494949005E+03  0.00000000000E+00 0.  1.
         11    1    1    2    0    0  0.45846766820E+01  0.13241923813E+02 -0.49257340973E+03  0.49277269788E+03  0.00000000000E+00 0. -1.
        -15    1    1    2    0    0  0.77380160873E+01 -0.17947665909E+02  0.40432157765E+02  0.44943439066E+02  0.17770000000E+01 0.  1.
         15    1    1    2    0    0 -0.62981221289E+01  0.18317735644E+01 -0.27592683168E+01  0.73343730057E+01  0.17770000000E+01 0. -1.
</event>
<event>
 6    1  0.1860328E-003  0.5001532E+03  0.7546771E-02  0.9399467E-01
        -11   -1    0    0    0    0  0.00000000000E+00  0.00000000000E+00  0.50000000000E+03  0.50000000000E+03  0.00000000000E+00 0.  1.
         11   -1    0    0    0    0 -0.00000000000E+00 -0.00000000000E+00 -0.50000000000E+03  0.50000000000E+03  0.00000000000E+00 0.  1.
        -11    1    1    2    0    0 -0.50498396892E+01 -0.66820117608E+01  0.49977658378E+03  0.49984676037E+03  0.00000000000E+00 0.  1.
         11    1    1    2    0    0  0.63100249940E+01  0.20668472774E+01 -0.25480325799E+03  0.25488975765E+03  0.00000000000E+00 0.  1.
        -15    1    1    2    0    0  0.44369264141E+01  0.80757112609E+00 -0.10048730757E+03  0.10060415101E+03  0.17770000000E+01 0. -1.
         15    1    1    2    0    0 -0.56971117189E+01  0.38075933574E+01 -0.14448601821E+03  0.14465933097E+03  0.17770000000E+01 0.  1.
</event>
<event>
 6    1  0.1860328E-003  0.5041228E+03  0.7546771E-02  0.9390632E-01
        -11   -1    0    0    0    0  0.00000000000E+00  0.00000000000E+00  0.50000000000E+03  0.50000000000E+03  0.00000000000E+00 0. -1.
         11   -1    0    0    0    0 -0.00000000000E+00 -0.00000000000E+00 -0.50000000000E+03  0.50000000000E+03  0.00000000000E+00 0. -1.
        -11    1    1    2    0    0 -0.10525071252E+02 -0.10841277306E+02  0.49564695934E+03  0.49587722142E+03  0.00000000000E+00 0. -1.
         11    1    1    2    0    0 -0.25539625922E+01 -0.75583256654E+01 -0.28568987376E+03  0.28580125084E+03  0.00000000000E+00 0. -1.
        -15    1    1    2    0    0  0.34006877017E+02  0.97015349697E+01 -0.10124710823E+03  0.10726006768E+03  0.17770000000E+01 0. -1.
         15    1    1    2    0    0 -0.20927843172E+02  0.86980680016E+01 -0.10870997735E+03  0.11106146006E+03  0.17770000000E+01 0.  1.
</event>
<event>
 6    1  0.1860328E-003  0.5011966E+03  0.7546771E-02  0.9397136E-01
        -11   -1    0    0    0    0  0.00000000000E+00  0.00000000000E+00  0.50000000000E+03  0.50000000000E+03  0.00000000000E+00 0.  1.
         11   -1    0    0    0    0 -0.00000000000E+00 -0.00000000000E+00 -0.50000000000E+03  0.50000000000E+03  0.00000000000E+00 0. -1.
        -11    1    1    2    0    0 -0.78768294408E+01  0.28262895837E+01  0.43394162948E+03  0.43402231527E+03  0.00000000000E+00 0.  1.
         11    1    1    2    0    0  0.69265959844E+01  0.54101571705E+01 -0.49872596565E+03  0.49880340450E+03  0.00000000000E+00 0. -1.
        -15    1    1    2    0    0  0.76018314771E+01 -0.12510194500E+01  0.26573379816E+02  0.27724630482E+02  0.17770000000E+01 0.  1.
         15    1    1    2    0    0 -0.66515980208E+01 -0.69854273042E+01  0.38210956351E+02  0.39449649746E+02  0.17770000000E+01 0. -1.
</event>
<event>
 6    1  0.1860328E-003  0.5027739E+03  0.7546771E-02  0.9393624E-01
        -11   -1    0    0    0    0  0.00000000000E+00  0.00000000000E+00  0.50000000000E+03  0.50000000000E+03  0.00000000000E+00 0. -1.
         11   -1    0    0    0    0 -0.00000000000E+00 -0.00000000000E+00 -0.50000000000E+03  0.50000000000E+03  0.00000000000E+00 0.  1.
        -11    1    1    2    0    0 -0.54307024986E+00 -0.31861201573E+01  0.19102661406E+03  0.19105395460E+03  0.00000000000E+00 0. -1.
         11    1    1    2    0    0  0.12330623374E+02  0.64950866681E+01 -0.49703075317E+03  0.49722610553E+03  0.00000000000E+00 0.  1.
        -15    1    1    2    0    0 -0.92656997177E+01  0.87990263201E+00  0.30635903145E+03  0.30650553225E+03  0.17770000000E+01 0. -1.
         15    1    1    2    0    0 -0.25218534065E+01 -0.41888691428E+01 -0.35489233197E+00  0.52144076238E+01  0.17770000000E+01 0.  1.
</event>
<event>
 6    1  0.1860328E-003  0.5139052E+03  0.7546771E-02  0.9369222E-01
        -11   -1    0    0    0    0  0.00000000000E+00  0.00000000000E+00  0.50000000000E+03  0.50000000000E+03  0.00000000000E+00 0.  1.
         11   -1    0    0    0    0 -0.00000000000E+00 -0.00000000000E+00 -0.50000000000E+03  0.50000000000E+03  0.00000000000E+00 0. -1.
        -11    1    1    2    0    0 -0.93369186412E+01  0.16680311802E+02  0.45477780042E+03  0.45517936971E+03  0.00000000000E+00 0.  1.
         11    1    1    2    0    0  0.10862705461E+02  0.15018604278E+01 -0.48597108390E+03  0.48609479358E+03  0.00000000000E+00 0. -1.
        -15    1    1    2    0    0 -0.56004307304E+01 -0.53741232175E+01 -0.11468435880E+02  0.13961689556E+02  0.17770000000E+01 0.  1.
         15    1    1    2    0    0  0.40746439107E+01 -0.12808049013E+02  0.42661719361E+02  0.44764147153E+02  0.17770000000E+01 0. -1.
</event>
<event>
 6    1  0.1860328E-003  0.5071004E+03  0.7546771E-02  0.9384061E-01
        -11   -1    0    0    0    0  0.00000000000E+00  0.00000000000E+00  0.50000000000E+03  0.50000000000E+03  0.00000000000E+00 0. -1.
         11   -1    0    0    0    0 -0.00000000000E+00 -0.00000000000E+00 -0.50000000000E+03  0.50000000000E+03  0.00000000000E+00 0. -1.
        -11    1    1    2    0    0 -0.85840509672E+01  0.53854141525E+01  0.49279541761E+03  0.49289959651E+03  0.00000000000E+00 0. -1.
         11    1    1    2    0    0  0.84006548414E+01 -0.33800834694E+01 -0.44525313092E+03  0.44534519933E+03  0.00000000000E+00 0. -1.
        -15    1    1    2    0    0 -0.10251592034E+02 -0.17084637018E+01 -0.49820106075E+02  0.50923616189E+02  0.17770000000E+01 0. -1.
         15    1    1    2    0    0  0.10434988160E+02 -0.29686698130E+00  0.22778193843E+01  0.10831587974E+02  0.17770000000E+01 0.  1.
</event>
<event>
 6    1  0.1860328E-003  0.5062351E+03  0.7546771E-02  0.9385965E-01
        -11   -1    0    0    0    0  0.00000000000E+00  0.00000000000E+00  0.50000000000E+03  0.50000000000E+03  0.00000000000E+00 0. -1.
         11   -1    0    0    0    0 -0.00000000000E+00 -0.00000000000E+00 -0.50000000000E+03  0.50000000000E+03  0.00000000000E+00 0. -1.
        -11    1    1    2    0    0 -0.80980083623E+01 -0.76435327210E+01  0.40949664844E+03  0.40964802748E+03  0.00000000000E+00 0. -1.
         11    1    1    2    0    0 -0.19597289385E+02  0.78731326304E+01 -0.49331300068E+03  0.49376487989E+03  0.00000000000E+00 0. -1.
        -15    1    1    2    0    0  0.23217221147E+02 -0.16265288810E+01  0.87373492362E+02  0.90437657259E+02  0.17770000000E+01 0. -1.
         15    1    1    2    0    0  0.44780766005E+01  0.13969289716E+01 -0.35571401199E+01  0.61494353744E+01  0.17770000000E+01 0.  1.
</event>
<event>
 6    1  0.1860328E-003  0.5072835E+03  0.7546771E-02  0.9383658E-01
        -11   -1    0    0    0    0  0.00000000000E+00  0.00000000000E+00  0.50000000000E+03  0.50000000000E+03  0.00000000000E+00 0.  1.
         11   -1    0    0    0    0 -0.00000000000E+00 -0.00000000000E+00 -0.50000000000E+03  0.50000000000E+03  0.00000000000E+00 0.  1.
        -11    1    1    2    0    0  0.51239125454E+01  0.87207994767E+01  0.49261269041E+03  0.49271652051E+03  0.00000000000E+00 0.  1.
         11    1    1    2    0    0 -0.26148679463E+01  0.69218396435E+01 -0.43818241528E+03  0.43824488412E+03  0.00000000000E+00 0.  1.
        -15    1    1    2    0    0 -0.44038176824E+01 -0.12783805502E+02 -0.60404264684E+02  0.61924568745E+02  0.17770000000E+01 0. -1.
         15    1    1    2    0    0  0.18947730833E+01 -0.28588336185E+01  0.59739895489E+01  0.71140266253E+01  0.17770000000E+01 0.  1.
</event>
<event>
 6    1  0.1860328E-003  0.4854523E+03  0.7546771E-02  0.9432963E-01
        -11   -1    0    0    0    0  0.00000000000E+00  0.00000000000E+00  0.50000000000E+03  0.50000000000E+03  0.00000000000E+00 0. -1.
         11   -1    0    0    0    0 -0.00000000000E+00 -0.00000000000E+00 -0.50000000000E+03  0.50000000000E+03  0.00000000000E+00 0.  1.
        -11    1    1    2    0    0  0.28819326813E+01 -0.61621134544E+01  0.91570254042E+01  0.11407378860E+02  0.00000000000E+00 0. -1.
         11    1    1    2    0    0 -0.19874543750E+02 -0.14778056222E+02 -0.49355461888E+03  0.49417562693E+03  0.00000000000E+00 0.  1.
        -15    1    1    2    0    0  0.31693954015E+01  0.13805956176E+02  0.47680081807E+03  0.47701449385E+03  0.17770000000E+01 0. -1.
         15    1    1    2    0    0  0.13823215667E+02  0.71342134998E+01  0.75967753969E+01  0.17402500368E+02  0.17770000000E+01 0.  1.
</event>
<event>
 6    1  0.1860328E-003  0.5018553E+03  0.7546771E-02  0.9395668E-01
        -11   -1    0    0    0    0  0.00000000000E+00  0.00000000000E+00  0.50000000000E+03  0.50000000000E+03  0.00000000000E+00 0. -1.
         11   -1    0    0    0    0 -0.00000000000E+00 -0.00000000000E+00 -0.50000000000E+03  0.50000000000E+03  0.00000000000E+00 0. -1.
        -11    1    1    2    0    0  0.16601901648E+01  0.10684776308E+02  0.41135507614E+03  0.41149716808E+03  0.00000000000E+00 0. -1.
         11    1    1    2    0    0 -0.45517857960E+01  0.59625752499E+01 -0.49808822358E+03  0.49814470741E+03  0.00000000000E+00 0. -1.
        -15    1    1    2    0    0  0.11675098907E+01 -0.53771640404E+01  0.45203409285E+01  0.73394947764E+01  0.17770000000E+01 0.  1.
         15    1    1    2    0    0  0.17240857405E+01 -0.11270187517E+02  0.82212806512E+02  0.83018629728E+02  0.17770000000E+01 0. -1.
</event>
<event>
 6    1  0.1860328E-003  0.5055059E+03  0.7546771E-02  0.9387573E-01
        -11   -1    0    0    0    0  0.00000000000E+00  0.00000000000E+00  0.50000000000E+03  0.50000000000E+03  0.00000000000E+00 0.  1.
         11   -1    0    0    0    0 -0.00000000000E+00 -0.00000000000E+00 -0.50000000000E+03  0.50000000000E+03  0.00000000000E+00 0.  1.
        -11    1    1    2    0    0  0.10331846887E+02  0.15891849737E+02  0.42706024790E+03  0.42748070516E+03  0.00000000000E+00 0.  1.
         11    1    1    2    0    0 -0.12611523932E+02  0.64797726270E+01 -0.49429075788E+03  0.49449407612E+03  0.00000000000E+00 0.  1.
        -15    1    1    2    0    0  0.14792145550E+02 -0.15617954924E+02  0.23046681262E+02  0.31575866293E+02  0.17770000000E+01 0. -1.
         15    1    1    2    0    0 -0.12512468506E+02 -0.67536674404E+01  0.44183828719E+02  0.46449352431E+02  0.17770000000E+01 0.  1.
</event>
<event>
 6    1  0.1860328E-003  0.5223353E+03  0.7546771E-02  0.9351174E-01
        -11   -1    0    0    0    0  0.00000000000E+00  0.00000000000E+00  0.50000000000E+03  0.50000000000E+03  0.00000000000E+00 0. -1.
         11   -1    0    0    0    0 -0.00000000000E+00 -0.00000000000E+00 -0.50000000000E+03  0.50000000000E+03  0.00000000000E+00 0. -1.
        -11    1    1    2    0    0  0.19543150506E+02  0.33242524269E+01  0.87622332635E+02  0.89836844124E+02  0.00000000000E+00 0. -1.
         11    1    1    2    0    0 -0.51024424415E+01 -0.85280074957E+01 -0.47756128318E+03  0.47766467425E+03  0.00000000000E+00 0. -1.
        -15    1    1    2    0    0  0.22706544980E+01 -0.55644068679E+01 -0.20570550022E+02  0.21504040384E+02  0.17770000000E+01 0.  1.
         15    1    1    2    0    0 -0.16711362562E+02  0.10768161937E+02  0.41050950057E+03  0.41099444125E+03  0.17770000000E+01 0. -1.
</event>
<event>
 6    1  0.1860328E-003  0.5009259E+03  0.7546771E-02  0.9397740E-01
        -11   -1    0    0    0    0  0.00000000000E+00  0.00000000000E+00  0.50000000000E+03  0.50000000000E+03  0.00000000000E+00 0.  1.
         11   -1    0    0    0    0 -0.00000000000E+00 -0.00000000000E+00 -0.50000000000E+03  0.50000000000E+03  0.00000000000E+00 0.  1.
        -11    1    1    2    0    0  0.37802242825E+00  0.60651312473E+01  0.36670992611E+03  0.36676027406E+03  0.00000000000E+00 0.  1.
         11    1    1    2    0    0 -0.27210447171E+01  0.79050738644E+01 -0.49900407927E+03  0.49907410813E+03  0.00000000000E+00 0.  1.
        -15    1    1    2    0    0  0.29288122807E+01 -0.86135397110E+01  0.24077045846E+02  0.25799861888E+02  0.17770000000E+01 0.  1.
         15    1    1    2    0    0 -0.58578999186E+00 -0.53566654007E+01  0.10821710731E+03  0.10836575593E+03  0.17770000000E+01 0. -1.
</event>
<event>
 6    1  0.1860328E-003  0.5005915E+03  0.7546771E-02  0.9398487E-01
        -11   -1    0    0    0    0  0.00000000000E+00  0.00000000000E+00  0.50000000000E+03  0.50000000000E+03  0.00000000000E+00 0.  1.
         11   -1    0    0    0    0 -0.00000000000E+00 -0.00000000000E+00 -0.50000000000E+03  0.50000000000E+03  0.00000000000E+00 0. -1.
        -11    1    1    2    0    0 -0.38562815971E+01  0.29497803615E+01  0.33576436982E+03  0.33579947015E+03  0.00000000000E+00 0.  1.
         11    1    1    2    0    0 -0.40655943058E+01 -0.58973671188E+01 -0.49935708554E+03  0.49940845695E+03  0.00000000000E+00 0. -1.
        -15    1    1    2    0    0 -0.39263160483E+01  0.12372768492E+01  0.13775634845E+02  0.14486982298E+02  0.17770000000E+01 0.  1.
         15    1    1    2    0    0  0.11848191951E+02  0.17103099081E+01  0.14981708087E+03  0.15030509060E+03  0.17770000000E+01 0.  1.
</event>
<event>
 6    1  0.1860328E-003  0.5026356E+03  0.7546771E-02  0.9393932E-01
        -11   -1    0    0    0    0  0.00000000000E+00  0.00000000000E+00  0.50000000000E+03  0.50000000000E+03  0.00000000000E+00 0. -1.
         11   -1    0    0    0    0 -0.00000000000E+00 -0.00000000000E+00 -0.50000000000E+03  0.50000000000E+03  0.00000000000E+00 0. -1.
        -11    1    1    2    0    0 -0.71581246249E+01 -0.89521469298E+01  0.49723231644E+03  0.49736440986E+03  0.00000000000E+00 0. -1.
         11    1    1    2    0    0 -0.12110782471E+02 -0.43008015317E+00 -0.43098738475E+03  0.43115772269E+03  0.00000000000E+00 0. -1.
        -15    1    1    2    0    0  0.37817125897E+01 -0.29671335518E+01 -0.53100183452E+01  0.73796514451E+01  0.17770000000E+01 0.  1.
         15    1    1    2    0    0  0.15487194506E+02  0.12349360635E+02 -0.60934913349E+02  0.64098216010E+02  0.17770000000E+01 0. -1.
</event>
<event>
 6    1  0.1860328E-003  0.5014651E+03  0.7546771E-02  0.9396537E-01
        -11   -1    0    0    0    0  0.00000000000E+00  0.00000000000E+00  0.50000000000E+03  0.50000000000E+03  0.00000000000E+00 0.  1.
         11   -1    0    0    0    0 -0.00000000000E+00 -0.00000000000E+00 -0.50000000000E+03  0.50000000000E+03  0.00000000000E+00 0.  1.
        -11    1    1    2    0    0 -0.97248357154E+01  0.65994098742E+01  0.18354030045E+03  0.18391619431E+03  0.00000000000E+00 0.  1.
         11    1    1    2    0    0  0.99111472489E+01 -0.93716836018E+01 -0.49834821222E+03  0.49853485326E+03  0.00000000000E+00 0.  1.
        -15    1    1    2    0    0  0.75386119392E+01 -0.81237981488E+01  0.27998772366E+03  0.28021261551E+03  0.17770000000E+01 0.  1.
         15    1    1    2    0    0 -0.77249234726E+01  0.10896071876E+02  0.34820188111E+02  0.37336336913E+02  0.17770000000E+01 0. -1.
</event>
<event>
 6    1  0.1860328E-003  0.5016125E+03  0.7546771E-02  0.9396209E-01
        -11   -1    0    0    0    0  0.00000000000E+00  0.00000000000E+00  0.50000000000E+03  0.50000000000E+03  0.00000000000E+00 0. -1.
         11   -1    0    0    0    0 -0.00000000000E+00 -0.00000000000E+00 -0.50000000000E+03  0.50000000000E+03  0.00000000000E+00 0.  1.
        -11    1    1    2    0    0 -0.48106800381E+01  0.27663291380E+01  0.38887745014E+03  0.38891704315E+03  0.00000000000E+00 0. -1.
         11    1    1    2    0    0  0.68955815066E+01 -0.22180927539E+00 -0.49833969637E+03  0.49838745090E+03  0.00000000000E+00 0.  1.
        -15    1    1    2    0    0 -0.75163204793E+01 -0.57841803474E+00  0.82981893793E+01  0.11351093205E+02  0.17770000000E+01 0. -1.
         15    1    1    2    0    0  0.54314190108E+01 -0.19661018279E+01  0.10116405684E+03  0.10134441275E+03  0.17770000000E+01 0. -1.
</event>
<event>
 6    1  0.1860328E-003  0.5051054E+03  0.7546771E-02  0.9388458E-01
        -11   -1    0    0    0    0  0.00000000000E+00  0.00000000000E+00  0.50000000000E+03  0.50000000000E+03  0.00000000000E+00 0. -1.
         11   -1    0    0    0    0 -0.00000000000E+00 -0.00000000000E+00 -0.50000000000E+03  0.50000000000E+03  0.00000000000E+00 0.  1.
        -11    1    1    2    0    0 -0.35948399080E+00  0.12313863205E+01  0.84999389051E+02  0.85009068222E+02  0.00000000000E+00 0. -1.
         11    1    1    2    0    0 -0.11146867127E+02 -0.18869807268E+02 -0.49440904515E+03  0.49489456069E+03  0.00000000000E+00 0.  1.
        -15    1    1    2    0    0 -0.35933609178E+02 -0.61122789552E+01  0.23406692816E+03  0.23689463652E+03  0.17770000000E+01 0. -1.
         15    1    1    2    0    0  0.47439960296E+02  0.23750699903E+02  0.17534272794E+03  0.18320173457E+03  0.17770000000E+01 0.  1.
</event>
<event>
 6    1  0.1860328E-003  0.5022870E+03  0.7546771E-02  0.9394707E-01
        -11   -1    0    0    0    0  0.00000000000E+00  0.00000000000E+00  0.50000000000E+03  0.50000000000E+03  0.00000000000E+00 0. -1.
         11   -1    0    0    0    0 -0.00000000000E+00 -0.00000000000E+00 -0.50000000000E+03  0.50000000000E+03  0.00000000000E+00 0.  1.
        -11    1    1    2    0    0 -0.77899982323E+00  0.88436163564E+01  0.38725603608E+03  0.38735778535E+03  0.00000000000E+00 0. -1.
         11    1    1    2    0    0 -0.24697259077E+01  0.85052741002E+01 -0.49763416566E+03  0.49771297157E+03  0.00000000000E+00 0.  1.
        -15    1    1    2    0    0  0.99778766649E+01 -0.15916065149E+02  0.10289143748E+03  0.10460728841E+03  0.17770000000E+01 0. -1.
         15    1    1    2    0    0 -0.67291509340E+01 -0.14328253080E+01  0.74866920982E+01  0.10321954671E+02  0.17770000000E+01 0.  1.
</event>
<event>
 6    1  0.1860328E-003  0.5101139E+03  0.7546771E-02  0.9377459E-01
        -11   -1    0    0    0    0  0.00000000000E+00  0.00000000000E+00  0.50000000000E+03  0.50000000000E+03  0.00000000000E+00 0.  1.
         11   -1    0    0    0    0 -0.00000000000E+00 -0.00000000000E+00 -0.50000000000E+03  0.50000000000E+03  0.00000000000E+00 0.  1.
        -11    1    1    2    0    0 -0.48207696400E+01 -0.96200551280E+01  0.48186298627E+03  0.48198311466E+03  0.00000000000E+00 0.  1.
         11    1    1    2    0    0  0.57746636935E+00  0.69357549051E+01 -0.48983666706E+03  0.48988610775E+03  0.00000000000E+00 0.  1.
        -15    1    1    2    0    0 -0.83088885635E+01 -0.19111359901E+01 -0.44636214223E+01  0.97863024241E+01  0.17770000000E+01 0.  1.
         15    1    1    2    0    0  0.12552191834E+02  0.45954362130E+01  0.12437302210E+02  0.18344475165E+02  0.17770000000E+01 0. -1.
</event>
<event>
 6    1  0.1860328E-003  0.5004539E+03  0.7546771E-02  0.9398795E-01
        -11   -1    0    0    0    0  0.00000000000E+00  0.00000000000E+00  0.50000000000E+03  0.50000000000E+03  0.00000000000E+00 0.  1.
         11   -1    0    0    0    0 -0.00000000000E+00 -0.00000000000E+00 -0.50000000000E+03  0.50000000000E+03  0.00000000000E+00 0. -1.
        -11    1    1    2    0    0  0.22678181943E+01  0.83453448169E+01  0.49947128417E+03  0.49954614550E+03  0.00000000000E+00 0.  1.
         11    1    1    2    0    0  0.67065455790E+00  0.68131779472E+01 -0.33921227664E+03  0.33928135492E+03  0.00000000000E+00 0. -1.
        -15    1    1    2    0    0 -0.14819832127E+01 -0.37286450518E+01 -0.73888391323E+02  0.74018586648E+02  0.17770000000E+01 0.  1.
         15    1    1    2    0    0 -0.14564895394E+01 -0.11429877712E+02 -0.86370616207E+02  0.87153912931E+02  0.17770000000E+01 0. -1.
</event>
<event>
 6    1  0.1860328E-003  0.4471381E+03  0.7546771E-02  0.9526540E-01
        -11   -1    0    0    0    0  0.00000000000E+00  0.00000000000E+00  0.50000000000E+03  0.50000000000E+03  0.00000000000E+00 0.  1.
         11   -1    0    0    0    0 -0.00000000000E+00 -0.00000000000E+00 -0.50000000000E+03  0.50000000000E+03  0.00000000000E+00 0.  1.
        -11    1    1    2    0    0  0.12508247010E+02 -0.34625108477E+02  0.44078422847E+03  0.44231899174E+03  0.00000000000E+00 0.  1.
         11    1    1    2    0    0  0.16351890096E+02 -0.17855148259E+02 -0.45340330791E+03  0.45404928175E+03  0.00000000000E+00 0.  1.
        -15    1    1    2    0    0 -0.28781914103E+02  0.45701255506E+02  0.45110763516E+02  0.70392769858E+02  0.17770000000E+01 0.  1.
         15    1    1    2    0    0 -0.78223003335E-01  0.67790012301E+01 -0.32491684075E+02  0.33238956656E+02  0.17770000000E+01 0. -1.
</event>
<event>
 6    1  0.1860328E-003  0.5053126E+03  0.7546771E-02  0.9388000E-01
        -11   -1    0    0    0    0  0.00000000000E+00  0.00000000000E+00  0.50000000000E+03  0.50000000000E+03  0.00000000000E+00 0.  1.
         11   -1    0    0    0    0 -0.00000000000E+00 -0.00000000000E+00 -0.50000000000E+03  0.50000000000E+03  0.00000000000E+00 0.  1.
        -11    1    1    2    0    0  0.13182360409E+02 -0.19681389551E+02  0.49411996491E+03  0.49468744824E+03  0.00000000000E+00 0.  1.
         11    1    1    2    0    0 -0.17329513114E+02  0.31818949822E+01 -0.38750859871E+03  0.38790894622E+03  0.00000000000E+00 0.  1.
        -15    1    1    2    0    0  0.18130415316E+01  0.20369611120E+02 -0.10972912461E+03  0.11163264170E+03  0.17770000000E+01 0. -1.
         15    1    1    2    0    0  0.23341111731E+01 -0.38701165513E+01  0.31177584104E+01  0.57709638358E+01  0.17770000000E+01 0.  1.
</event>
<event>
 6    1  0.1860328E-003  0.5084740E+03  0.7546771E-02  0.9381046E-01
        -11   -1    0    0    0    0  0.00000000000E+00  0.00000000000E+00  0.50000000000E+03  0.50000000000E+03  0.00000000000E+00 0.  1.
         11   -1    0    0    0    0 -0.00000000000E+00 -0.00000000000E+00 -0.50000000000E+03  0.50000000000E+03  0.00000000000E+00 0. -1.
        -11    1    1    2    0    0  0.78489362217E+01  0.27532999315E+01  0.44318057110E+03  0.44325862096E+03  0.00000000000E+00 0.  1.
         11    1    1    2    0    0  0.18629321985E+01 -0.30708169136E+02 -0.49056228656E+03  0.49152601066E+03  0.00000000000E+00 0. -1.
        -15    1    1    2    0    0 -0.41386807983E+01 -0.27503187833E+01  0.27875907849E+02  0.28371057428E+02  0.17770000000E+01 0.  1.
         15    1    1    2    0    0 -0.55731876220E+01  0.30705187988E+02  0.19505807611E+02  0.36844310947E+02  0.17770000000E+01 0. -1.
</event>
<event>
 6    1  0.1860328E-003  0.5131037E+03  0.7546771E-02  0.9370957E-01
        -11   -1    0    0    0    0  0.00000000000E+00  0.00000000000E+00  0.50000000000E+03  0.50000000000E+03  0.00000000000E+00 0. -1.
         11   -1    0    0    0    0 -0.00000000000E+00 -0.00000000000E+00 -0.50000000000E+03  0.50000000000E+03  0.00000000000E+00 0. -1.
        -11    1    1    2    0    0 -0.18241363575E+02  0.14010121498E+01  0.44278051919E+03  0.44315832199E+03  0.00000000000E+00 0. -1.
         11    1    1    2    0    0 -0.10271845647E+02 -0.26944258649E+00 -0.48678784971E+03  0.48689628674E+03  0.00000000000E+00 0. -1.
        -15    1    1    2    0    0  0.25139958752E+01  0.18682627903E+02  0.27211990179E+02  0.33151333293E+02  0.17770000000E+01 0.  1.
         15    1    1    2    0    0  0.25999213348E+02 -0.19814197466E+02  0.16795340348E+02  0.36794057976E+02  0.17770000000E+01 0. -1.
</event>
<event>
 6    1  0.1860328E-003  0.5079097E+03  0.7546771E-02  0.9382283E-01
        -11   -1    0    0    0    0  0.00000000000E+00  0.00000000000E+00  0.50000000000E+03  0.50000000000E+03  0.00000000000E+00 0. -1.
         11   -1    0    0    0    0 -0.00000000000E+00 -0.00000000000E+00 -0.50000000000E+03  0.50000000000E+03  0.00000000000E+00 0.  1.
        -11    1    1    2    0    0  0.11506838561E+02 -0.24659872807E+01  0.47943020382E+03  0.47957461230E+03  0.00000000000E+00 0. -1.
         11    1    1    2    0    0 -0.69027486832E+00  0.10880394579E+02 -0.49196954125E+03  0.49209032604E+03  0.00000000000E+00 0.  1.
        -15    1    1    2    0    0 -0.15839461705E+02 -0.13954752641E+01  0.10931262967E+02  0.19377464678E+02  0.17770000000E+01 0. -1.
         15    1    1    2    0    0  0.50228980117E+01 -0.70189320339E+01  0.16080744634E+01  0.89575969887E+01  0.17770000000E+01 0.  1.
</event>
<event>
 6    1  0.1860328E-003  0.5018834E+03  0.7546771E-02  0.9395605E-01
        -11   -1    0    0    0    0  0.00000000000E+00  0.00000000000E+00  0.50000000000E+03  0.50000000000E+03  0.00000000000E+00 0.  1.
         11   -1    0    0    0    0 -0.00000000000E+00 -0.00000000000E+00 -0.50000000000E+03  0.50000000000E+03  0.00000000000E+00 0. -1.
        -11    1    1    2    0    0 -0.65620978999E+00  0.53072471453E+01  0.38464979214E+03  0.38468696375E+03  0.00000000000E+00 0.  1.
         11    1    1    2    0    0  0.17770723301E+01 -0.72165754249E+01 -0.49806111191E+03  0.49811656080E+03  0.00000000000E+00 0. -1.
        -15    1    1    2    0    0 -0.14207057900E+02  0.45502577550E+01  0.75071776299E+02  0.76560268192E+02  0.17770000000E+01 0.  1.
         15    1    1    2    0    0  0.13086195360E+02 -0.26409294754E+01  0.38339543476E+02  0.40636207259E+02  0.17770000000E+01 0. -1.
</event>
<event>
 6    1  0.1860328E-003  0.2448500E+03  0.7546771E-02  0.1027433E+00
        -11   -1    0    0    0    0  0.00000000000E+00  0.00000000000E+00  0.50000000000E+03  0.50000000000E+03  0.00000000000E+00 0.  1.
         11   -1    0    0    0    0 -0.00000000000E+00 -0.00000000000E+00 -0.50000000000E+03  0.50000000000E+03  0.00000000000E+00 0.  1.
        -11    1    1    2    0    0 -0.18064703755E+02 -0.74340518445E+02  0.35275197071E+03  0.36095262714E+03  0.00000000000E+00 0.  1.
         11    1    1    2    0    0  0.91783515605E+01  0.15090455516E+02 -0.28323565342E+03  0.28378583360E+03  0.00000000000E+00 0.  1.
        -15    1    1    2    0    0  0.12674780590E+02  0.13855421529E+03  0.97785749130E+02  0.17006801904E+03  0.17770000000E+01 0.  1.
         15    1    1    2    0    0 -0.37884283962E+01 -0.79304152365E+02 -0.16730206642E+03  0.18519352021E+03  0.17770000000E+01 0. -1.
</event>
<event>
 6    1  0.1860328E-003  0.5009038E+03  0.7546771E-02  0.9397790E-01
        -11   -1    0    0    0    0  0.00000000000E+00  0.00000000000E+00  0.50000000000E+03  0.50000000000E+03  0.00000000000E+00 0. -1.
         11   -1    0    0    0    0 -0.00000000000E+00 -0.00000000000E+00 -0.50000000000E+03  0.50000000000E+03  0.00000000000E+00 0. -1.
        -11    1    1    2    0    0 -0.61074801583E+01 -0.30976936932E+01  0.45352368580E+03  0.45357538580E+03  0.00000000000E+00 0. -1.
         11    1    1    2    0    0 -0.54675507577E+00  0.72099812874E+01 -0.49904384235E+03  0.49909622254E+03  0.00000000000E+00 0. -1.
        -15    1    1    2    0    0  0.55109136126E+01 -0.49788253512E+01  0.16095199884E+02  0.17814939209E+02  0.17770000000E+01 0.  1.
         15    1    1    2    0    0  0.11433216215E+01  0.86653775694E+00  0.29424956661E+02  0.29513452450E+02  0.17770000000E+01 0. -1.
</event>
<event>
 6    1  0.1860328E-003  0.5087760E+03  0.7546771E-02  0.9380384E-01
        -11   -1    0    0    0    0  0.00000000000E+00  0.00000000000E+00  0.50000000000E+03  0.50000000000E+03  0.00000000000E+00 0. -1.
         11   -1    0    0    0    0 -0.00000000000E+00 -0.00000000000E+00 -0.50000000000E+03  0.50000000000E+03  0.00000000000E+00 0.  1.
        -11    1    1    2    0    0 -0.16109047903E+02 -0.22931070428E+02  0.49042397320E+03  0.49122399057E+03  0.00000000000E+00 0. -1.
         11    1    1    2    0    0 -0.33547742416E+01  0.27272572021E+01 -0.28529642164E+03  0.28532917944E+03  0.00000000000E+00 0.  1.
        -15    1    1    2    0    0  0.12027504385E+02  0.23928758168E+02 -0.10797529679E+02  0.28930791648E+02  0.17770000000E+01 0.  1.
         15    1    1    2    0    0  0.74363177592E+01 -0.37249449421E+01 -0.19433002189E+03  0.19451603834E+03  0.17770000000E+01 0. -1.
</event>
<event>
 6    1  0.1860328E-003  0.5044031E+03  0.7546771E-02  0.9390011E-01
        -11   -1    0    0    0    0  0.00000000000E+00  0.00000000000E+00  0.50000000000E+03  0.50000000000E+03  0.00000000000E+00 0. -1.
         11   -1    0    0    0    0 -0.00000000000E+00 -0.00000000000E+00 -0.50000000000E+03  0.50000000000E+03  0.00000000000E+00 0.  1.
        -11    1    1    2    0    0  0.24767235784E+02  0.23696983453E+02  0.49441003074E+03  0.49559685380E+03  0.00000000000E+00 0. -1.
         11    1    1    2    0    0 -0.41676555954E+01  0.10829848128E+02 -0.32974000193E+03  0.32994412229E+03  0.00000000000E+00 0.  1.
        -15    1    1    2    0    0  0.23684891908E+01 -0.18886131334E+01  0.13029205553E+01  0.37459219944E+01  0.17770000000E+01 0.  1.
         15    1    1    2    0    0 -0.22968069380E+02 -0.32638218448E+02 -0.16597294937E+03  0.17071310191E+03  0.17770000000E+01 0. -1.
</event>
<event>
 6    1  0.1860328E-003  0.5005925E+03  0.7546771E-02  0.9398485E-01
        -11   -1    0    0    0    0  0.00000000000E+00  0.00000000000E+00  0.50000000000E+03  0.50000000000E+03  0.00000000000E+00 0. -1.
         11   -1    0    0    0    0 -0.00000000000E+00 -0.00000000000E+00 -0.50000000000E+03  0.50000000000E+03  0.00000000000E+00 0.  1.
        -11    1    1    2    0    0 -0.79636282692E+01  0.81364134466E+01  0.49927775740E+03  0.49940754863E+03  0.00000000000E+00 0. -1.
         11    1    1    2    0    0  0.14536574256E+02 -0.94526791622E+00 -0.23385332234E+03  0.23430659805E+03  0.00000000000E+00 0.  1.
        -15    1    1    2    0    0  0.49871420710E+01 -0.10543194370E+00 -0.14336921657E+03  0.14346697422E+03  0.17770000000E+01 0.  1.
         15    1    1    2    0    0 -0.11560088058E+02 -0.70857135867E+01 -0.12205521849E+03  0.12281887910E+03  0.17770000000E+01 0.  1.
</event>
<event>
 6    1  0.1860328E-003  0.5004812E+03  0.7546771E-02  0.9398734E-01
        -11   -1    0    0    0    0  0.00000000000E+00  0.00000000000E+00  0.50000000000E+03  0.50000000000E+03  0.00000000000E+00 0.  1.
         11   -1    0    0    0    0 -0.00000000000E+00 -0.00000000000E+00 -0.50000000000E+03  0.50000000000E+03  0.00000000000E+00 0. -1.
        -11    1    1    2    0    0  0.12967685934E+02 -0.31589898511E+01  0.49934048803E+03  0.49951883156E+03  0.00000000000E+00 0.  1.
         11    1    1    2    0    0  0.13690907230E+00 -0.37828031866E+01 -0.20089278320E+03  0.20092844170E+03  0.00000000000E+00 0. -1.
        -15    1    1    2    0    0  0.75497410972E+00 -0.56736208930E+01 -0.11111405194E+03  0.11127555988E+03  0.17770000000E+01 0.  1.
         15    1    1    2    0    0 -0.13859569116E+02  0.12615413931E+02 -0.18733365289E+03  0.18827716686E+03  0.17770000000E+01 0. -1.
</event>
<event>
 6    1  0.1860328E-003  0.5009945E+03  0.7546771E-02  0.9397587E-01
        -11   -1    0    0    0    0  0.00000000000E+00  0.00000000000E+00  0.50000000000E+03  0.50000000000E+03  0.00000000000E+00 0. -1.
         11   -1    0    0    0    0 -0.00000000000E+00 -0.00000000000E+00 -0.50000000000E+03  0.50000000000E+03  0.00000000000E+00 0. -1.
        -11    1    1    2    0    0  0.44931892709E+01  0.68230948707E+01  0.37959896861E+03  0.37968687144E+03  0.00000000000E+00 0. -1.
         11    1    1    2    0    0 -0.30593728583E+01  0.11843646707E+02 -0.49885557680E+03  0.49900552926E+03  0.00000000000E+00 0. -1.
        -15    1    1    2    0    0 -0.35905063675E+01 -0.30125392513E+01  0.14296222506E+02  0.15149483016E+02  0.17770000000E+01 0. -1.
         15    1    1    2    0    0  0.21566899548E+01 -0.15654202326E+02  0.10496038568E+03  0.10615811628E+03  0.17770000000E+01 0.  1.
</event>
<event>
 6    1  0.1860328E-003  0.5045516E+03  0.7546771E-02  0.9389682E-01
        -11   -1    0    0    0    0  0.00000000000E+00  0.00000000000E+00  0.50000000000E+03  0.50000000000E+03  0.00000000000E+00 0.  1.
         11   -1    0    0    0    0 -0.00000000000E+00 -0.00000000000E+00 -0.50000000000E+03  0.50000000000E+03  0.00000000000E+00 0. -1.
        -11    1    1    2    0    0 -0.15033945511E+02  0.26784038606E+02  0.49449539857E+03  0.49544838626E+03  0.00000000000E+00 0.  1.
         11    1    1    2    0    0  0.38793096451E+01  0.58525387675E+01 -0.34302688742E+03  0.34309874197E+03  0.00000000000E+00 0. -1.
        -15    1    1    2    0    0  0.16544868848E+02 -0.34669121015E+02 -0.15051429718E+03  0.15534925820E+03  0.17770000000E+01 0. -1.
         15    1    1    2    0    0 -0.53902329823E+01  0.20325436423E+01 -0.95421397094E+00  0.61036135661E+01  0.17770000000E+01 0.  1.
</event>
<event>
 6    1  0.1860328E-003  0.5082070E+03  0.7546771E-02  0.9381631E-01
        -11   -1    0    0    0    0  0.00000000000E+00  0.00000000000E+00  0.50000000000E+03  0.50000000000E+03  0.00000000000E+00 0. -1.
         11   -1    0    0    0    0 -0.00000000000E+00 -0.00000000000E+00 -0.50000000000E+03  0.50000000000E+03  0.00000000000E+00 0. -1.
        -11    1    1    2    0    0  0.34394247413E+01  0.91493527384E+01  0.49169585388E+03  0.49179299815E+03  0.00000000000E+00 0. -1.
         11    1    1    2    0    0  0.11433147092E+02 -0.11282170136E+02 -0.37099272932E+03  0.37134028791E+03  0.00000000000E+00 0. -1.
        -15    1    1    2    0    0  0.48405919616E+01 -0.16541491192E+02 -0.50387046921E+01  0.18044349126E+02  0.17770000000E+01 0. -1.
         15    1    1    2    0    0 -0.19713163795E+02  0.18674308589E+02 -0.11566441987E+03  0.11882236482E+03  0.17770000000E+01 0.  1.
</event>
<event>
 6    1  0.1860328E-003  0.5024315E+03  0.7546771E-02  0.9394385E-01
        -11   -1    0    0    0    0  0.00000000000E+00  0.00000000000E+00  0.50000000000E+03  0.50000000000E+03  0.00000000000E+00 0. -1.
         11   -1    0    0    0    0 -0.00000000000E+00 -0.00000000000E+00 -0.50000000000E+03  0.50000000000E+03  0.00000000000E+00 0. -1.
        -11    1    1    2    0    0  0.19007109598E+02  0.33379131543E+01  0.49719411999E+03  0.49756849260E+03  0.00000000000E+00 0. -1.
         11    1    1    2    0    0 -0.61271046229E+01 -0.32380193643E+01 -0.87495430823E+02  0.87769451379E+02  0.00000000000E+00 0. -1.
        -15    1    1    2    0    0 -0.18701909546E+02 -0.27883913875E+02 -0.17093944360E+03  0.17421459520E+03  0.17770000000E+01 0. -1.
         15    1    1    2    0    0  0.58219045710E+01  0.27784020085E+02 -0.23875924556E+03  0.24044746082E+03  0.17770000000E+01 0.  1.
</event>
<event>
 6    1  0.1860328E-003  0.5056629E+03  0.7546771E-02  0.9387227E-01
        -11   -1    0    0    0    0  0.00000000000E+00  0.00000000000E+00  0.50000000000E+03  0.50000000000E+03  0.00000000000E+00 0. -1.
         11   -1    0    0    0    0 -0.00000000000E+00 -0.00000000000E+00 -0.50000000000E+03  0.50000000000E+03  0.00000000000E+00 0.  1.
        -11    1    1    2    0    0  0.14416373815E+02 -0.39472088180E-01  0.49412685292E+03  0.49433711187E+03  0.00000000000E+00 0. -1.
         11    1    1    2    0    0  0.12874567805E+02 -0.91512254308E+01 -0.45418736860E+03  0.45446195134E+03  0.00000000000E+00 0.  1.
        -15    1    1    2    0    0 -0.21451762724E+01 -0.26693324970E+01 -0.75489688788E+01  0.84777224154E+01  0.17770000000E+01 0. -1.
         15    1    1    2    0    0 -0.25145765347E+02  0.11860030016E+02 -0.32390515446E+02  0.42723214377E+02  0.17770000000E+01 0.  1.
</event>
<event>
 6    1  0.1860328E-003  0.5099211E+03  0.7546771E-02  0.9377880E-01
        -11   -1    0    0    0    0  0.00000000000E+00  0.00000000000E+00  0.50000000000E+03  0.50000000000E+03  0.00000000000E+00 0.  1.
         11   -1    0    0    0    0 -0.00000000000E+00 -0.00000000000E+00 -0.50000000000E+03  0.50000000000E+03  0.00000000000E+00 0. -1.
        -11    1    1    2    0    0  0.75191803491E+01  0.53687818671E+01  0.48999177014E+03  0.49007886783E+03  0.00000000000E+00 0.  1.
         11    1    1    2    0    0  0.10614161508E+02  0.12328595538E+02 -0.42697708863E+03  0.42728689298E+03  0.00000000000E+00 0. -1.
        -15    1    1    2    0    0  0.12178754318E+02 -0.34693492605E+01 -0.19041723293E+01  0.12928342597E+02  0.17770000000E+01 0. -1.
         15    1    1    2    0    0 -0.30312096176E+02 -0.14228028144E+02 -0.61110509176E+02  0.69705896595E+02  0.17770000000E+01 0.  1.
</event>
<event>
 6    1  0.1860328E-003  0.5000563E+03  0.7546771E-02  0.9399684E-01
        -11   -1    0    0    0    0  0.00000000000E+00  0.00000000000E+00  0.50000000000E+03  0.50000000000E+03  0.00000000000E+00 0.  1.
         11   -1    0    0    0    0 -0.00000000000E+00 -0.00000000000E+00 -0.50000000000E+03  0.50000000000E+03  0.00000000000E+00 0. -1.
        -11    1    1    2    0    0  0.10323261913E+01 -0.10090148561E+01  0.89095090173E+02  0.89106783700E+02  0.00000000000E+00 0.  1.
         11    1    1    2    0    0  0.52655302811E+01 -0.65948852614E+01 -0.49987242311E+03  0.49994365453E+03  0.00000000000E+00 0. -1.
        -15    1    1    2    0    0  0.43977372287E+00  0.23872919833E+01  0.14014293998E+03  0.14017522576E+03  0.17770000000E+01 0. -1.
         15    1    1    2    0    0 -0.67376301953E+01  0.52166081343E+01  0.27063439296E+03  0.27077433601E+03  0.17770000000E+01 0.  1.
</event>
<event>
 6    1  0.1860328E-003  0.5161128E+03  0.7546771E-02  0.9364461E-01
        -11   -1    0    0    0    0  0.00000000000E+00  0.00000000000E+00  0.50000000000E+03  0.50000000000E+03  0.00000000000E+00 0.  1.
         11   -1    0    0    0    0 -0.00000000000E+00 -0.00000000000E+00 -0.50000000000E+03  0.50000000000E+03  0.00000000000E+00 0. -1.
        -11    1    1    2    0    0 -0.67580922463E+01 -0.23708568255E+01  0.48383415919E+03  0.48388716285E+03  0.00000000000E+00 0.  1.
         11    1    1    2    0    0  0.71437409728E+01 -0.29136319684E+01 -0.45794187289E+03  0.45800685719E+03  0.00000000000E+00 0. -1.
        -15    1    1    2    0    0  0.22810323908E+02  0.75098677254E+01 -0.25011177623E+02  0.34719241425E+02  0.17770000000E+01 0. -1.
         15    1    1    2    0    0 -0.23195972635E+02 -0.22253789314E+01 -0.88110867266E+00  0.23386738536E+02  0.17770000000E+01 0.  1.
</event>
<event>
 6    1  0.1860328E-003  0.5070529E+03  0.7546771E-02  0.9384165E-01
        -11   -1    0    0    0    0  0.00000000000E+00  0.00000000000E+00  0.50000000000E+03  0.50000000000E+03  0.00000000000E+00 0.  1.
         11   -1    0    0    0    0 -0.00000000000E+00 -0.00000000000E+00 -0.50000000000E+03  0.50000000000E+03  0.00000000000E+00 0.  1.
        -11    1    1    2    0    0  0.67185727778E+01 -0.34984983348E+01  0.49288892421E+03  0.49294712731E+03  0.00000000000E+00 0.  1.
         11    1    1    2    0    0 -0.11061442050E+02  0.24838306734E+01 -0.45549227918E+03  0.45563334086E+03  0.00000000000E+00 0.  1.
        -15    1    1    2    0    0  0.19680570576E+02 -0.32140830258E+00 -0.19907326020E+02  0.28051515463E+02  0.17770000000E+01 0. -1.
         15    1    1    2    0    0 -0.15337701304E+02  0.13360759640E+01 -0.17489319015E+02  0.23368016366E+02  0.17770000000E+01 0.  1.
</event>
<event>
 6    1  0.1860328E-003  0.5141792E+03  0.7546771E-02  0.9368630E-01
        -11   -1    0    0    0    0  0.00000000000E+00  0.00000000000E+00  0.50000000000E+03  0.50000000000E+03  0.00000000000E+00 0.  1.
         11   -1    0    0    0    0 -0.00000000000E+00 -0.00000000000E+00 -0.50000000000E+03  0.50000000000E+03  0.00000000000E+00 0.  1.
        -11    1    1    2    0    0 -0.80787120128E+01 -0.29926701542E+01  0.45189753329E+03  0.45197964805E+03  0.00000000000E+00 0.  1.
         11    1    1    2    0    0 -0.81687328507E+01 -0.11585771115E+01 -0.48575077941E+03  0.48582084166E+03  0.00000000000E+00 0.  1.
        -15    1    1    2    0    0  0.25727926309E+02 -0.13887973235E+02  0.28908879096E+02  0.41154380232E+02  0.17770000000E+01 0. -1.
         15    1    1    2    0    0 -0.94804814452E+01  0.18039220501E+02  0.49443670211E+01  0.21045130053E+02  0.17770000000E+01 0.  1.
</event>
<event>
 6    1  0.1860328E-003  0.4091487E+03  0.7546771E-02  0.9629749E-01
        -11   -1    0    0    0    0  0.00000000000E+00  0.00000000000E+00  0.50000000000E+03  0.50000000000E+03  0.00000000000E+00 0.  1.
         11   -1    0    0    0    0 -0.00000000000E+00 -0.00000000000E+00 -0.50000000000E+03  0.50000000000E+03  0.00000000000E+00 0. -1.
        -11    1    1    2    0    0  0.33743794351E+02 -0.41432838999E+02  0.41958212488E+03  0.42297101949E+03  0.00000000000E+00 0.  1.
         11    1    1    2    0    0  0.51036422132E+01  0.50822274143E+01 -0.39729171234E+03  0.39735699427E+03  0.00000000000E+00 0. -1.
        -15    1    1    2    0    0  0.42095249035E+02 -0.24091299102E+02 -0.55114943680E+02  0.73438514620E+02  0.17770000000E+01 0.  1.
         15    1    1    2    0    0 -0.80942685600E+02  0.60441910687E+02  0.32824531137E+02  0.10623347162E+03  0.17770000000E+01 0. -1.
</event>
<event>
 6    1  0.1860328E-003  0.4918070E+03  0.7546771E-02  0.9418331E-01
        -11   -1    0    0    0    0  0.00000000000E+00  0.00000000000E+00  0.50000000000E+03  0.50000000000E+03  0.00000000000E+00 0. -1.
         11   -1    0    0    0    0 -0.00000000000E+00 -0.00000000000E+00 -0.50000000000E+03  0.50000000000E+03  0.00000000000E+00 0. -1.
        -11    1    1    2    0    0 -0.81595025945E+01  0.42881188067E+01  0.49160971688E+03  0.49169612483E+03  0.00000000000E+00 0. -1.
         11    1    1    2    0    0 -0.19992690937E+00 -0.69480357217E+01 -0.49190794930E+03  0.49195705682E+03  0.00000000000E+00 0. -1.
        -15    1    1    2    0    0  0.45223042851E+01 -0.32579834827E+01  0.49918997512E+01  0.76904151088E+01  0.17770000000E+01 0.  1.
         15    1    1    2    0    0  0.38371252188E+01  0.59179003977E+01 -0.46936673337E+01  0.86564032428E+01  0.17770000000E+01 0. -1.
</event>
<event>
 6    1  0.1860328E-003  0.5030947E+03  0.7546771E-02  0.9392912E-01
        -11   -1    0    0    0    0  0.00000000000E+00  0.00000000000E+00  0.50000000000E+03  0.50000000000E+03  0.00000000000E+00 0.  1.
         11   -1    0    0    0    0 -0.00000000000E+00 -0.00000000000E+00 -0.50000000000E+03  0.50000000000E+03  0.00000000000E+00 0. -1.
        -11    1    1    2    0    0  0.42296902745E+01  0.63606700477E+01  0.42633952238E+03  0.42640794639E+03  0.00000000000E+00 0.  1.
         11    1    1    2    0    0  0.76732334681E+01 -0.10828201660E+01 -0.49684490017E+03  0.49690532885E+03  0.00000000000E+00 0. -1.
        -15    1    1    2    0    0 -0.59242876412E+01 -0.50334305201E+01  0.69968834697E+02  0.70421787571E+02  0.17770000000E+01 0. -1.
         15    1    1    2    0    0 -0.59786361014E+01 -0.24441936157E+00  0.53654309770E+00  0.62649371867E+01  0.17770000000E+01 0. -1.
</event>
<event>
 6    1  0.1860328E-003  0.5019131E+03  0.7546771E-02  0.9395539E-01
        -11   -1    0    0    0    0  0.00000000000E+00  0.00000000000E+00  0.50000000000E+03  0.50000000000E+03  0.00000000000E+00 0.  1.
         11   -1    0    0    0    0 -0.00000000000E+00 -0.00000000000E+00 -0.50000000000E+03  0.50000000000E+03  0.00000000000E+00 0. -1.
        -11    1    1    2    0    0 -0.45956583225E+01  0.66080657038E+01  0.49802182653E+03  0.49808686623E+03  0.00000000000E+00 0.  1.
         11    1    1    2    0    0  0.12385730977E+02  0.72641530989E+01 -0.22893054969E+03  0.22938040639E+03  0.00000000000E+00 0. -1.
        -15    1    1    2    0    0 -0.50872758706E+01 -0.97987858712E+01 -0.26647638754E+03  0.26671092858E+03  0.17770000000E+01 0. -1.
         15    1    1    2    0    0 -0.27027967841E+01 -0.40734329315E+01 -0.26148893021E+01  0.58217988084E+01  0.17770000000E+01 0.  1.
</event>
<event>
 6    1  0.1860328E-003  0.5020769E+03  0.7546771E-02  0.9395174E-01
        -11   -1    0    0    0    0  0.00000000000E+00  0.00000000000E+00  0.50000000000E+03  0.50000000000E+03  0.00000000000E+00 0.  1.
         11   -1    0    0    0    0 -0.00000000000E+00 -0.00000000000E+00 -0.50000000000E+03  0.50000000000E+03  0.00000000000E+00 0.  1.
        -11    1    1    2    0    0 -0.38039676390E+01 -0.11865026326E+02  0.49776713566E+03  0.49792305667E+03  0.00000000000E+00 0.  1.
         11    1    1    2    0    0 -0.77971049863E+01 -0.52812530784E+01 -0.42788671020E+03  0.42799033078E+03  0.00000000000E+00 0.  1.
        -15    1    1    2    0    0  0.70035182834E+01  0.18252653663E+01 -0.33274377227E+02  0.34098720956E+02  0.17770000000E+01 0.  1.
         15    1    1    2    0    0  0.45975543419E+01  0.15321014038E+02 -0.36606048238E+02  0.39987891588E+02  0.17770000000E+01 0. -1.
</event>
<event>
 6    1  0.1860328E-003  0.4792255E+03  0.7546771E-02  0.9447533E-01
        -11   -1    0    0    0    0  0.00000000000E+00  0.00000000000E+00  0.50000000000E+03  0.50000000000E+03  0.00000000000E+00 0.  1.
         11   -1    0    0    0    0 -0.00000000000E+00 -0.00000000000E+00 -0.50000000000E+03  0.50000000000E+03  0.00000000000E+00 0. -1.
        -11    1    1    2    0    0  0.43478274007E+01  0.54023157678E+01  0.49763186595E+03  0.49768018107E+03  0.00000000000E+00 0.  1.
         11    1    1    2    0    0 -0.73433299601E+00 -0.86325624187E+00 -0.44901246244E+02  0.44915547092E+02  0.00000000000E+00 0. -1.
        -15    1    1    2    0    0 -0.24279972847E+02  0.20287519909E+02 -0.26738885295E+03  0.26926020307E+03  0.17770000000E+01 0.  1.
         15    1    1    2    0    0  0.20666478443E+02 -0.24826579435E+02 -0.18534176676E+03  0.18814406877E+03  0.17770000000E+01 0. -1.
</event>
<event>
 6    1  0.1860328E-003  0.5012488E+03  0.7546771E-02  0.9397020E-01
        -11   -1    0    0    0    0  0.00000000000E+00  0.00000000000E+00  0.50000000000E+03  0.50000000000E+03  0.00000000000E+00 0.  1.
         11   -1    0    0    0    0 -0.00000000000E+00 -0.00000000000E+00 -0.50000000000E+03  0.50000000000E+03  0.00000000000E+00 0.  1.
        -11    1    1    2    0    0  0.21037872701E+01  0.14049521545E+01  0.16222605808E+03  0.16224578186E+03  0.00000000000E+00 0.  1.
         11    1    1    2    0    0  0.98147712226E+01 -0.37674386603E+02 -0.49722938684E+03  0.49875119275E+03  0.00000000000E+00 0.  1.
        -15    1    1    2    0    0  0.38315001988E+00 -0.61531095403E+01  0.74481435019E+02  0.74757270232E+02  0.17770000000E+01 0. -1.
         15    1    1    2    0    0 -0.12301708513E+02  0.42422543989E+02  0.26052189374E+03  0.26424575515E+03  0.17770000000E+01 0.  1.
</event>
<event>
 6    1  0.1860328E-003  0.5045019E+03  0.7546771E-02  0.9389792E-01
        -11   -1    0    0    0    0  0.00000000000E+00  0.00000000000E+00  0.50000000000E+03  0.50000000000E+03  0.00000000000E+00 0.  1.
         11   -1    0    0    0    0 -0.00000000000E+00 -0.00000000000E+00 -0.50000000000E+03  0.50000000000E+03  0.00000000000E+00 0. -1.
        -11    1    1    2    0    0 -0.55275796108E+01  0.13784179557E+02  0.49527546289E+03  0.49549807455E+03  0.00000000000E+00 0.  1.
         11    1    1    2    0    0  0.19950039350E+02 -0.71809363451E+01 -0.38236842817E+03  0.38295585226E+03  0.00000000000E+00 0. -1.
        -15    1    1    2    0    0 -0.75051586427E+01 -0.22938228049E+02 -0.85434386887E+02  0.88795731339E+02  0.17770000000E+01 0. -1.
         15    1    1    2    0    0 -0.69173010965E+01  0.16334984837E+02 -0.27472647829E+02  0.32750341858E+02  0.17770000000E+01 0.  1.
</event>
<event>
 6    1  0.1860328E-003  0.5206279E+03  0.7546771E-02  0.9354800E-01
        -11   -1    0    0    0    0  0.00000000000E+00  0.00000000000E+00  0.50000000000E+03  0.50000000000E+03  0.00000000000E+00 0.  1.
         11   -1    0    0    0    0 -0.00000000000E+00 -0.00000000000E+00 -0.50000000000E+03  0.50000000000E+03  0.00000000000E+00 0. -1.
        -11    1    1    2    0    0  0.38734256106E+01  0.11479012745E+02  0.47921899199E+03  0.47937210332E+03  0.00000000000E+00 0.  1.
         11    1    1    2    0    0  0.16508882686E+01 -0.11903810777E+02 -0.43205679772E+03  0.43222390332E+03  0.00000000000E+00 0. -1.
        -15    1    1    2    0    0 -0.56564685413E+01 -0.79659583564E+01  0.19132833435E+02  0.21556325594E+02  0.17770000000E+01 0.  1.
         15    1    1    2    0    0  0.13215466205E+00  0.83907563890E+01 -0.66295027704E+02  0.66847667760E+02  0.17770000000E+01 0. -1.
</event>
<event>
 6    1  0.1860328E-003  0.5130846E+03  0.7546771E-02  0.9370999E-01
        -11   -1    0    0    0    0  0.00000000000E+00  0.00000000000E+00  0.50000000000E+03  0.50000000000E+03  0.00000000000E+00 0. -1.
         11   -1    0    0    0    0 -0.00000000000E+00 -0.00000000000E+00 -0.50000000000E+03  0.50000000000E+03  0.00000000000E+00 0.  1.
        -11    1    1    2    0    0 -0.72609833225E+01  0.67125110723E+01  0.48681494781E+03  0.48691536544E+03  0.00000000000E+00 0. -1.
         11    1    1    2    0    0  0.76046264348E+00 -0.28090698484E+02 -0.45366544383E+03  0.45453492777E+03  0.00000000000E+00 0.  1.
        -15    1    1    2    0    0  0.17921092509E+01 -0.15877277787E+01  0.94411134222E+01  0.99007518259E+01  0.17770000000E+01 0.  1.
         15    1    1    2    0    0  0.47084114281E+01  0.22965915191E+02 -0.42590617410E+02  0.48648954964E+02  0.17770000000E+01 0. -1.
</event>
<event>
 6    1  0.1860328E-003  0.5041123E+03  0.7546771E-02  0.9390655E-01
        -11   -1    0    0    0    0  0.00000000000E+00  0.00000000000E+00  0.50000000000E+03  0.50000000000E+03  0.00000000000E+00 0. -1.
         11   -1    0    0    0    0 -0.00000000000E+00 -0.00000000000E+00 -0.50000000000E+03  0.50000000000E+03  0.00000000000E+00 0.  1.
        -11    1    1    2    0    0 -0.37505002615E+01 -0.77530531615E+01  0.49581287812E+03  0.49588767498E+03  0.00000000000E+00 0. -1.
         11    1    1    2    0    0  0.58043618902E+01 -0.94904292567E+01 -0.46422694041E+03  0.46436021693E+03  0.00000000000E+00 0.  1.
        -15    1    1    2    0    0 -0.26303172803E+01 -0.31353730801E-01 -0.16310844117E+02  0.16616886497E+02  0.17770000000E+01 0.  1.
         15    1    1    2    0    0  0.57645565157E+00  0.17274836149E+02 -0.15275093593E+02  0.23135221598E+02  0.17770000000E+01 0. -1.
</event>
<event>
 6    1  0.1860328E-003  0.5007457E+03  0.7546771E-02  0.9398143E-01
        -11   -1    0    0    0    0  0.00000000000E+00  0.00000000000E+00  0.50000000000E+03  0.50000000000E+03  0.00000000000E+00 0.  1.
         11   -1    0    0    0    0 -0.00000000000E+00 -0.00000000000E+00 -0.50000000000E+03  0.50000000000E+03  0.00000000000E+00 0. -1.
        -11    1    1    2    0    0  0.81994650675E+01  0.42825790471E+00  0.49918675520E+03  0.49925427509E+03  0.00000000000E+00 0.  1.
         11    1    1    2    0    0  0.35468173131E+01 -0.68477761909E+01 -0.39268747339E+03  0.39276319037E+03  0.00000000000E+00 0. -1.
        -15    1    1    2    0    0 -0.45335108960E+01 -0.29927647443E+01 -0.28557572862E+02  0.29123908711E+02  0.17770000000E+01 0. -1.
         15    1    1    2    0    0 -0.72127714846E+01  0.94122830305E+01 -0.77941708949E+02  0.78858625826E+02  0.17770000000E+01 0.  1.
</event>
<event>
 6    1  0.1860328E-003  0.5094424E+03  0.7546771E-02  0.9378926E-01
        -11   -1    0    0    0    0  0.00000000000E+00  0.00000000000E+00  0.50000000000E+03  0.50000000000E+03  0.00000000000E+00 0.  1.
         11   -1    0    0    0    0 -0.00000000000E+00 -0.00000000000E+00 -0.50000000000E+03  0.50000000000E+03  0.00000000000E+00 0. -1.
        -11    1    1    2    0    0  0.72545981661E+01  0.33838936764E+01  0.49049228049E+03  0.49055759820E+03  0.00000000000E+00 0.  1.
         11    1    1    2    0    0 -0.12371518372E+02 -0.97773149960E+01 -0.47925463877E+03  0.47951398221E+03  0.00000000000E+00 0. -1.
        -15    1    1    2    0    0 -0.82987392161E+01  0.77243489617E+01  0.11507437306E+01  0.11533281389E+02  0.17770000000E+01 0. -1.
         15    1    1    2    0    0  0.13415659422E+02 -0.13309276421E+01 -0.12388385454E+02  0.18395138196E+02  0.17770000000E+01 0.  1.
</event>
<event>
 6    1  0.1860328E-003  0.5033091E+03  0.7546771E-02  0.9392436E-01
        -11   -1    0    0    0    0  0.00000000000E+00  0.00000000000E+00  0.50000000000E+03  0.50000000000E+03  0.00000000000E+00 0. -1.
         11   -1    0    0    0    0 -0.00000000000E+00 -0.00000000000E+00 -0.50000000000E+03  0.50000000000E+03  0.00000000000E+00 0. -1.
        -11    1    1    2    0    0 -0.70046325667E+01  0.72536201757E+01  0.47034108063E+03  0.47044915986E+03  0.00000000000E+00 0. -1.
         11    1    1    2    0    0  0.23116093487E+01  0.74637352516E+01 -0.49662945066E+03  0.49669091208E+03  0.00000000000E+00 0. -1.
        -15    1    1    2    0    0  0.80853350869E+01 -0.11255940499E+02  0.15303028336E+02  0.20722192096E+02  0.17770000000E+01 0.  1.
         15    1    1    2    0    0 -0.33923118689E+01 -0.34614149286E+01  0.10985341698E+02  0.12137735965E+02  0.17770000000E+01 0. -1.
</event>
<event>
 6    1  0.1860328E-003  0.5010786E+03  0.7546771E-02  0.9397400E-01
        -11   -1    0    0    0    0  0.00000000000E+00  0.00000000000E+00  0.50000000000E+03  0.50000000000E+03  0.00000000000E+00 0. -1.
         11   -1    0    0    0    0 -0.00000000000E+00 -0.00000000000E+00 -0.50000000000E+03  0.50000000000E+03  0.00000000000E+00 0.  1.
        -11    1    1    2    0    0 -0.18352434911E+01  0.68883781516E+01  0.49887050411E+03  0.49892143444E+03  0.00000000000E+00 0. -1.
         11    1    1    2    0    0  0.91184777221E+01 -0.68642827839E+01 -0.45551677526E+03  0.45565973879E+03  0.00000000000E+00 0.  1.
        -15    1    1    2    0    0 -0.82890004417E+01  0.36952665948E+01 -0.31454209498E+02  0.32785477695E+02  0.17770000000E+01 0.  1.
         15    1    1    2    0    0  0.10057662107E+01 -0.37193619624E+01 -0.11899519349E+02  0.12633349073E+02  0.17770000000E+01 0. -1.
</event>
<event>
 6    1  0.1860328E-003  0.5009264E+03  0.7546771E-02  0.9397739E-01
        -11   -1    0    0    0    0  0.00000000000E+00  0.00000000000E+00  0.50000000000E+03  0.50000000000E+03  0.00000000000E+00 0. -1.
         11   -1    0    0    0    0 -0.00000000000E+00 -0.00000000000E+00 -0.50000000000E+03  0.50000000000E+03  0.00000000000E+00 0.  1.
        -11    1    1    2    0    0 -0.87071718465E+01 -0.31128325377E+01  0.49898794564E+03  0.49907361627E+03  0.00000000000E+00 0. -1.
         11    1    1    2    0    0 -0.72036400698E+01  0.56238966773E+01 -0.34743674993E+03  0.34755692461E+03  0.00000000000E+00 0.  1.
        -15    1    1    2    0    0  0.11840209337E+02 -0.58706500224E+00 -0.14332082406E+03  0.14382124858E+03  0.17770000000E+01 0. -1.
         15    1    1    2    0    0  0.40706025791E+01 -0.19239991373E+01 -0.82303716434E+01  0.95482105353E+01  0.17770000000E+01 0.  1.
</event>
<event>
 6    1  0.1860328E-003  0.5006043E+03  0.7546771E-02  0.9398459E-01
        -11   -1    0    0    0    0  0.00000000000E+00  0.00000000000E+00  0.50000000000E+03  0.50000000000E+03  0.00000000000E+00 0. -1.
         11   -1    0    0    0    0 -0.00000000000E+00 -0.00000000000E+00 -0.50000000000E+03  0.50000000000E+03  0.00000000000E+00 0. -1.
        -11    1    1    2    0    0  0.49050241621E+01 -0.13196820315E+02  0.49919725359E+03  0.49939574820E+03  0.00000000000E+00 0. -1.
         11    1    1    2    0    0 -0.84048906018E+00 -0.11968875341E+01 -0.56706119219E+02  0.56724976143E+02  0.00000000000E+00 0. -1.
        -15    1    1    2    0    0 -0.36509416734E+00  0.10740165120E+02 -0.43104484934E+03  0.43118244898E+03  0.17770000000E+01 0. -1.
         15    1    1    2    0    0 -0.36994409346E+01  0.36535427287E+01 -0.11446285032E+02  0.12696826680E+02  0.17770000000E+01 0.  1.
</event>
<event>
 6    1  0.1860328E-003  0.4630174E+03  0.7546771E-02  0.9486589E-01
        -11   -1    0    0    0    0  0.00000000000E+00  0.00000000000E+00  0.50000000000E+03  0.50000000000E+03  0.00000000000E+00 0. -1.
         11   -1    0    0    0    0 -0.00000000000E+00 -0.00000000000E+00 -0.50000000000E+03  0.50000000000E+03  0.00000000000E+00 0. -1.
        -11    1    1    2    0    0 -0.30239427090E+01 -0.17874980356E+02  0.45797338743E+03  0.45833206603E+03  0.00000000000E+00 0. -1.
         11    1    1    2    0    0 -0.10409006160E+02 -0.11931644491E+02 -0.46806685454E+03  0.46833459393E+03  0.00000000000E+00 0. -1.
        -15    1    1    2    0    0  0.37379465934E+01  0.19354052387E+02  0.37492704606E+02  0.42395898578E+02  0.17770000000E+01 0.  1.
         15    1    1    2    0    0  0.96950022759E+01  0.10452572460E+02 -0.27399237495E+02  0.30937441466E+02  0.17770000000E+01 0.  1.
</event>
<event>
 6    1  0.1860328E-003  0.5225816E+03  0.7546771E-02  0.9350653E-01
        -11   -1    0    0    0    0  0.00000000000E+00  0.00000000000E+00  0.50000000000E+03  0.50000000000E+03  0.00000000000E+00 0.  1.
         11   -1    0    0    0    0 -0.00000000000E+00 -0.00000000000E+00 -0.50000000000E+03  0.50000000000E+03  0.00000000000E+00 0.  1.
        -11    1    1    2    0    0 -0.21606777011E+01  0.74080916609E+01  0.45257828846E+03  0.45264407158E+03  0.00000000000E+00 0.  1.
         11    1    1    2    0    0 -0.10340030969E+02 -0.14807251865E+02 -0.47707670386E+03  0.47741842478E+03  0.00000000000E+00 0.  1.
        -15    1    1    2    0    0 -0.10098957096E+01 -0.20799804467E+00  0.44511362810E+02  0.44558751113E+02  0.17770000000E+01 0.  1.
         15    1    1    2    0    0  0.13510604379E+02  0.76071582484E+01 -0.20012947406E+02  0.25378752534E+02  0.17770000000E+01 0. -1.
</event>
<event>
 6    1  0.1860328E-003  0.5009741E+03  0.7546771E-02  0.9397633E-01
        -11   -1    0    0    0    0  0.00000000000E+00  0.00000000000E+00  0.50000000000E+03  0.50000000000E+03  0.00000000000E+00 0.  1.
         11   -1    0    0    0    0 -0.00000000000E+00 -0.00000000000E+00 -0.50000000000E+03  0.50000000000E+03  0.00000000000E+00 0. -1.
        -11    1    1    2    0    0  0.67730800776E+01  0.28924306222E+01  0.49897159920E+03  0.49902594881E+03  0.00000000000E+00 0.  1.
         11    1    1    2    0    0  0.19916173813E+01 -0.48784999278E+01 -0.15284809359E+03  0.15293889635E+03  0.00000000000E+00 0. -1.
        -15    1    1    2    0    0 -0.15009858859E+01 -0.15057962378E+02 -0.22219430007E+03  0.22271609709E+03  0.17770000000E+01 0. -1.
         15    1    1    2    0    0 -0.72637115731E+01  0.17044031684E+02 -0.12392920554E+03  0.12531905776E+03  0.17770000000E+01 0.  1.
</event>
<event>
 6    1  0.1860328E-003  0.5005379E+03  0.7546771E-02  0.9398607E-01
        -11   -1    0    0    0    0  0.00000000000E+00  0.00000000000E+00  0.50000000000E+03  0.50000000000E+03  0.00000000000E+00 0. -1.
         11   -1    0    0    0    0 -0.00000000000E+00 -0.00000000000E+00 -0.50000000000E+03  0.50000000000E+03  0.00000000000E+00 0. -1.
        -11    1    1    2    0    0  0.96761872154E+01  0.29922618179E+01  0.49935939855E+03  0.49946210182E+03  0.00000000000E+00 0. -1.
         11    1    1    2    0    0 -0.26262601229E+01  0.47155069423E+01 -0.36909894495E+03  0.36913840820E+03  0.00000000000E+00 0. -1.
        -15    1    1    2    0    0 -0.76482166695E+00 -0.49195244708E+01 -0.10572088056E+03  0.10585295928E+03  0.17770000000E+01 0. -1.
         15    1    1    2    0    0 -0.62851054256E+01 -0.27882442893E+01 -0.24539573047E+02  0.25546530699E+02  0.17770000000E+01 0.  1.
</event>
<event>
 6    1  0.1860328E-003  0.5026195E+03  0.7546771E-02  0.9393967E-01
        -11   -1    0    0    0    0  0.00000000000E+00  0.00000000000E+00  0.50000000000E+03  0.50000000000E+03  0.00000000000E+00 0. -1.
         11   -1    0    0    0    0 -0.00000000000E+00 -0.00000000000E+00 -0.50000000000E+03  0.50000000000E+03  0.00000000000E+00 0.  1.
        -11    1    1    2    0    0  0.70933082660E+01 -0.26967442919E+01  0.41962654148E+03  0.41969515338E+03  0.00000000000E+00 0. -1.
         11    1    1    2    0    0 -0.86591074809E+01  0.19442244677E+02 -0.49692492777E+03  0.49738050310E+03  0.00000000000E+00 0.  1.
        -15    1    1    2    0    0 -0.59286776507E+01 -0.14868123397E+01  0.52029799129E+02  0.52417721775E+02  0.17770000000E+01 0.  1.
         15    1    1    2    0    0  0.74944768656E+01 -0.15258688045E+02  0.25268587161E+02  0.30506621748E+02  0.17770000000E+01 0. -1.
</event>
<event>
 6    1  0.1860328E-003  0.5024741E+03  0.7546771E-02  0.9394291E-01
        -11   -1    0    0    0    0  0.00000000000E+00  0.00000000000E+00  0.50000000000E+03  0.50000000000E+03  0.00000000000E+00 0. -1.
         11   -1    0    0    0    0 -0.00000000000E+00 -0.00000000000E+00 -0.50000000000E+03  0.50000000000E+03  0.00000000000E+00 0.  1.
        -11    1    1    2    0    0  0.14591298417E+01 -0.33604857221E+01  0.15965712181E+03  0.15969914987E+03  0.00000000000E+00 0. -1.
         11    1    1    2    0    0 -0.15236971738E+02 -0.54034396854E+01 -0.49726317271E+03  0.49752590425E+03  0.00000000000E+00 0.  1.
        -15    1    1    2    0    0  0.76907466799E+01 -0.93344384879E+01  0.13938008227E+02  0.18539286089E+02  0.17770000000E+01 0.  1.
         15    1    1    2    0    0  0.60870952165E+01  0.18098363895E+02  0.32366804267E+03  0.32423565979E+03  0.17770000000E+01 0. -1.
</event>
<event>
 6    1  0.1860328E-003  0.5005122E+03  0.7546771E-02  0.9398664E-01
        -11   -1    0    0    0    0  0.00000000000E+00  0.00000000000E+00  0.50000000000E+03  0.50000000000E+03  0.00000000000E+00 0.  1.
         11   -1    0    0    0    0 -0.00000000000E+00 -0.00000000000E+00 -0.50000000000E+03  0.50000000000E+03  0.00000000000E+00 0.  1.
        -11    1    1    2    0    0 -0.12978700109E+02  0.20897378439E+02  0.49888166802E+03  0.49948780342E+03  0.00000000000E+00 0.  1.
         11    1    1    2    0    0  0.81331574947E+00 -0.39250245720E+01 -0.26870609008E+03  0.26873598595E+03  0.00000000000E+00 0.  1.
        -15    1    1    2    0    0 -0.40887992208E+01 -0.18584541616E+01 -0.49010756598E+02  0.49248189025E+02  0.17770000000E+01 0.  1.
         15    1    1    2    0    0  0.16254183580E+02 -0.15113899706E+02 -0.18116482135E+03  0.18252802160E+03  0.17770000000E+01 0. -1.
</event>
<event>
 6    1  0.1860328E-003  0.5209978E+03  0.7546771E-02  0.9354014E-01
        -11   -1    0    0    0    0  0.00000000000E+00  0.00000000000E+00  0.50000000000E+03  0.50000000000E+03  0.00000000000E+00 0. -1.
         11   -1    0    0    0    0 -0.00000000000E+00 -0.00000000000E+00 -0.50000000000E+03  0.50000000000E+03  0.00000000000E+00 0.  1.
        -11    1    1    2    0    0  0.31598358238E+01 -0.59862735345E+01  0.47895441823E+03  0.47900224924E+03  0.00000000000E+00 0. -1.
         11    1    1    2    0    0  0.28024311712E+01 -0.71360106821E+01 -0.38002086399E+03  0.38009818907E+03  0.00000000000E+00 0.  1.
        -15    1    1    2    0    0 -0.32641146035E+02 -0.74278526461E+01  0.28802095383E+01  0.33646259010E+02  0.17770000000E+01 0. -1.
         15    1    1    2    0    0  0.26678879040E+02  0.20550136863E+02 -0.10181376378E+03  0.10725330268E+03  0.17770000000E+01 0.  1.
</event>
<event>
 6    1  0.1860328E-003  0.5087876E+03  0.7546771E-02  0.9380359E-01
        -11   -1    0    0    0    0  0.00000000000E+00  0.00000000000E+00  0.50000000000E+03  0.50000000000E+03  0.00000000000E+00 0. -1.
         11   -1    0    0    0    0 -0.00000000000E+00 -0.00000000000E+00 -0.50000000000E+03  0.50000000000E+03  0.00000000000E+00 0. -1.
        -11    1    1    2    0    0  0.84365248627E+01 -0.61956996343E+01  0.48283852219E+03  0.48295196465E+03  0.00000000000E+00 0. -1.
         11    1    1    2    0    0 -0.10513542858E+02 -0.56605357810E+00 -0.49109952976E+03  0.49121238088E+03  0.00000000000E+00 0. -1.
        -15    1    1    2    0    0 -0.63013420118E+01  0.77306017777E+00 -0.54794398564E+01  0.85724280883E+01  0.17770000000E+01 0. -1.
         15    1    1    2    0    0  0.83783600067E+01  0.59886930346E+01  0.13740447424E+02  0.17263226381E+02  0.17770000000E+01 0.  1.
</event>
<event>
 6    1  0.1860328E-003  0.5007181E+03  0.7546771E-02  0.9398204E-01
        -11   -1    0    0    0    0  0.00000000000E+00  0.00000000000E+00  0.50000000000E+03  0.50000000000E+03  0.00000000000E+00 0. -1.
         11   -1    0    0    0    0 -0.00000000000E+00 -0.00000000000E+00 -0.50000000000E+03  0.50000000000E+03  0.00000000000E+00 0.  1.
        -11    1    1    2    0    0  0.78031135828E+01 -0.92820450331E+00  0.49922003396E+03  0.49928187675E+03  0.00000000000E+00 0. -1.
         11    1    1    2    0    0 -0.25901759504E+01  0.50136232893E+01 -0.18560477364E+03  0.18569054210E+03  0.00000000000E+00 0.  1.
        -15    1    1    2    0    0 -0.10292228881E+02 -0.35764707424E+01 -0.44191806808E+02  0.45549913680E+02  0.17770000000E+01 0. -1.
         15    1    1    2    0    0  0.50792912491E+01 -0.50894804365E+00 -0.26942345352E+03  0.26947766747E+03  0.17770000000E+01 0.  1.
</event>
<event>
 6    1  0.1860328E-003  0.4900128E+03  0.7546771E-02  0.9422438E-01
        -11   -1    0    0    0    0  0.00000000000E+00  0.00000000000E+00  0.50000000000E+03  0.50000000000E+03  0.00000000000E+00 0. -1.
         11   -1    0    0    0    0 -0.00000000000E+00 -0.00000000000E+00 -0.50000000000E+03  0.50000000000E+03  0.00000000000E+00 0. -1.
        -11    1    1    2    0    0 -0.59249601670E+01 -0.43615861185E+01  0.49033305863E+03  0.49038825126E+03  0.00000000000E+00 0. -1.
         11    1    1    2    0    0 -0.80953183889E+01 -0.41056575585E+01 -0.48969028638E+03  0.48977440437E+03  0.00000000000E+00 0. -1.
        -15    1    1    2    0    0  0.10871590288E+02  0.78771447642E+01 -0.47336528791E+01  0.14345943106E+02  0.17770000000E+01 0. -1.
         15    1    1    2    0    0  0.31486882683E+01  0.59009891280E+00  0.40908806300E+01  0.54914012662E+01  0.17770000000E+01 0.  1.
</event>
<event>
 6    1  0.1860328E-003  0.5053608E+03  0.7546771E-02  0.9387894E-01
        -11   -1    0    0    0    0  0.00000000000E+00  0.00000000000E+00  0.50000000000E+03  0.50000000000E+03  0.00000000000E+00 0.  1.
         11   -1    0    0    0    0 -0.00000000000E+00 -0.00000000000E+00 -0.50000000000E+03  0.50000000000E+03  0.00000000000E+00 0.  1.
        -11    1    1    2    0    0 -0.98715153856E+01  0.28517915713E+01  0.49453248516E+03  0.49463922045E+03  0.00000000000E+00 0.  1.
         11    1    1    2    0    0 -0.15137975711E+02  0.72334465343E+01 -0.41547833006E+03  0.41581693545E+03  0.00000000000E+00 0.  1.
        -15    1    1    2    0    0  0.17811386664E+02 -0.11688931300E+02 -0.79120551324E+02  0.81957891510E+02  0.17770000000E+01 0.  1.
         15    1    1    2    0    0  0.71981044323E+01  0.16036931944E+01  0.66396228758E-01  0.75859525928E+01  0.17770000000E+01 0. -1.
</event>
<event>
 6    1  0.1860328E-003  0.5072088E+03  0.7546771E-02  0.9383822E-01
        -11   -1    0    0    0    0  0.00000000000E+00  0.00000000000E+00  0.50000000000E+03  0.50000000000E+03  0.00000000000E+00 0. -1.
         11   -1    0    0    0    0 -0.00000000000E+00 -0.00000000000E+00 -0.50000000000E+03  0.50000000000E+03  0.00000000000E+00 0.  1.
        -11    1    1    2    0    0  0.63595436109E+01  0.40435141729E+01  0.45704113409E+03  0.45710326191E+03  0.00000000000E+00 0. -1.
         11    1    1    2    0    0 -0.20011223083E+02 -0.90221466605E+01 -0.49230209897E+03  0.49279123859E+03  0.00000000000E+00 0.  1.
        -15    1    1    2    0    0  0.21516889333E+02  0.68567905450E+01  0.12472128710E+02  0.25859308319E+02  0.17770000000E+01 0.  1.
         15    1    1    2    0    0 -0.78652098617E+01 -0.18781580574E+01  0.22788836168E+02  0.24246191181E+02  0.17770000000E+01 0. -1.
</event>
<event>
 6    1  0.1860328E-003  0.5036039E+03  0.7546771E-02  0.9391782E-01
        -11   -1    0    0    0    0  0.00000000000E+00  0.00000000000E+00  0.50000000000E+03  0.50000000000E+03  0.00000000000E+00 0.  1.
         11   -1    0    0    0    0 -0.00000000000E+00 -0.00000000000E+00 -0.50000000000E+03  0.50000000000E+03  0.00000000000E+00 0. -1.
        -11    1    1    2    0    0  0.10465634092E+02  0.38098920824E+01  0.49627111811E+03  0.49639607920E+03  0.00000000000E+00 0.  1.
         11    1    1    2    0    0 -0.44209481484E+01  0.19689988259E+01 -0.30278984788E+03  0.30282852197E+03  0.00000000000E+00 0. -1.
        -15    1    1    2    0    0  0.91318320930E+01 -0.15142965020E+01 -0.17914615645E+03  0.17939394234E+03  0.17770000000E+01 0.  1.
         15    1    1    2    0    0 -0.15176518036E+02 -0.42645944063E+01 -0.14335113789E+02  0.21381456487E+02  0.17770000000E+01 0.  1.
</event>
<event>
 6    1  0.1860328E-003  0.5032340E+03  0.7546771E-02  0.9392602E-01
        -11   -1    0    0    0    0  0.00000000000E+00  0.00000000000E+00  0.50000000000E+03  0.50000000000E+03  0.00000000000E+00 0.  1.
         11   -1    0    0    0    0 -0.00000000000E+00 -0.00000000000E+00 -0.50000000000E+03  0.50000000000E+03  0.00000000000E+00 0. -1.
        -11    1    1    2    0    0 -0.12407217751E+02  0.17808832462E+01  0.46283142463E+03  0.46300112119E+03  0.00000000000E+00 0.  1.
         11    1    1    2    0    0  0.80594980538E+01 -0.75562902086E+01 -0.49664311279E+03  0.49676597560E+03  0.00000000000E+00 0. -1.
        -15    1    1    2    0    0  0.98600424370E+01 -0.34144068930E+01  0.20322086659E+02  0.22913392295E+02  0.17770000000E+01 0.  1.
         15    1    1    2    0    0 -0.55123227395E+01  0.91898138554E+01  0.13489601499E+02  0.17319510913E+02  0.17770000000E+01 0. -1.
</event>
<event>
 6    1  0.1860328E-003  0.5002093E+03  0.7546771E-02  0.9399342E-01
        -11   -1    0    0    0    0  0.00000000000E+00  0.00000000000E+00  0.50000000000E+03  0.50000000000E+03  0.00000000000E+00 0.  1.
         11   -1    0    0    0    0 -0.00000000000E+00 -0.00000000000E+00 -0.50000000000E+03  0.50000000000E+03  0.00000000000E+00 0. -1.
        -11    1    1    2    0    0  0.40977816780E+01 -0.73937768119E+01  0.27832480212E+03  0.27845314727E+03  0.00000000000E+00 0.  1.
         11    1    1    2    0    0  0.46401469145E+01  0.50168205771E+01 -0.49974397609E+03  0.49979069728E+03  0.00000000000E+00 0. -1.
        -15    1    1    2    0    0 -0.47939328246E+01  0.43780684043E+01  0.16454484617E+03  0.16468246235E+03  0.17770000000E+01 0. -1.
         15    1    1    2    0    0 -0.39439957679E+01 -0.20011121695E+01  0.56874327799E+02  0.57073693101E+02  0.17770000000E+01 0.  1.
</event>
<event>
 6    1  0.1860328E-003  0.5009671E+03  0.7546771E-02  0.9397648E-01
        -11   -1    0    0    0    0  0.00000000000E+00  0.00000000000E+00  0.50000000000E+03  0.50000000000E+03  0.00000000000E+00 0.  1.
         11   -1    0    0    0    0 -0.00000000000E+00 -0.00000000000E+00 -0.50000000000E+03  0.50000000000E+03  0.00000000000E+00 0. -1.
        -11    1    1    2    0    0 -0.99051226577E+01 -0.12619271685E+01  0.49893299033E+03  0.49903289747E+03  0.00000000000E+00 0.  1.
         11    1    1    2    0    0  0.12719266001E+01  0.46128178033E+01 -0.28602152159E+03  0.28606154355E+03  0.00000000000E+00 0. -1.
        -15    1    1    2    0    0  0.73695292971E+01  0.46192509253E+01 -0.19475538987E+03  0.19495760323E+03  0.17770000000E+01 0. -1.
         15    1    1    2    0    0  0.12636667605E+01 -0.79701415600E+01 -0.18156078862E+02  0.19947955755E+02  0.17770000000E+01 0.  1.
</event>
<event>
 6    1  0.1860328E-003  0.4852618E+03  0.7546771E-02  0.9433405E-01
        -11   -1    0    0    0    0  0.00000000000E+00  0.00000000000E+00  0.50000000000E+03  0.50000000000E+03  0.00000000000E+00 0. -1.
         11   -1    0    0    0    0 -0.00000000000E+00 -0.00000000000E+00 -0.50000000000E+03  0.50000000000E+03  0.00000000000E+00 0. -1.
        -11    1    1    2    0    0  0.93524121370E+00  0.11929830313E+02  0.48480472119E+03  0.48495238242E+03  0.00000000000E+00 0. -1.
         11    1    1    2    0    0 -0.13017711737E+02 -0.21952760863E+01 -0.48551601104E+03  0.48569545709E+03  0.00000000000E+00 0. -1.
        -15    1    1    2    0    0  0.72796604753E+01 -0.18018514465E+02 -0.60890095731E+00  0.19524057200E+02  0.17770000000E+01 0.  1.
         15    1    1    2    0    0  0.48028100475E+01  0.82839602378E+01  0.13201908120E+01  0.98281032938E+01  0.17770000000E+01 0. -1.
</event>
<event>
 6    1  0.1860328E-003  0.5013955E+03  0.7546771E-02  0.9396693E-01
        -11   -1    0    0    0    0  0.00000000000E+00  0.00000000000E+00  0.50000000000E+03  0.50000000000E+03  0.00000000000E+00 0. -1.
         11   -1    0    0    0    0 -0.00000000000E+00 -0.00000000000E+00 -0.50000000000E+03  0.50000000000E+03  0.00000000000E+00 0.  1.
        -11    1    1    2    0    0 -0.31615656115E+01  0.67134566375E+01  0.49854930681E+03  0.49860452999E+03  0.00000000000E+00 0. -1.
         11    1    1    2    0    0 -0.57674355112E+01  0.21975795682E+01 -0.44726391555E+03  0.44730649763E+03  0.00000000000E+00 0.  1.
        -15    1    1    2    0    0  0.40208436777E+01  0.30435476464E-01 -0.49913713216E+01  0.66512876098E+01  0.17770000000E+01 0. -1.
         15    1    1    2    0    0  0.49081574450E+01 -0.89414716822E+01 -0.46294019944E+02  0.47437684776E+02  0.17770000000E+01 0.  1.
</event>
<event>
 6    1  0.1860328E-003  0.5165579E+03  0.7546771E-02  0.9363504E-01
        -11   -1    0    0    0    0  0.00000000000E+00  0.00000000000E+00  0.50000000000E+03  0.50000000000E+03  0.00000000000E+00 0. -1.
         11   -1    0    0    0    0 -0.00000000000E+00 -0.00000000000E+00 -0.50000000000E+03  0.50000000000E+03  0.00000000000E+00 0. -1.
        -11    1    1    2    0    0  0.68673616709E-02  0.57383888377E+01  0.39621692434E+03  0.39625847661E+03  0.00000000000E+00 0. -1.
         11    1    1    2    0    0  0.10405733014E+02 -0.19192096811E+02 -0.48294890255E+03  0.48344209409E+03  0.00000000000E+00 0. -1.
        -15    1    1    2    0    0 -0.16909131607E+01  0.12637856247E+02 -0.14087935496E+02  0.19084083771E+02  0.17770000000E+01 0.  1.
         15    1    1    2    0    0 -0.87216872154E+01  0.81585172655E+00  0.10081991371E+03  0.10121534553E+03  0.17770000000E+01 0. -1.
</event>
<event>
 6    1  0.1860328E-003  0.5136574E+03  0.7546771E-02  0.9369758E-01
        -11   -1    0    0    0    0  0.00000000000E+00  0.00000000000E+00  0.50000000000E+03  0.50000000000E+03  0.00000000000E+00 0.  1.
         11   -1    0    0    0    0 -0.00000000000E+00 -0.00000000000E+00 -0.50000000000E+03  0.50000000000E+03  0.00000000000E+00 0. -1.
        -11    1    1    2    0    0 -0.77075416174E+01  0.28425121205E+01  0.48627324055E+03  0.48634262670E+03  0.00000000000E+00 0.  1.
         11    1    1    2    0    0  0.36353948288E+00  0.77986341138E+01 -0.47842945826E+03  0.47849315292E+03  0.00000000000E+00 0. -1.
        -15    1    1    2    0    0  0.15259605993E+02 -0.14192271706E+01 -0.14518554100E+02  0.21185276089E+02  0.17770000000E+01 0. -1.
         15    1    1    2    0    0 -0.79156038589E+01 -0.92219190637E+01  0.66747718116E+01  0.13978944288E+02  0.17770000000E+01 0.  1.
</event>
<event>
 6    1  0.1860328E-003  0.4749496E+03  0.7546771E-02  0.9457675E-01
        -11   -1    0    0    0    0  0.00000000000E+00  0.00000000000E+00  0.50000000000E+03  0.50000000000E+03  0.00000000000E+00 0. -1.
         11   -1    0    0    0    0 -0.00000000000E+00 -0.00000000000E+00 -0.50000000000E+03  0.50000000000E+03  0.00000000000E+00 0.  1.
        -11    1    1    2    0    0  0.31443900355E+01  0.40518151337E+01  0.52390624147E+02  0.52641066603E+02  0.00000000000E+00 0. -1.
         11    1    1    2    0    0  0.30421533728E+01 -0.60917372737E+01 -0.49771178440E+03  0.49775835934E+03  0.00000000000E+00 0.  1.
        -15    1    1    2    0    0  0.14721202190E+02 -0.23950203818E+02  0.22641476307E+03  0.22816031365E+03  0.17770000000E+01 0. -1.
         15    1    1    2    0    0 -0.20907745598E+02  0.25990125958E+02  0.21890639718E+03  0.22144026041E+03  0.17770000000E+01 0.  1.
</event>
<event>
 6    1  0.1860328E-003  0.5141957E+03  0.7546771E-02  0.9368594E-01
        -11   -1    0    0    0    0  0.00000000000E+00  0.00000000000E+00  0.50000000000E+03  0.50000000000E+03  0.00000000000E+00 0.  1.
         11   -1    0    0    0    0 -0.00000000000E+00 -0.00000000000E+00 -0.50000000000E+03  0.50000000000E+03  0.00000000000E+00 0. -1.
        -11    1    1    2    0    0  0.34204393938E+01  0.86323744681E+01  0.37858886309E+03  0.37870271262E+03  0.00000000000E+00 0.  1.
         11    1    1    2    0    0  0.14541500282E+01  0.82066650281E+01 -0.48573282450E+03  0.48580432347E+03  0.00000000000E+00 0. -1.
        -15    1    1    2    0    0  0.22855226593E+01 -0.87038259793E+01  0.11898794634E+03  0.11934097914E+03  0.17770000000E+01 0.  1.
         15    1    1    2    0    0 -0.71601120813E+01 -0.81352135170E+01 -0.11843984926E+02  0.16151984767E+02  0.17770000000E+01 0.  1.
</event>
<event>
 6    1  0.1860328E-003  0.5012531E+03  0.7546771E-02  0.9397010E-01
        -11   -1    0    0    0    0  0.00000000000E+00  0.00000000000E+00  0.50000000000E+03  0.50000000000E+03  0.00000000000E+00 0. -1.
         11   -1    0    0    0    0 -0.00000000000E+00 -0.00000000000E+00 -0.50000000000E+03  0.50000000000E+03  0.00000000000E+00 0.  1.
        -11    1    1    2    0    0 -0.77971335264E+01  0.26082298536E+01  0.49867916294E+03  0.49874693553E+03  0.00000000000E+00 0. -1.
         11    1    1    2    0    0  0.17049418650E+00 -0.88766552853E+01 -0.25704311551E+03  0.25719639832E+03  0.00000000000E+00 0.  1.
        -15    1    1    2    0    0  0.95531954143E+01  0.96114419488E+00 -0.23484563695E+03  0.23504854448E+03  0.17770000000E+01 0.  1.
         15    1    1    2    0    0 -0.19265560744E+01  0.53072812368E+01 -0.67904104794E+01  0.90081216640E+01  0.17770000000E+01 0.  1.
</event>
<event>
 6    1  0.1860328E-003  0.5116575E+03  0.7546771E-02  0.9374096E-01
        -11   -1    0    0    0    0  0.00000000000E+00  0.00000000000E+00  0.50000000000E+03  0.50000000000E+03  0.00000000000E+00 0. -1.
         11   -1    0    0    0    0 -0.00000000000E+00 -0.00000000000E+00 -0.50000000000E+03  0.50000000000E+03  0.00000000000E+00 0.  1.
        -11    1    1    2    0    0 -0.36697593937E+01 -0.87375031654E+01  0.48825050802E+03  0.48834247171E+03  0.00000000000E+00 0. -1.
         11    1    1    2    0    0  0.20309328958E+02 -0.29929343706E+02 -0.16866451146E+03  0.17249913589E+03  0.00000000000E+00 0.  1.
        -15    1    1    2    0    0 -0.21042717827E+02  0.30257114809E+02 -0.25356664182E+02  0.44770605508E+02  0.17770000000E+01 0. -1.
         15    1    1    2    0    0  0.44031482620E+01  0.84097320624E+01 -0.29422933238E+03  0.29438778689E+03  0.17770000000E+01 0.  1.
</event>
<event>
 6    1  0.1860328E-003  0.5021370E+03  0.7546771E-02  0.9395041E-01
        -11   -1    0    0    0    0  0.00000000000E+00  0.00000000000E+00  0.50000000000E+03  0.50000000000E+03  0.00000000000E+00 0.  1.
         11   -1    0    0    0    0 -0.00000000000E+00 -0.00000000000E+00 -0.50000000000E+03  0.50000000000E+03  0.00000000000E+00 0.  1.
        -11    1    1    2    0    0 -0.10192400041E+02 -0.24392833777E+02  0.49716058780E+03  0.49786297856E+03  0.00000000000E+00 0.  1.
         11    1    1    2    0    0 -0.71605557224E+00 -0.20118818754E+00 -0.47753181302E+02  0.47758973363E+02  0.00000000000E+00 0.  1.
        -15    1    1    2    0    0  0.10205688934E+02 -0.22416215214E+01 -0.11478509194E+02  0.15623535322E+02  0.17770000000E+01 0. -1.
         15    1    1    2    0    0  0.70276667959E+00  0.26835643486E+02 -0.43792889730E+03  0.43875451276E+03  0.17770000000E+01 0.  1.
</event>
<event>
 6    1  0.1860328E-003  0.5006839E+03  0.7546771E-02  0.9398281E-01
        -11   -1    0    0    0    0  0.00000000000E+00  0.00000000000E+00  0.50000000000E+03  0.50000000000E+03  0.00000000000E+00 0.  1.
         11   -1    0    0    0    0 -0.00000000000E+00 -0.00000000000E+00 -0.50000000000E+03  0.50000000000E+03  0.00000000000E+00 0. -1.
        -11    1    1    2    0    0  0.46781729269E+01 -0.69163182496E+01  0.49924626824E+03  0.49931608938E+03  0.00000000000E+00 0.  1.
         11    1    1    2    0    0 -0.56860617697E+01 -0.23932588150E+01 -0.68035022073E+02  0.68314150911E+02  0.00000000000E+00 0. -1.
        -15    1    1    2    0    0  0.14765578324E+02  0.81304288270E+01 -0.18889566709E+03  0.18965457272E+03  0.17770000000E+01 0.  1.
         15    1    1    2    0    0 -0.13757689481E+02  0.11791482377E+01 -0.24231557907E+03  0.24271518700E+03  0.17770000000E+01 0. -1.
</event>
<event>
 6    1  0.1860328E-003  0.4733658E+03  0.7546771E-02  0.9461461E-01
        -11   -1    0    0    0    0  0.00000000000E+00  0.00000000000E+00  0.50000000000E+03  0.50000000000E+03  0.00000000000E+00 0. -1.
         11   -1    0    0    0    0 -0.00000000000E+00 -0.00000000000E+00 -0.50000000000E+03  0.50000000000E+03  0.00000000000E+00 0.  1.
        -11    1    1    2    0    0 -0.27505062144E+02  0.17373060362E+02  0.48010274753E+03  0.48120369892E+03  0.00000000000E+00 0. -1.
         11    1    1    2    0    0  0.43840563403E+01 -0.64350199636E+01 -0.46591460572E+03  0.46597966614E+03  0.00000000000E+00 0.  1.
        -15    1    1    2    0    0  0.12534562513E+02  0.15257625302E+02  0.24545169169E+01  0.19977306364E+02  0.17770000000E+01 0. -1.
         15    1    1    2    0    0  0.10586443290E+02 -0.26195665701E+02 -0.16642658727E+02  0.32839328579E+02  0.17770000000E+01 0.  1.
</event>
<event>
 6    1  0.1860328E-003  0.5063575E+03  0.7546771E-02  0.9385696E-01
        -11   -1    0    0    0    0  0.00000000000E+00  0.00000000000E+00  0.50000000000E+03  0.50000000000E+03  0.00000000000E+00 0. -1.
         11   -1    0    0    0    0 -0.00000000000E+00 -0.00000000000E+00 -0.50000000000E+03  0.50000000000E+03  0.00000000000E+00 0. -1.
        -11    1    1    2    0    0  0.13145020052E+02 -0.76301452382E+00  0.45915030536E+03  0.45933906502E+03  0.00000000000E+00 0. -1.
         11    1    1    2    0    0 -0.23806836360E+01  0.74402808396E+01 -0.49358070499E+03  0.49364252023E+03  0.00000000000E+00 0. -1.
        -15    1    1    2    0    0  0.36060969338E+01  0.34736014564E+01 -0.26500438051E+01  0.59371965895E+01  0.17770000000E+01 0.  1.
         15    1    1    2    0    0 -0.14370433350E+02 -0.10150867772E+02  0.37080443441E+02  0.41081218165E+02  0.17770000000E+01 0. -1.
</event>
<event>
 6    1  0.1860328E-003  0.5010484E+03  0.7546771E-02  0.9397467E-01
        -11   -1    0    0    0    0  0.00000000000E+00  0.00000000000E+00  0.50000000000E+03  0.50000000000E+03  0.00000000000E+00 0. -1.
         11   -1    0    0    0    0 -0.00000000000E+00 -0.00000000000E+00 -0.50000000000E+03  0.50000000000E+03  0.00000000000E+00 0.  1.
        -11    1    1    2    0    0  0.75378958609E+01 -0.99527442345E+00  0.41336738888E+03  0.41343730920E+03  0.00000000000E+00 0. -1.
         11    1    1    2    0    0 -0.65253766781E+01 -0.69039105459E+01 -0.49886112357E+03  0.49895156592E+03  0.00000000000E+00 0.  1.
        -15    1    1    2    0    0  0.31501112394E+01  0.29509765505E+01  0.75080272125E+02  0.75225238151E+02  0.17770000000E+01 0. -1.
         15    1    1    2    0    0 -0.41626304221E+01  0.49482084189E+01  0.10413462567E+02  0.12385886735E+02  0.17770000000E+01 0.  1.
</event>
<event>
 6    1  0.1860328E-003  0.5033406E+03  0.7546771E-02  0.9392366E-01
        -11   -1    0    0    0    0  0.00000000000E+00  0.00000000000E+00  0.50000000000E+03  0.50000000000E+03  0.00000000000E+00 0.  1.
         11   -1    0    0    0    0 -0.00000000000E+00 -0.00000000000E+00 -0.50000000000E+03  0.50000000000E+03  0.00000000000E+00 0.  1.
        -11    1    1    2    0    0 -0.10627367468E+02 -0.33464047706E+01  0.24272425006E+03  0.24297983647E+03  0.00000000000E+00 0.  1.
         11    1    1    2    0    0 -0.17559640333E+02 -0.34087469019E+01 -0.49633715351E+03  0.49665937067E+03  0.00000000000E+00 0.  1.
        -15    1    1    2    0    0  0.17452632228E+02  0.95902375976E+01  0.27664582504E+02  0.34132885653E+02  0.17770000000E+01 0. -1.
         15    1    1    2    0    0  0.10734375573E+02 -0.28350859251E+01  0.22594832094E+03  0.22622790720E+03  0.17770000000E+01 0.  1.
</event>
<event>
 6    1  0.1860328E-003  0.5002609E+03  0.7546771E-02  0.9399226E-01
        -11   -1    0    0    0    0  0.00000000000E+00  0.00000000000E+00  0.50000000000E+03  0.50000000000E+03  0.00000000000E+00 0.  1.
         11   -1    0    0    0    0 -0.00000000000E+00 -0.00000000000E+00 -0.50000000000E+03  0.50000000000E+03  0.00000000000E+00 0. -1.
        -11    1    1    2    0    0 -0.15474751348E-01 -0.90832755525E+01  0.49965652673E+03  0.49973908276E+03  0.00000000000E+00 0.  1.
         11    1    1    2    0    0 -0.30338336116E+01  0.52783005295E+01 -0.32664409278E+03  0.32670082330E+03  0.00000000000E+00 0. -1.
        -15    1    1    2    0    0  0.10626992854E+01  0.68168517766E+01 -0.52573299693E+02  0.53053825192E+02  0.17770000000E+01 0. -1.
         15    1    1    2    0    0  0.19866090775E+01 -0.30118767536E+01 -0.12043913426E+03  0.12050626875E+03  0.17770000000E+01 0.  1.
</event>
<event>
 6    1  0.3230603E-003  0.5677766E+03  0.7546771E-02  0.9259747E-01
        -11   -1    0    0    0    0  0.00000000000E+00  0.00000000000E+00  0.50000000000E+03  0.50000000000E+03  0.00000000000E+00 0.  1.
         11   -1    0    0    0    0 -0.00000000000E+00 -0.00000000000E+00 -0.50000000000E+03  0.50000000000E+03  0.00000000000E+00 0. -1.
        -11    1    1    2    0    0  0.66517606153E+01  0.69415724422E+01  0.41382237007E+03  0.41393403499E+03  0.00000000000E+00 0.  1.
         11    1    1    2    0    0  0.69860271656E+01  0.43383887169E+01 -0.43214519556E+03  0.43222343324E+03  0.00000000000E+00 0. -1.
        -15    1    1    2    0    0 -0.15429019381E+02 -0.12524097686E+02  0.84896518002E+02  0.87209427012E+02  0.17770000000E+01 0.  1.
         15    1    1    2    0    0  0.17912316000E+01  0.12441365273E+01 -0.66573692516E+02  0.66633104764E+02  0.17770000000E+01 0.  1.
</event>
<event>
 6    1  0.1860328E-003  0.5044598E+03  0.7546771E-02  0.9389886E-01
        -11   -1    0    0    0    0  0.00000000000E+00  0.00000000000E+00  0.50000000000E+03  0.50000000000E+03  0.00000000000E+00 0. -1.
         11   -1    0    0    0    0 -0.00000000000E+00 -0.00000000000E+00 -0.50000000000E+03  0.50000000000E+03  0.00000000000E+00 0.  1.
        -11    1    1    2    0    0 -0.15238370448E+01  0.75394756090E+01  0.43966835336E+03  0.43973563276E+03  0.00000000000E+00 0. -1.
         11    1    1    2    0    0 -0.25252417131E+01  0.78776427751E+01 -0.49547114981E+03  0.49554020462E+03  0.00000000000E+00 0.  1.
        -15    1    1    2    0    0  0.18780315252E+01 -0.10221446608E+02  0.21662998234E+01  0.10763621932E+02  0.17770000000E+01 0. -1.
         15    1    1    2    0    0  0.21710472327E+01 -0.51956717760E+01  0.53636496629E+02  0.53960540684E+02  0.17770000000E+01 0.  1.
</event>
<event>
 6    1  0.1860328E-003  0.5076240E+03  0.7546771E-02  0.9382910E-01
        -11   -1    0    0    0    0  0.00000000000E+00  0.00000000000E+00  0.50000000000E+03  0.50000000000E+03  0.00000000000E+00 0. -1.
         11   -1    0    0    0    0 -0.00000000000E+00 -0.00000000000E+00 -0.50000000000E+03  0.50000000000E+03  0.00000000000E+00 0.  1.
        -11    1    1    2    0    0 -0.71315539149E+01 -0.24342092844E+02  0.38031123311E+03  0.38115617609E+03  0.00000000000E+00 0. -1.
         11    1    1    2    0    0 -0.66675248100E+01 -0.51649305324E+01 -0.49230377075E+03  0.49237600986E+03  0.00000000000E+00 0.  1.
        -15    1    1    2    0    0  0.27246689129E+01 -0.47903491496E+01  0.73419426720E+02  0.73647411459E+02  0.17770000000E+01 0.  1.
         15    1    1    2    0    0  0.11074409812E+02  0.34297372526E+02  0.38573110920E+02  0.52820402591E+02  0.17770000000E+01 0. -1.
</event>
<event>
 6    1  0.1860328E-003  0.5303885E+03  0.7546771E-02  0.9334268E-01
        -11   -1    0    0    0    0  0.00000000000E+00  0.00000000000E+00  0.50000000000E+03  0.50000000000E+03  0.00000000000E+00 0. -1.
         11   -1    0    0    0    0 -0.00000000000E+00 -0.00000000000E+00 -0.50000000000E+03  0.50000000000E+03  0.00000000000E+00 0. -1.
        -11    1    1    2    0    0  0.27418850069E+02 -0.17950872209E+02  0.46846653957E+03  0.46961146265E+03  0.00000000000E+00 0. -1.
         11    1    1    2    0    0 -0.78518722228E+01  0.29165352989E+01 -0.44065366438E+03  0.44073326401E+03  0.00000000000E+00 0. -1.
        -15    1    1    2    0    0 -0.95356688158E+01  0.29028756044E+02  0.21492957419E+02  0.37399232677E+02  0.17770000000E+01 0.  1.
         15    1    1    2    0    0 -0.10031309030E+02 -0.13994419134E+02 -0.49305832610E+02  0.52256040666E+02  0.17770000000E+01 0. -1.
</event>
<event>
 6    1  0.1860328E-003  0.5115437E+03  0.7546771E-02  0.9374344E-01
        -11   -1    0    0    0    0  0.00000000000E+00  0.00000000000E+00  0.50000000000E+03  0.50000000000E+03  0.00000000000E+00 0.  1.
         11   -1    0    0    0    0 -0.00000000000E+00 -0.00000000000E+00 -0.50000000000E+03  0.50000000000E+03  0.00000000000E+00 0.  1.
        -11    1    1    2    0    0  0.55644828669E+01 -0.24472666233E+01  0.16987354301E+03  0.16998227319E+03  0.00000000000E+00 0.  1.
         11    1    1    2    0    0 -0.22932309589E+02 -0.14265182174E+02 -0.48770913650E+03  0.48845633180E+03  0.00000000000E+00 0.  1.
        -15    1    1    2    0    0  0.23392487902E+02  0.33781481213E+01  0.32015691033E+00  0.23704020849E+02  0.17770000000E+01 0. -1.
         15    1    1    2    0    0 -0.60246611794E+01  0.13334300676E+02  0.31751543658E+03  0.31785737416E+03  0.17770000000E+01 0.  1.
</event>
<event>
 6    1  0.1860328E-003  0.5143189E+03  0.7546771E-02  0.9368328E-01
        -11   -1    0    0    0    0  0.00000000000E+00  0.00000000000E+00  0.50000000000E+03  0.50000000000E+03  0.00000000000E+00 0. -1.
         11   -1    0    0    0    0 -0.00000000000E+00 -0.00000000000E+00 -0.50000000000E+03  0.50000000000E+03  0.00000000000E+00 0. -1.
        -11    1    1    2    0    0 -0.13737184084E+02  0.37343196493E+01  0.48547244896E+03  0.48568112385E+03  0.00000000000E+00 0. -1.
         11    1    1    2    0    0 -0.13446656206E+02 -0.10671023045E+02 -0.41315380013E+03  0.41351027298E+03  0.00000000000E+00 0. -1.
        -15    1    1    2    0    0 -0.36769234140E+01  0.14541612299E+02 -0.66817214072E+02  0.68503109998E+02  0.17770000000E+01 0. -1.
         15    1    1    2    0    0  0.30860763704E+02 -0.76049089034E+01 -0.55014347570E+01  0.32305493174E+02  0.17770000000E+01 0.  1.
</event>
<event>
 6    1  0.1860328E-003  0.4756808E+03  0.7546771E-02  0.9455933E-01
        -11   -1    0    0    0    0  0.00000000000E+00  0.00000000000E+00  0.50000000000E+03  0.50000000000E+03  0.00000000000E+00 0.  1.
         11   -1    0    0    0    0 -0.00000000000E+00 -0.00000000000E+00 -0.50000000000E+03  0.50000000000E+03  0.00000000000E+00 0. -1.
        -11    1    1    2    0    0 -0.44023856090E+02  0.99487449462E+01  0.47579985310E+03  0.47793574635E+03  0.00000000000E+00 0.  1.
         11    1    1    2    0    0  0.64259788928E+01  0.10672290016E+02 -0.47422950864E+03  0.47439310476E+03  0.00000000000E+00 0. -1.
        -15    1    1    2    0    0  0.39319402000E+02 -0.18300439226E+02 -0.38620258661E+01  0.43577453141E+02  0.17770000000E+01 0.  1.
         15    1    1    2    0    0 -0.17215248028E+01 -0.23205957368E+01  0.22916814075E+01  0.40936957500E+01  0.17770000000E+01 0. -1.
</event>
<event>
 6    1  0.1860328E-003  0.4812939E+03  0.7546771E-02  0.9442667E-01
        -11   -1    0    0    0    0  0.00000000000E+00  0.00000000000E+00  0.50000000000E+03  0.50000000000E+03  0.00000000000E+00 0.  1.
         11   -1    0    0    0    0 -0.00000000000E+00 -0.00000000000E+00 -0.50000000000E+03  0.50000000000E+03  0.00000000000E+00 0.  1.
        -11    1    1    2    0    0 -0.80018343683E+01  0.14953630760E+01  0.48781567846E+03  0.48788359433E+03  0.00000000000E+00 0.  1.
         11    1    1    2    0    0 -0.16250932856E+02 -0.20560419782E+01 -0.47481520909E+03  0.47509767724E+03  0.00000000000E+00 0.  1.
        -15    1    1    2    0    0  0.45288049920E+01  0.10962177193E+02 -0.68833825007E+01  0.13828162825E+02  0.17770000000E+01 0. -1.
         15    1    1    2    0    0  0.19723962232E+02 -0.10401498291E+02 -0.61170868610E+01  0.23190565614E+02  0.17770000000E+01 0.  1.
</event>
<event>
 6    1  0.1860328E-003  0.5071412E+03  0.7546771E-02  0.9383971E-01
        -11   -1    0    0    0    0  0.00000000000E+00  0.00000000000E+00  0.50000000000E+03  0.50000000000E+03  0.00000000000E+00 0.  1.
         11   -1    0    0    0    0 -0.00000000000E+00 -0.00000000000E+00 -0.50000000000E+03  0.50000000000E+03  0.00000000000E+00 0.  1.
        -11    1    1    2    0    0 -0.63367064362E+01  0.41351617328E+01  0.49280073138E+03  0.49285881777E+03  0.00000000000E+00 0.  1.
         11    1    1    2    0    0 -0.28190247985E+00  0.69628841386E+01 -0.41344254055E+03  0.41350126428E+03  0.00000000000E+00 0.  1.
        -15    1    1    2    0    0  0.32660850077E+01 -0.25407278557E+01  0.61490862463E+01  0.76217845665E+01  0.17770000000E+01 0.  1.
         15    1    1    2    0    0  0.33525239084E+01 -0.85573180157E+01 -0.85507277070E+02  0.86018133374E+02  0.17770000000E+01 0. -1.
</event>
<event>
 6    1  0.1860328E-003  0.5018038E+03  0.7546771E-02  0.9395783E-01
        -11   -1    0    0    0    0  0.00000000000E+00  0.00000000000E+00  0.50000000000E+03  0.50000000000E+03  0.00000000000E+00 0.  1.
         11   -1    0    0    0    0 -0.00000000000E+00 -0.00000000000E+00 -0.50000000000E+03  0.50000000000E+03  0.00000000000E+00 0. -1.
        -11    1    1    2    0    0 -0.13195837121E+02 -0.28848249586E+01  0.49801304551E+03  0.49819619211E+03  0.00000000000E+00 0.  1.
         11    1    1    2    0    0 -0.28755563625E+01  0.59607322901E+01 -0.27846244708E+03  0.27854108061E+03  0.00000000000E+00 0. -1.
        -15    1    1    2    0    0  0.23643286898E+01 -0.14238517377E+01 -0.19509759299E+03  0.19512520576E+03  0.17770000000E+01 0.  1.
         15    1    1    2    0    0  0.13707064794E+02 -0.16520555937E+01 -0.24453005444E+02  0.28137521518E+02  0.17770000000E+01 0. -1.
</event>
<event>
 6    1  0.1860328E-003  0.5010542E+03  0.7546771E-02  0.9397454E-01
        -11   -1    0    0    0    0  0.00000000000E+00  0.00000000000E+00  0.50000000000E+03  0.50000000000E+03  0.00000000000E+00 0. -1.
         11   -1    0    0    0    0 -0.00000000000E+00 -0.00000000000E+00 -0.50000000000E+03  0.50000000000E+03  0.00000000000E+00 0. -1.
        -11    1    1    2    0    0 -0.65326628284E+01 -0.41837979728E+01  0.49888552311E+03  0.49894583375E+03  0.00000000000E+00 0. -1.
         11    1    1    2    0    0 -0.15547741933E+01  0.35858088447E+01 -0.27914410355E+03  0.27917146325E+03  0.00000000000E+00 0. -1.
        -15    1    1    2    0    0  0.11215720599E+02  0.99991068957E+01 -0.61965772767E+02  0.63786277920E+02  0.17770000000E+01 0. -1.
         15    1    1    2    0    0 -0.31282835776E+01 -0.94011177677E+01 -0.15777564679E+03  0.15809642508E+03  0.17770000000E+01 0.  1.
</event>
<event>
 6    1  0.1860328E-003  0.5007984E+03  0.7546771E-02  0.9398025E-01
        -11   -1    0    0    0    0  0.00000000000E+00  0.00000000000E+00  0.50000000000E+03  0.50000000000E+03  0.00000000000E+00 0. -1.
         11   -1    0    0    0    0 -0.00000000000E+00 -0.00000000000E+00 -0.50000000000E+03  0.50000000000E+03  0.00000000000E+00 0. -1.
        -11    1    1    2    0    0 -0.21617553259E+01 -0.47830396243E+01  0.33758709957E+03  0.33762790235E+03  0.00000000000E+00 0. -1.
         11    1    1    2    0    0 -0.10574654444E+02  0.45113660823E+01 -0.49906921572E+03  0.49920162041E+03  0.00000000000E+00 0. -1.
        -15    1    1    2    0    0  0.14857421147E+02 -0.57144440600E+01  0.92767539441E+02  0.94140171749E+02  0.17770000000E+01 0. -1.
         15    1    1    2    0    0 -0.21210113775E+01  0.59861176019E+01  0.68714576716E+02  0.69030305486E+02  0.17770000000E+01 0.  1.
</event>
<event>
 6    1  0.1860328E-003  0.5059931E+03  0.7546771E-02  0.9386499E-01
        -11   -1    0    0    0    0  0.00000000000E+00  0.00000000000E+00  0.50000000000E+03  0.50000000000E+03  0.00000000000E+00 0. -1.
         11   -1    0    0    0    0 -0.00000000000E+00 -0.00000000000E+00 -0.50000000000E+03  0.50000000000E+03  0.00000000000E+00 0. -1.
        -11    1    1    2    0    0 -0.18358325940E+02  0.98955886212E+01  0.43106055493E+03  0.43156477245E+03  0.00000000000E+00 0. -1.
         11    1    1    2    0    0  0.53057076646E+01  0.80995518691E+01 -0.49391198917E+03  0.49400688894E+03  0.00000000000E+00 0. -1.
        -15    1    1    2    0    0  0.91157400099E+01 -0.18931478111E+02  0.13851161170E+02  0.25229149295E+02  0.17770000000E+01 0. -1.
         15    1    1    2    0    0  0.39368782658E+01  0.93633762061E+00  0.49000273072E+02  0.49199189310E+02  0.17770000000E+01 0.  1.
</event>
<event>
 6    1  0.1860328E-003  0.5047119E+03  0.7546771E-02  0.9389328E-01
        -11   -1    0    0    0    0  0.00000000000E+00  0.00000000000E+00  0.50000000000E+03  0.50000000000E+03  0.00000000000E+00 0.  1.
         11   -1    0    0    0    0 -0.00000000000E+00 -0.00000000000E+00 -0.50000000000E+03  0.50000000000E+03  0.00000000000E+00 0. -1.
        -11    1    1    2    0    0  0.24190018722E+02  0.13086946791E+02  0.49452392314E+03  0.49528813406E+03  0.00000000000E+00 0.  1.
         11    1    1    2    0    0  0.89608385561E+01 -0.38885205857E+01 -0.35782794541E+03  0.35796124893E+03  0.00000000000E+00 0. -1.
        -15    1    1    2    0    0 -0.37406881148E+01 -0.10441120475E+02 -0.95102829322E+02  0.95763853402E+02  0.17770000000E+01 0.  1.
         15    1    1    2    0    0 -0.29410169163E+02  0.12426942697E+01 -0.41593148408E+02  0.50986763603E+02  0.17770000000E+01 0. -1.
</event>
<event>
 6    1  0.1860328E-003  0.5037117E+03  0.7546771E-02  0.9391543E-01
        -11   -1    0    0    0    0  0.00000000000E+00  0.00000000000E+00  0.50000000000E+03  0.50000000000E+03  0.00000000000E+00 0. -1.
         11   -1    0    0    0    0 -0.00000000000E+00 -0.00000000000E+00 -0.50000000000E+03  0.50000000000E+03  0.00000000000E+00 0.  1.
        -11    1    1    2    0    0  0.11858602056E+02  0.10713285737E+01  0.44850632372E+03  0.44866434737E+03  0.00000000000E+00 0. -1.
         11    1    1    2    0    0 -0.64425728359E+00  0.69197167046E+01 -0.49623965864E+03  0.49628831979E+03  0.00000000000E+00 0.  1.
        -15    1    1    2    0    0 -0.69391604268E+01 -0.74692869777E+01  0.49110428918E+02  0.50188984378E+02  0.17770000000E+01 0.  1.
         15    1    1    2    0    0 -0.42751843452E+01 -0.52175830069E+00 -0.13770939961E+01  0.48583484626E+01  0.17770000000E+01 0. -1.
</event>
<event>
 6    1  0.1860328E-003  0.5206878E+03  0.7546771E-02  0.9354673E-01
        -11   -1    0    0    0    0  0.00000000000E+00  0.00000000000E+00  0.50000000000E+03  0.50000000000E+03  0.00000000000E+00 0. -1.
         11   -1    0    0    0    0 -0.00000000000E+00 -0.00000000000E+00 -0.50000000000E+03  0.50000000000E+03  0.00000000000E+00 0. -1.
        -11    1    1    2    0    0  0.11334624086E+02  0.19945086025E+02  0.44832812423E+03  0.44891467690E+03  0.00000000000E+00 0. -1.
         11    1    1    2    0    0  0.25723904397E+02  0.72292542625E+01 -0.47856684693E+03  0.47931222429E+03  0.00000000000E+00 0. -1.
        -15    1    1    2    0    0  0.43382882585E+01 -0.52035647854E+01  0.23340766693E+02  0.24368975159E+02  0.17770000000E+01 0. -1.
         15    1    1    2    0    0 -0.41396816741E+02 -0.21970775502E+02  0.68979560050E+01  0.47404123644E+02  0.17770000000E+01 0.  1.
</event>
<event>
 6    1  0.1860328E-003  0.5003814E+03  0.7546771E-02  0.9398957E-01
        -11   -1    0    0    0    0  0.00000000000E+00  0.00000000000E+00  0.50000000000E+03  0.50000000000E+03  0.00000000000E+00 0.  1.
         11   -1    0    0    0    0 -0.00000000000E+00 -0.00000000000E+00 -0.50000000000E+03  0.50000000000E+03  0.00000000000E+00 0. -1.
        -11    1    1    2    0    0 -0.42963111222E+01 -0.26370475991E+01  0.11600060397E+03  0.11611008755E+03  0.00000000000E+00 0.  1.
         11    1    1    2    0    0 -0.51136136269E+01 -0.52669140257E+01 -0.49956468268E+03  0.49961861616E+03  0.00000000000E+00 0. -1.
        -15    1    1    2    0    0  0.13614924532E+02  0.83779944829E+01  0.19859905982E+03  0.19924934442E+03  0.17770000000E+01 0.  1.
         15    1    1    2    0    0 -0.42049997826E+01 -0.47403285814E+00  0.18496501889E+03  0.18502195187E+03  0.17770000000E+01 0. -1.
</event>
<event>
 6    1  0.1860328E-003  0.5058228E+03  0.7546771E-02  0.9386874E-01
        -11   -1    0    0    0    0  0.00000000000E+00  0.00000000000E+00  0.50000000000E+03  0.50000000000E+03  0.00000000000E+00 0.  1.
         11   -1    0    0    0    0 -0.00000000000E+00 -0.00000000000E+00 -0.50000000000E+03  0.50000000000E+03  0.00000000000E+00 0.  1.
        -11    1    1    2    0    0 -0.15048826236E+02  0.14986385711E+01  0.49394569562E+03  0.49417715782E+03  0.00000000000E+00 0.  1.
         11    1    1    2    0    0 -0.24732744432E+01 -0.70694844954E+01 -0.47200892707E+03  0.47206834455E+03  0.00000000000E+00 0.  1.
        -15    1    1    2    0    0  0.45643627317E+01  0.75504083900E+01 -0.17713387226E+02  0.19868666035E+02  0.17770000000E+01 0. -1.
         15    1    1    2    0    0  0.12957737948E+02 -0.19795624657E+01 -0.42233813273E+01  0.13885831596E+02  0.17770000000E+01 0.  1.
</event>
<event>
 6    1  0.1860328E-003  0.5006620E+03  0.7546771E-02  0.9398330E-01
        -11   -1    0    0    0    0  0.00000000000E+00  0.00000000000E+00  0.50000000000E+03  0.50000000000E+03  0.00000000000E+00 0. -1.
         11   -1    0    0    0    0 -0.00000000000E+00 -0.00000000000E+00 -0.50000000000E+03  0.50000000000E+03  0.00000000000E+00 0.  1.
        -11    1    1    2    0    0 -0.78640176926E+00  0.79536632725E+01  0.21622839830E+03  0.21637606018E+03  0.00000000000E+00 0. -1.
         11    1    1    2    0    0  0.49369477355E+01 -0.81575883534E+01 -0.49924691114E+03  0.49933795968E+03  0.00000000000E+00 0.  1.
        -15    1    1    2    0    0  0.10099288976E+02  0.37193251751E+01  0.81640222662E+02  0.82365725293E+02  0.17770000000E+01 0.  1.
         15    1    1    2    0    0 -0.14249834943E+02 -0.35154000942E+01  0.20137829018E+03  0.20192025485E+03  0.17770000000E+01 0. -1.
</event>
<event>
 6    1  0.1860328E-003  0.5005962E+03  0.7546771E-02  0.9398477E-01
        -11   -1    0    0    0    0  0.00000000000E+00  0.00000000000E+00  0.50000000000E+03  0.50000000000E+03  0.00000000000E+00 0.  1.
         11   -1    0    0    0    0 -0.00000000000E+00 -0.00000000000E+00 -0.50000000000E+03  0.50000000000E+03  0.00000000000E+00 0. -1.
        -11    1    1    2    0    0  0.11750467719E+01  0.64795706037E+01  0.21770568756E+03  0.21780526157E+03  0.00000000000E+00 0.  1.
         11    1    1    2    0    0 -0.14067343751E+02  0.23609431484E+01 -0.49920002713E+03  0.49940377582E+03  0.00000000000E+00 0. -1.
        -15    1    1    2    0    0  0.11640133861E+02 -0.37125788193E+01  0.61548246626E+02  0.62774360607E+02  0.17770000000E+01 0. -1.
         15    1    1    2    0    0  0.12521631184E+01 -0.51279349328E+01  0.21994609294E+03  0.22001660201E+03  0.17770000000E+01 0.  1.
</event>
<event>
 6    1  0.1860328E-003  0.5037493E+03  0.7546771E-02  0.9391459E-01
        -11   -1    0    0    0    0  0.00000000000E+00  0.00000000000E+00  0.50000000000E+03  0.50000000000E+03  0.00000000000E+00 0. -1.
         11   -1    0    0    0    0 -0.00000000000E+00 -0.00000000000E+00 -0.50000000000E+03  0.50000000000E+03  0.00000000000E+00 0.  1.
        -11    1    1    2    0    0  0.11541324228E+02  0.33141834368E+00  0.49611635563E+03  0.49625069302E+03  0.00000000000E+00 0. -1.
         11    1    1    2    0    0 -0.61036210566E+01 -0.21567111671E+01 -0.24460171634E+03  0.24468736222E+03  0.00000000000E+00 0.  1.
        -15    1    1    2    0    0  0.19944180301E+02  0.21567018750E+02 -0.13560381448E+03  0.13876043693E+03  0.17770000000E+01 0. -1.
         15    1    1    2    0    0 -0.25381883473E+02 -0.19741725927E+02 -0.11591082480E+03  0.12030150783E+03  0.17770000000E+01 0.  1.
</event>
<event>
 6    1  0.1860328E-003  0.5017777E+03  0.7546771E-02  0.9395841E-01
        -11   -1    0    0    0    0  0.00000000000E+00  0.00000000000E+00  0.50000000000E+03  0.50000000000E+03  0.00000000000E+00 0. -1.
         11   -1    0    0    0    0 -0.00000000000E+00 -0.00000000000E+00 -0.50000000000E+03  0.50000000000E+03  0.00000000000E+00 0. -1.
        -11    1    1    2    0    0  0.20814572091E+01 -0.13867170193E+01  0.10270553297E+03  0.10273598178E+03  0.00000000000E+00 0. -1.
         11    1    1    2    0    0 -0.11088031468E+02  0.52115587395E+01 -0.49807164944E+03  0.49822231259E+03  0.00000000000E+00 0. -1.
        -15    1    1    2    0    0  0.14973715898E+02  0.71473960072E+01  0.38599035561E+02  0.42051643401E+02  0.17770000000E+01 0.  1.
         15    1    1    2    0    0 -0.59671416394E+01 -0.10972237727E+02  0.35676708091E+03  0.35699006223E+03  0.17770000000E+01 0. -1.
</event>
<event>
 6    1  0.1860328E-003  0.5111334E+03  0.7546771E-02  0.9375237E-01
        -11   -1    0    0    0    0  0.00000000000E+00  0.00000000000E+00  0.50000000000E+03  0.50000000000E+03  0.00000000000E+00 0.  1.
         11   -1    0    0    0    0 -0.00000000000E+00 -0.00000000000E+00 -0.50000000000E+03  0.50000000000E+03  0.00000000000E+00 0. -1.
        -11    1    1    2    0    0 -0.77420708348E+01 -0.13132942999E+02  0.47070153558E+03  0.47094835115E+03  0.00000000000E+00 0.  1.
         11    1    1    2    0    0  0.96867050186E+01 -0.14234570787E+02 -0.48856334600E+03  0.48886664676E+03  0.00000000000E+00 0. -1.
        -15    1    1    2    0    0 -0.21200471207E+01  0.77289438507E+01  0.18726180610E+02  0.20446484834E+02  0.17770000000E+01 0. -1.
         15    1    1    2    0    0  0.17541293680E+00  0.19638569935E+02 -0.86437018858E+00  0.19738517260E+02  0.17770000000E+01 0.  1.
</event>
<event>
 6    1  0.1860328E-003  0.5074492E+03  0.7546771E-02  0.9383294E-01
        -11   -1    0    0    0    0  0.00000000000E+00  0.00000000000E+00  0.50000000000E+03  0.50000000000E+03  0.00000000000E+00 0.  1.
         11   -1    0    0    0    0 -0.00000000000E+00 -0.00000000000E+00 -0.50000000000E+03  0.50000000000E+03  0.00000000000E+00 0. -1.
        -11    1    1    2    0    0  0.11749904471E+02  0.15183256155E+02  0.49217646993E+03  0.49255077817E+03  0.00000000000E+00 0.  1.
         11    1    1    2    0    0  0.60784056833E+01  0.12539105678E+02 -0.33436113794E+03  0.33465138092E+03  0.00000000000E+00 0. -1.
        -15    1    1    2    0    0 -0.13657882372E+02 -0.22471436787E+02 -0.16041397966E+02  0.30854293054E+02  0.17770000000E+01 0.  1.
         15    1    1    2    0    0 -0.41704277828E+01 -0.52509250464E+01 -0.14177393403E+03  0.14194354786E+03  0.17770000000E+01 0. -1.
</event>
<event>
 6    1  0.1860328E-003  0.5057018E+03  0.7546771E-02  0.9387141E-01
        -11   -1    0    0    0    0  0.00000000000E+00  0.00000000000E+00  0.50000000000E+03  0.50000000000E+03  0.00000000000E+00 0. -1.
         11   -1    0    0    0    0 -0.00000000000E+00 -0.00000000000E+00 -0.50000000000E+03  0.50000000000E+03  0.00000000000E+00 0.  1.
        -11    1    1    2    0    0  0.21366285678E+02 -0.51110713891E+01  0.41846371412E+03  0.41903999958E+03  0.00000000000E+00 0. -1.
         11    1    1    2    0    0 -0.14580575067E+02  0.17170117845E+02 -0.49378470993E+03  0.49429823576E+03  0.00000000000E+00 0.  1.
        -15    1    1    2    0    0  0.95081435329E+01 -0.19559705044E+02  0.24860780999E+02  0.33078739633E+02  0.17770000000E+01 0. -1.
         15    1    1    2    0    0 -0.16293854144E+02  0.75006585889E+01  0.50460214813E+02  0.53583025019E+02  0.17770000000E+01 0.  1.
</event>
<event>
 6    1  0.1860328E-003  0.5480211E+03  0.7546771E-02  0.9298338E-01
        -11   -1    0    0    0    0  0.00000000000E+00  0.00000000000E+00  0.50000000000E+03  0.50000000000E+03  0.00000000000E+00 0. -1.
         11   -1    0    0    0    0 -0.00000000000E+00 -0.00000000000E+00 -0.50000000000E+03  0.50000000000E+03  0.00000000000E+00 0. -1.
        -11    1    1    2    0    0 -0.51458630239E+01  0.30682173310E+01  0.29063756879E+03  0.29069931244E+03  0.00000000000E+00 0. -1.
         11    1    1    2    0    0 -0.23473916520E+02 -0.39497631710E+01 -0.45135159519E+03  0.45197885777E+03  0.00000000000E+00 0. -1.
        -15    1    1    2    0    0  0.43661197661E+02  0.12647722163E+02 -0.37025620671E+02  0.58654235757E+02  0.17770000000E+01 0.  1.
         15    1    1    2    0    0 -0.15041418117E+02 -0.11766176323E+02  0.19773964708E+03  0.19866759403E+03  0.17770000000E+01 0. -1.
</event>
<event>
 6    1  0.1860328E-003  0.5002458E+03  0.7546771E-02  0.9399260E-01
        -11   -1    0    0    0    0  0.00000000000E+00  0.00000000000E+00  0.50000000000E+03  0.50000000000E+03  0.00000000000E+00 0.  1.
         11   -1    0    0    0    0 -0.00000000000E+00 -0.00000000000E+00 -0.50000000000E+03  0.50000000000E+03  0.00000000000E+00 0. -1.
        -11    1    1    2    0    0  0.16899582049E+01  0.75150125563E+01  0.16996637644E+03  0.17014082548E+03  0.00000000000E+00 0.  1.
         11    1    1    2    0    0  0.50661111293E+01 -0.10483776562E+02 -0.49961854357E+03  0.49975420371E+03  0.00000000000E+00 0. -1.
        -15    1    1    2    0    0 -0.50184643984E+01 -0.16924059127E+01  0.29496480203E+03  0.29501769674E+03  0.17770000000E+01 0.  1.
         15    1    1    2    0    0 -0.17376049358E+01  0.46611699184E+01  0.34687365092E+02  0.35087274074E+02  0.17770000000E+01 0. -1.
</event>
<event>
 6    1  0.1860328E-003  0.5030922E+03  0.7546771E-02  0.9392917E-01
        -11   -1    0    0    0    0  0.00000000000E+00  0.00000000000E+00  0.50000000000E+03  0.50000000000E+03  0.00000000000E+00 0.  1.
         11   -1    0    0    0    0 -0.00000000000E+00 -0.00000000000E+00 -0.50000000000E+03  0.50000000000E+03  0.00000000000E+00 0. -1.
        -11    1    1    2    0    0  0.81379799298E+01  0.47013738895E+01  0.49681890110E+03  0.49690778835E+03  0.00000000000E+00 0.  1.
         11    1    1    2    0    0  0.30199456145E+01  0.99335854617E+01 -0.41760930846E+03  0.41773835197E+03  0.00000000000E+00 0. -1.
        -15    1    1    2    0    0  0.80206628414E+01 -0.19586907841E+01 -0.26723765601E+02  0.28026503152E+02  0.17770000000E+01 0.  1.
         15    1    1    2    0    0 -0.19178588386E+02 -0.12676268567E+02 -0.52485827043E+02  0.57327356529E+02  0.17770000000E+01 0. -1.
</event>
<event>
 6    1  0.1860328E-003  0.5075856E+03  0.7546771E-02  0.9382994E-01
        -11   -1    0    0    0    0  0.00000000000E+00  0.00000000000E+00  0.50000000000E+03  0.50000000000E+03  0.00000000000E+00 0. -1.
         11   -1    0    0    0    0 -0.00000000000E+00 -0.00000000000E+00 -0.50000000000E+03  0.50000000000E+03  0.00000000000E+00 0.  1.
        -11    1    1    2    0    0 -0.14908078247E+02 -0.19869907505E+02  0.49178741770E+03  0.49241438670E+03  0.00000000000E+00 0. -1.
         11    1    1    2    0    0  0.37699213320E+01  0.43465194471E+01 -0.41915651846E+03  0.41919600607E+03  0.00000000000E+00 0.  1.
        -15    1    1    2    0    0  0.17911225131E+02  0.16406475553E+02 -0.11642615221E+02  0.26994307621E+02  0.17770000000E+01 0. -1.
         15    1    1    2    0    0 -0.67730682155E+01 -0.88308749498E+00 -0.60988284021E+02  0.61395299603E+02  0.17770000000E+01 0. -1.
</event>
<event>
 6    1  0.1860328E-003  0.5022150E+03  0.7546771E-02  0.9394867E-01
        -11   -1    0    0    0    0  0.00000000000E+00  0.00000000000E+00  0.50000000000E+03  0.50000000000E+03  0.00000000000E+00 0.  1.
         11   -1    0    0    0    0 -0.00000000000E+00 -0.00000000000E+00 -0.50000000000E+03  0.50000000000E+03  0.00000000000E+00 0.  1.
        -11    1    1    2    0    0  0.14103986616E+01 -0.10410914081E+02  0.49767409641E+03  0.49778497626E+03  0.00000000000E+00 0.  1.
         11    1    1    2    0    0 -0.36637203599E+01  0.30042156093E+01 -0.33472038608E+03  0.33475391711E+03  0.00000000000E+00 0.  1.
        -15    1    1    2    0    0 -0.26122934348E+01  0.66699123319E+01 -0.39491789840E+01  0.83705167793E+01  0.17770000000E+01 0.  1.
         15    1    1    2    0    0  0.48656151331E+01  0.73678613949E+00 -0.15900453134E+03  0.15909058985E+03  0.17770000000E+01 0. -1.
</event>
<event>
 6    1  0.1860328E-003  0.5310468E+03  0.7546771E-02  0.9332900E-01
        -11   -1    0    0    0    0  0.00000000000E+00  0.00000000000E+00  0.50000000000E+03  0.50000000000E+03  0.00000000000E+00 0.  1.
         11   -1    0    0    0    0 -0.00000000000E+00 -0.00000000000E+00 -0.50000000000E+03  0.50000000000E+03  0.00000000000E+00 0.  1.
        -11    1    1    2    0    0  0.26531069740E+02 -0.96819087643E-01  0.46820212632E+03  0.46895323661E+03  0.00000000000E+00 0.  1.
         11    1    1    2    0    0 -0.20372448917E+02 -0.86801133112E+01 -0.46076375006E+03  0.46129558248E+03  0.00000000000E+00 0.  1.
        -15    1    1    2    0    0 -0.30044474832E+02  0.23115787349E+02  0.65759115055E+01  0.38515067621E+02  0.17770000000E+01 0. -1.
         15    1    1    2    0    0  0.23885854010E+02 -0.14338854950E+02 -0.14014287767E+02  0.31236113293E+02  0.17770000000E+01 0.  1.
</event>
<event>
 6    1  0.1860328E-003  0.5013316E+03  0.7546771E-02  0.9396835E-01
        -11   -1    0    0    0    0  0.00000000000E+00  0.00000000000E+00  0.50000000000E+03  0.50000000000E+03  0.00000000000E+00 0.  1.
         11   -1    0    0    0    0 -0.00000000000E+00 -0.00000000000E+00 -0.50000000000E+03  0.50000000000E+03  0.00000000000E+00 0.  1.
        -11    1    1    2    0    0  0.12536436309E+02  0.11187162305E+02  0.49838526905E+03  0.49866841813E+03  0.00000000000E+00 0.  1.
         11    1    1    2    0    0 -0.11685258010E+02 -0.15174420472E+00 -0.39301222992E+03  0.39318593712E+03  0.00000000000E+00 0.  1.
        -15    1    1    2    0    0  0.27293647245E+01 -0.39368306608E+01 -0.94091623705E+02  0.94230246990E+02  0.17770000000E+01 0. -1.
         15    1    1    2    0    0 -0.35805430234E+01 -0.70985874399E+01 -0.11281415422E+02  0.13915397763E+02  0.17770000000E+01 0.  1.
</event>
<event>
 6    1  0.1860328E-003  0.5018471E+03  0.7546771E-02  0.9395686E-01
        -11   -1    0    0    0    0  0.00000000000E+00  0.00000000000E+00  0.50000000000E+03  0.50000000000E+03  0.00000000000E+00 0.  1.
         11   -1    0    0    0    0 -0.00000000000E+00 -0.00000000000E+00 -0.50000000000E+03  0.50000000000E+03  0.00000000000E+00 0. -1.
        -11    1    1    2    0    0 -0.27803012736E+00  0.77100544266E+01  0.49809310433E+03  0.49815285086E+03  0.00000000000E+00 0.  1.
         11    1    1    2    0    0 -0.74842169028E+01 -0.45449479200E+00 -0.47489583133E+03  0.47495501964E+03  0.00000000000E+00 0. -1.
        -15    1    1    2    0    0  0.79762461961E+01 -0.25598633389E+01 -0.13991031818E+02  0.16403661300E+02  0.17770000000E+01 0. -1.
         15    1    1    2    0    0 -0.21399916594E+00 -0.46956962957E+01 -0.92062411862E+01  0.10488468197E+02  0.17770000000E+01 0.  1.
</event>
<event>
 6    1  0.1860328E-003  0.5054956E+03  0.7546771E-02  0.9387596E-01
        -11   -1    0    0    0    0  0.00000000000E+00  0.00000000000E+00  0.50000000000E+03  0.50000000000E+03  0.00000000000E+00 0.  1.
         11   -1    0    0    0    0 -0.00000000000E+00 -0.00000000000E+00 -0.50000000000E+03  0.50000000000E+03  0.00000000000E+00 0.  1.
        -11    1    1    2    0    0 -0.28444669943E+01 -0.61086045612E+01  0.48601064137E+03  0.48605735213E+03  0.00000000000E+00 0.  1.
         11    1    1    2    0    0  0.11621459849E+02  0.17014723256E+01 -0.49436491664E+03  0.49450442277E+03  0.00000000000E+00 0.  1.
        -15    1    1    2    0    0  0.32860642687E+01  0.35531941911E+01  0.12671707350E+01  0.53091296847E+01  0.17770000000E+01 0.  1.
         15    1    1    2    0    0 -0.12063057123E+02  0.85393804445E+00  0.70871045379E+01  0.14129095409E+02  0.17770000000E+01 0.  1.
</event>
<event>
 6    1  0.1860328E-003  0.5016081E+03  0.7546771E-02  0.9396219E-01
        -11   -1    0    0    0    0  0.00000000000E+00  0.00000000000E+00  0.50000000000E+03  0.50000000000E+03  0.00000000000E+00 0.  1.
         11   -1    0    0    0    0 -0.00000000000E+00 -0.00000000000E+00 -0.50000000000E+03  0.50000000000E+03  0.00000000000E+00 0. -1.
        -11    1    1    2    0    0 -0.69936324404E+01  0.19798799330E+01  0.46282565379E+03  0.46288272448E+03  0.00000000000E+00 0.  1.
         11    1    1    2    0    0 -0.67035220247E+01  0.13081478828E+01 -0.49834514797E+03  0.49839194914E+03  0.00000000000E+00 0. -1.
        -15    1    1    2    0    0  0.11124223190E+02 -0.31926331797E+01  0.22849964945E+02  0.25675277509E+02  0.17770000000E+01 0.  1.
         15    1    1    2    0    0  0.25729312752E+01 -0.95394636007E-01  0.12669529240E+02  0.13050048875E+02  0.17770000000E+01 0.  1.
</event>
<event>
 6    1  0.1860328E-003  0.5015039E+03  0.7546771E-02  0.9396451E-01
        -11   -1    0    0    0    0  0.00000000000E+00  0.00000000000E+00  0.50000000000E+03  0.50000000000E+03  0.00000000000E+00 0.  1.
         11   -1    0    0    0    0 -0.00000000000E+00 -0.00000000000E+00 -0.50000000000E+03  0.50000000000E+03  0.00000000000E+00 0. -1.
        -11    1    1    2    0    0  0.73523939218E+01  0.33356478371E+01  0.49843070292E+03  0.49849608810E+03  0.00000000000E+00 0.  1.
         11    1    1    2    0    0 -0.22441498723E+01 -0.65999245315E+01 -0.44949319673E+03  0.44954724904E+03  0.00000000000E+00 0. -1.
        -15    1    1    2    0    0 -0.23202719309E+01  0.10411660124E+01 -0.47677166312E+02  0.47778003360E+02  0.17770000000E+01 0.  1.
         15    1    1    2    0    0 -0.27879721186E+01  0.22231106820E+01 -0.12603398778E+01  0.41786595035E+01  0.17770000000E+01 0. -1.
</event>
<event>
 6    1  0.1860328E-003  0.5006883E+03  0.7546771E-02  0.9398271E-01
        -11   -1    0    0    0    0  0.00000000000E+00  0.00000000000E+00  0.50000000000E+03  0.50000000000E+03  0.00000000000E+00 0.  1.
         11   -1    0    0    0    0 -0.00000000000E+00 -0.00000000000E+00 -0.50000000000E+03  0.50000000000E+03  0.00000000000E+00 0. -1.
        -11    1    1    2    0    0  0.78415584879E+01  0.69688650157E+01  0.49920148397E+03  0.49931170296E+03  0.00000000000E+00 0.  1.
         11    1    1    2    0    0 -0.60228847551E+01  0.17775934383E+01 -0.44358065852E+03  0.44362510703E+03  0.00000000000E+00 0. -1.
        -15    1    1    2    0    0 -0.38474463857E+01 -0.88524553867E+01 -0.47571862692E+02  0.48573744544E+02  0.17770000000E+01 0.  1.
         15    1    1    2    0    0  0.20287726530E+01  0.10599693273E+00 -0.80489627541E+01  0.84894454615E+01  0.17770000000E+01 0. -1.
</event>
<event>
 6    1  0.1860328E-003  0.4898288E+03  0.7546771E-02  0.9422861E-01
        -11   -1    0    0    0    0  0.00000000000E+00  0.00000000000E+00  0.50000000000E+03  0.50000000000E+03  0.00000000000E+00 0.  1.
         11   -1    0    0    0    0 -0.00000000000E+00 -0.00000000000E+00 -0.50000000000E+03  0.50000000000E+03  0.00000000000E+00 0.  1.
        -11    1    1    2    0    0  0.43831126745E+01 -0.50943749561E+01  0.49215541920E+03  0.49220130128E+03  0.00000000000E+00 0.  1.
         11    1    1    2    0    0 -0.87940634855E+00 -0.76229807456E+01 -0.48749586542E+03  0.48755625521E+03  0.00000000000E+00 0.  1.
        -15    1    1    2    0    0 -0.17807004183E+01  0.25962051814E+01 -0.84215501120E+01  0.91646827884E+01  0.17770000000E+01 0. -1.
         15    1    1    2    0    0 -0.17230059077E+01  0.10121150520E+02  0.37619963328E+01  0.11077760722E+02  0.17770000000E+01 0.  1.
</event>
<event>
 6    1  0.1860328E-003  0.5000344E+03  0.7546771E-02  0.9399733E-01
        -11   -1    0    0    0    0  0.00000000000E+00  0.00000000000E+00  0.50000000000E+03  0.50000000000E+03  0.00000000000E+00 0.  1.
         11   -1    0    0    0    0 -0.00000000000E+00 -0.00000000000E+00 -0.50000000000E+03  0.50000000000E+03  0.00000000000E+00 0.  1.
        -11    1    1    2    0    0 -0.24755881841E+00  0.15839069229E+01  0.89953400834E+02  0.89967685133E+02  0.00000000000E+00 0.  1.
         11    1    1    2    0    0  0.75141553379E+01 -0.58340639923E+01 -0.49987511006E+03  0.49996562331E+03  0.00000000000E+00 0.  1.
        -15    1    1    2    0    0 -0.67092651312E+01  0.47002170410E+01  0.37399889264E+03  0.37409281697E+03  0.17770000000E+01 0.  1.
         15    1    1    2    0    0 -0.55733138832E+00 -0.45005997156E+00  0.35922816588E+02  0.35973874588E+02  0.17770000000E+01 0.  1.
</event>
<event>
 6    1  0.1860328E-003  0.5048424E+03  0.7546771E-02  0.9389039E-01
        -11   -1    0    0    0    0  0.00000000000E+00  0.00000000000E+00  0.50000000000E+03  0.50000000000E+03  0.00000000000E+00 0.  1.
         11   -1    0    0    0    0 -0.00000000000E+00 -0.00000000000E+00 -0.50000000000E+03  0.50000000000E+03  0.00000000000E+00 0.  1.
        -11    1    1    2    0    0 -0.48545936593E+01  0.14140316837E+02  0.49493188225E+03  0.49515763521E+03  0.00000000000E+00 0.  1.
         11    1    1    2    0    0 -0.89511061562E+01 -0.45765533125E+01 -0.45116901570E+03  0.45128100766E+03  0.00000000000E+00 0.  1.
        -15    1    1    2    0    0  0.87884509042E+01 -0.54250463673E+01 -0.12925577004E+01  0.10559187080E+02  0.17770000000E+01 0. -1.
         15    1    1    2    0    0  0.50172489113E+01 -0.41387171568E+01 -0.42470308848E+02  0.43002170050E+02  0.17770000000E+01 0.  1.
</event>
<event>
 6    1  0.1860328E-003  0.5152540E+03  0.7546771E-02  0.9366310E-01
        -11   -1    0    0    0    0  0.00000000000E+00  0.00000000000E+00  0.50000000000E+03  0.50000000000E+03  0.00000000000E+00 0.  1.
         11   -1    0    0    0    0 -0.00000000000E+00 -0.00000000000E+00 -0.50000000000E+03  0.50000000000E+03  0.00000000000E+00 0. -1.
        -11    1    1    2    0    0  0.22460296762E+01 -0.73831607793E+01  0.48468455848E+03  0.48474599218E+03  0.00000000000E+00 0.  1.
         11    1    1    2    0    0 -0.67484534146E+01 -0.59327502859E+00 -0.46910343103E+03  0.46915234477E+03  0.00000000000E+00 0. -1.
        -15    1    1    2    0    0  0.14732944829E+00  0.69338405297E+01  0.14216272621E+02  0.15917285782E+02  0.17770000000E+01 0. -1.
         15    1    1    2    0    0  0.43550942900E+01  0.10425952782E+01 -0.29797400068E+02  0.30184377267E+02  0.17770000000E+01 0.  1.
</event>
<event>
 6    1  0.1860328E-003  0.5290578E+03  0.7546771E-02  0.9337040E-01
        -11   -1    0    0    0    0  0.00000000000E+00  0.00000000000E+00  0.50000000000E+03  0.50000000000E+03  0.00000000000E+00 0.  1.
         11   -1    0    0    0    0 -0.00000000000E+00 -0.00000000000E+00 -0.50000000000E+03  0.50000000000E+03  0.00000000000E+00 0. -1.
        -11    1    1    2    0    0 -0.45608103802E+01  0.75131151960E+01  0.47086020586E+03  0.47094222719E+03  0.00000000000E+00 0.  1.
         11    1    1    2    0    0 -0.12673639073E+02  0.13152806207E+01 -0.44736867030E+03  0.44755008464E+03  0.00000000000E+00 0. -1.
        -15    1    1    2    0    0  0.36261502313E+01 -0.17454784358E+02  0.24785116769E+02  0.30582318499E+02  0.17770000000E+01 0. -1.
         15    1    1    2    0    0  0.13608299221E+02  0.86263885417E+01 -0.48276652330E+02  0.50925369671E+02  0.17770000000E+01 0.  1.
</event>
<event>
 6    1  0.1860328E-003  0.5163758E+03  0.7546771E-02  0.9363895E-01
        -11   -1    0    0    0    0  0.00000000000E+00  0.00000000000E+00  0.50000000000E+03  0.50000000000E+03  0.00000000000E+00 0.  1.
         11   -1    0    0    0    0 -0.00000000000E+00 -0.00000000000E+00 -0.50000000000E+03  0.50000000000E+03  0.00000000000E+00 0. -1.
        -11    1    1    2    0    0 -0.20562689045E+02 -0.26787597438E+01  0.48317944270E+03  0.48362420719E+03  0.00000000000E+00 0.  1.
         11    1    1    2    0    0  0.16186481391E+01  0.20406392858E+02 -0.40990880987E+03  0.41041963075E+03  0.00000000000E+00 0. -1.
        -15    1    1    2    0    0  0.36903905483E+02  0.51221268722E+01 -0.66211710585E+02  0.75995281243E+02  0.17770000000E+01 0. -1.
         15    1    1    2    0    0 -0.17959864577E+02 -0.22849759986E+02 -0.70589222451E+01  0.29960880817E+02  0.17770000000E+01 0.  1.
</event>
<event>
 6    1  0.1860328E-003  0.5001559E+03  0.7546771E-02  0.9399461E-01
        -11   -1    0    0    0    0  0.00000000000E+00  0.00000000000E+00  0.50000000000E+03  0.50000000000E+03  0.00000000000E+00 0. -1.
         11   -1    0    0    0    0 -0.00000000000E+00 -0.00000000000E+00 -0.50000000000E+03  0.50000000000E+03  0.00000000000E+00 0.  1.
        -11    1    1    2    0    0 -0.21545197072E+01 -0.23034771040E+01  0.17390782136E+03  0.17393642026E+03  0.00000000000E+00 0. -1.
         11    1    1    2    0    0 -0.51585716801E+00  0.84430712656E+01 -0.49977248957E+03  0.49984406858E+03  0.00000000000E+00 0.  1.
        -15    1    1    2    0    0  0.36817837544E+01 -0.42147756551E+01  0.31286079545E+03  0.31291589113E+03  0.17770000000E+01 0. -1.
         15    1    1    2    0    0 -0.10114068792E+01 -0.19248185064E+01  0.13003872765E+02  0.13303620035E+02  0.17770000000E+01 0. -1.
</event>
<event>
 6    1  0.1860328E-003  0.5056518E+03  0.7546771E-02  0.9387251E-01
        -11   -1    0    0    0    0  0.00000000000E+00  0.00000000000E+00  0.50000000000E+03  0.50000000000E+03  0.00000000000E+00 0. -1.
         11   -1    0    0    0    0 -0.00000000000E+00 -0.00000000000E+00 -0.50000000000E+03  0.50000000000E+03  0.00000000000E+00 0.  1.
        -11    1    1    2    0    0  0.95278121280E+01 -0.11250454365E+02  0.45881308505E+03  0.45904988720E+03  0.00000000000E+00 0. -1.
         11    1    1    2    0    0  0.94139061207E+01  0.35116294650E+01 -0.49424608896E+03  0.49434820686E+03  0.00000000000E+00 0.  1.
        -15    1    1    2    0    0 -0.17833983108E+02  0.40683171500E+01  0.37601262437E+02  0.41852297712E+02  0.17770000000E+01 0. -1.
         15    1    1    2    0    0 -0.11077351405E+01  0.36705077502E+01 -0.21682585224E+01  0.47496082265E+01  0.17770000000E+01 0.  1.
</event>
<event>
 6    1  0.1860328E-003  0.5006744E+03  0.7546771E-02  0.9398302E-01
        -11   -1    0    0    0    0  0.00000000000E+00  0.00000000000E+00  0.50000000000E+03  0.50000000000E+03  0.00000000000E+00 0.  1.
         11   -1    0    0    0    0 -0.00000000000E+00 -0.00000000000E+00 -0.50000000000E+03  0.50000000000E+03  0.00000000000E+00 0. -1.
        -11    1    1    2    0    0 -0.75944663056E+01  0.25357971723E+01  0.49926137962E+03  0.49932557652E+03  0.00000000000E+00 0.  1.
         11    1    1    2    0    0  0.54719876333E+01 -0.16936666655E+01 -0.41654534080E+03  0.41658472379E+03  0.00000000000E+00 0. -1.
        -15    1    1    2    0    0  0.59941109562E+01 -0.30928880516E+01 -0.19860246411E+02  0.21049523490E+02  0.17770000000E+01 0. -1.
         15    1    1    2    0    0 -0.38716322840E+01  0.22507575449E+01 -0.62855792413E+02  0.63040176197E+02  0.17770000000E+01 0.  1.
</event>
<event>
 6    1  0.1860328E-003  0.5012595E+03  0.7546771E-02  0.9396996E-01
        -11   -1    0    0    0    0  0.00000000000E+00  0.00000000000E+00  0.50000000000E+03  0.50000000000E+03  0.00000000000E+00 0. -1.
         11   -1    0    0    0    0 -0.00000000000E+00 -0.00000000000E+00 -0.50000000000E+03  0.50000000000E+03  0.00000000000E+00 0. -1.
        -11    1    1    2    0    0  0.32844694888E+01 -0.75776744852E+00  0.15926597653E+03  0.15930164228E+03  0.00000000000E+00 0. -1.
         11    1    1    2    0    0 -0.98137918231E+00 -0.13265005529E+02 -0.49856309951E+03  0.49874050133E+03  0.00000000000E+00 0. -1.
        -15    1    1    2    0    0  0.97739796584E+01 -0.21125128249E+01  0.25733713415E+03  0.25753747636E+03  0.17770000000E+01 0. -1.
         15    1    1    2    0    0 -0.12077069965E+02  0.16135285803E+02  0.81959988826E+02  0.84420380029E+02  0.17770000000E+01 0.  1.
</event>
<event>
 6    1  0.1860328E-003  0.5005449E+03  0.7546771E-02  0.9398591E-01
        -11   -1    0    0    0    0  0.00000000000E+00  0.00000000000E+00  0.50000000000E+03  0.50000000000E+03  0.00000000000E+00 0.  1.
         11   -1    0    0    0    0 -0.00000000000E+00 -0.00000000000E+00 -0.50000000000E+03  0.50000000000E+03  0.00000000000E+00 0.  1.
        -11    1    1    2    0    0  0.69134102402E+01  0.10860154567E+01  0.49940606665E+03  0.49945509716E+03  0.00000000000E+00 0.  1.
         11    1    1    2    0    0  0.92762850034E+01  0.65911172168E-01 -0.29352813917E+03  0.29367468787E+03  0.00000000000E+00 0.  1.
        -15    1    1    2    0    0 -0.12557839093E+02 -0.27848754487E+01 -0.92334190187E+02  0.93242775915E+02  0.17770000000E+01 0.  1.
         15    1    1    2    0    0 -0.36318561507E+01  0.16329488199E+01 -0.11354373729E+03  0.11362743906E+03  0.17770000000E+01 0. -1.
</event>
<event>
 6    1  0.1860328E-003  0.5009393E+03  0.7546771E-02  0.9397710E-01
        -11   -1    0    0    0    0  0.00000000000E+00  0.00000000000E+00  0.50000000000E+03  0.50000000000E+03  0.00000000000E+00 0.  1.
         11   -1    0    0    0    0 -0.00000000000E+00 -0.00000000000E+00 -0.50000000000E+03  0.50000000000E+03  0.00000000000E+00 0.  1.
        -11    1    1    2    0    0  0.10892334495E+02  0.13127793425E+02  0.49876907856E+03  0.49906069334E+03  0.00000000000E+00 0.  1.
         11    1    1    2    0    0 -0.74846217640E+01 -0.58728302055E+01 -0.21927273776E+03  0.21947902684E+03  0.00000000000E+00 0.  1.
        -15    1    1    2    0    0 -0.82564277206E+01 -0.14423241603E+02 -0.78013965062E+02  0.79784302784E+02  0.17770000000E+01 0. -1.
         15    1    1    2    0    0  0.48487149892E+01  0.71682783829E+01 -0.20148237573E+03  0.20167597703E+03  0.17770000000E+01 0.  1.
</event>
<event>
 6    1  0.1860328E-003  0.5012760E+03  0.7546771E-02  0.9396959E-01
        -11   -1    0    0    0    0  0.00000000000E+00  0.00000000000E+00  0.50000000000E+03  0.50000000000E+03  0.00000000000E+00 0. -1.
         11   -1    0    0    0    0 -0.00000000000E+00 -0.00000000000E+00 -0.50000000000E+03  0.50000000000E+03  0.00000000000E+00 0. -1.
        -11    1    1    2    0    0 -0.95466410419E+01 -0.43397652461E+01  0.49861377771E+03  0.49872404318E+03  0.00000000000E+00 0. -1.
         11    1    1    2    0    0  0.11152593799E+02 -0.49952075493E+01 -0.45988605831E+03  0.46004838776E+03  0.00000000000E+00 0. -1.
        -15    1    1    2    0    0 -0.36966015471E+01  0.62369360153E+01 -0.34549694856E+02  0.35346900536E+02  0.17770000000E+01 0.  1.
         15    1    1    2    0    0  0.20906487899E+01  0.30980367802E+01 -0.41780245446E+01  0.58806685291E+01  0.17770000000E+01 0. -1.
</event>
<event>
 6    1  0.1860328E-003  0.4965420E+03  0.7546771E-02  0.9407581E-01
        -11   -1    0    0    0    0  0.00000000000E+00  0.00000000000E+00  0.50000000000E+03  0.50000000000E+03  0.00000000000E+00 0.  1.
         11   -1    0    0    0    0 -0.00000000000E+00 -0.00000000000E+00 -0.50000000000E+03  0.50000000000E+03  0.00000000000E+00 0.  1.
        -11    1    1    2    0    0 -0.89555880497E+01 -0.14448377169E+02  0.49433474425E+03  0.49462692762E+03  0.00000000000E+00 0.  1.
         11    1    1    2    0    0 -0.32223498758E+01 -0.43191941784E+01 -0.15311104416E+02  0.16231724970E+02  0.00000000000E+00 0.  1.
        -15    1    1    2    0    0 -0.19030915391E+02  0.45561636522E+01 -0.42283241451E+03  0.42328872281E+03  0.17770000000E+01 0.  1.
         15    1    1    2    0    0  0.31208853317E+02  0.14211407695E+02 -0.56191225321E+02  0.65852624595E+02  0.17770000000E+01 0. -1.
</event>
<event>
 6    1  0.1860328E-003  0.5173638E+03  0.7546771E-02  0.9361774E-01
        -11   -1    0    0    0    0  0.00000000000E+00  0.00000000000E+00  0.50000000000E+03  0.50000000000E+03  0.00000000000E+00 0. -1.
         11   -1    0    0    0    0 -0.00000000000E+00 -0.00000000000E+00 -0.50000000000E+03  0.50000000000E+03  0.00000000000E+00 0. -1.
        -11    1    1    2    0    0  0.12221214366E+02 -0.11140282323E+02  0.41342105647E+03  0.41375165728E+03  0.00000000000E+00 0. -1.
         11    1    1    2    0    0  0.14752730185E+02  0.17508117913E+02 -0.48209290237E+03  0.48263624372E+03  0.00000000000E+00 0. -1.
        -15    1    1    2    0    0 -0.33252379847E+02  0.87198794886E+01  0.77609781576E+02  0.84901077668E+02  0.17770000000E+01 0. -1.
         15    1    1    2    0    0  0.62784352960E+01 -0.15087715078E+02 -0.89379356758E+01  0.18711021330E+02  0.17770000000E+01 0.  1.
</event>
<event>
 6    1  0.1860328E-003  0.5034720E+03  0.7546771E-02  0.9392074E-01
        -11   -1    0    0    0    0  0.00000000000E+00  0.00000000000E+00  0.50000000000E+03  0.50000000000E+03  0.00000000000E+00 0.  1.
         11   -1    0    0    0    0 -0.00000000000E+00 -0.00000000000E+00 -0.50000000000E+03  0.50000000000E+03  0.00000000000E+00 0.  1.
        -11    1    1    2    0    0  0.62488197960E+01 -0.61080596780E+01  0.36887546534E+03  0.36897894936E+03  0.00000000000E+00 0.  1.
         11    1    1    2    0    0 -0.62663062713E+01 -0.11025482435E+02 -0.49636602272E+03  0.49652800160E+03  0.00000000000E+00 0.  1.
        -15    1    1    2    0    0 -0.14237096375E+02  0.29537632676E+01  0.18241818093E+02  0.23395326178E+02  0.17770000000E+01 0. -1.
         15    1    1    2    0    0  0.14254582851E+02  0.14179778845E+02  0.10924873929E+03  0.11109772287E+03  0.17770000000E+01 0.  1.
</event>
<event>
 6    1  0.1860328E-003  0.5192304E+03  0.7546771E-02  0.9357779E-01
        -11   -1    0    0    0    0  0.00000000000E+00  0.00000000000E+00  0.50000000000E+03  0.50000000000E+03  0.00000000000E+00 0.  1.
         11   -1    0    0    0    0 -0.00000000000E+00 -0.00000000000E+00 -0.50000000000E+03  0.50000000000E+03  0.00000000000E+00 0. -1.
        -11    1    1    2    0    0 -0.11440146769E+01 -0.26579191176E+02  0.48003292201E+03  0.48076955851E+03  0.00000000000E+00 0.  1.
         11    1    1    2    0    0 -0.13609822963E+02  0.48184313752E+02 -0.44039293393E+03  0.44323006625E+03  0.00000000000E+00 0. -1.
        -15    1    1    2    0    0  0.31966398997E+02 -0.31487164906E+02 -0.28127666196E+02  0.52986937572E+02  0.17770000000E+01 0. -1.
         15    1    1    2    0    0 -0.17212561356E+02  0.98820423300E+01 -0.11512321887E+02  0.23013437668E+02  0.17770000000E+01 0.  1.
</event>
<event>
 6    1  0.1860328E-003  0.5726496E+03  0.7546771E-02  0.9250483E-01
        -11   -1    0    0    0    0  0.00000000000E+00  0.00000000000E+00  0.50000000000E+03  0.50000000000E+03  0.00000000000E+00 0.  1.
         11   -1    0    0    0    0 -0.00000000000E+00 -0.00000000000E+00 -0.50000000000E+03  0.50000000000E+03  0.00000000000E+00 0. -1.
        -11    1    1    2    0    0  0.10177094409E+02 -0.13842925538E+02  0.42700485441E+03  0.42735037795E+03  0.00000000000E+00 0.  1.
         11    1    1    2    0    0 -0.29482071059E+01 -0.54813039889E+01 -0.40870203717E+03  0.40874942423E+03  0.00000000000E+00 0. -1.
        -15    1    1    2    0    0  0.47582791734E+01  0.21337957194E+01 -0.89495908115E+02  0.89665319958E+02  0.17770000000E+01 0. -1.
         15    1    1    2    0    0 -0.11987166477E+02  0.17190433807E+02  0.71193090873E+02  0.74234877865E+02  0.17770000000E+01 0.  1.
</event>
<event>
 6    1  0.1860328E-003  0.5012451E+03  0.7546771E-02  0.9397028E-01
        -11   -1    0    0    0    0  0.00000000000E+00  0.00000000000E+00  0.50000000000E+03  0.50000000000E+03  0.00000000000E+00 0. -1.
         11   -1    0    0    0    0 -0.00000000000E+00 -0.00000000000E+00 -0.50000000000E+03  0.50000000000E+03  0.00000000000E+00 0.  1.
        -11    1    1    2    0    0  0.69928679428E+01 -0.46295501017E+01  0.49868434776E+03  0.49875486127E+03  0.00000000000E+00 0. -1.
         11    1    1    2    0    0 -0.13804303393E+02  0.71875983108E+01 -0.27602291499E+03  0.27646133538E+03  0.00000000000E+00 0.  1.
        -15    1    1    2    0    0  0.26701680119E+01 -0.10910737103E+00 -0.14648674784E+01  0.35277850501E+01  0.17770000000E+01 0.  1.
         15    1    1    2    0    0  0.41412674381E+01 -0.24489408380E+01 -0.22119656529E+03  0.22125601830E+03  0.17770000000E+01 0.  1.
</event>
<event>
 6    1  0.1860328E-003  0.5191973E+03  0.7546771E-02  0.9357850E-01
        -11   -1    0    0    0    0  0.00000000000E+00  0.00000000000E+00  0.50000000000E+03  0.50000000000E+03  0.00000000000E+00 0.  1.
         11   -1    0    0    0    0 -0.00000000000E+00 -0.00000000000E+00 -0.50000000000E+03  0.50000000000E+03  0.00000000000E+00 0. -1.
        -11    1    1    2    0    0 -0.80044890225E+01 -0.18749601797E+02  0.48037024477E+03  0.48080265335E+03  0.00000000000E+00 0.  1.
         11    1    1    2    0    0  0.94066824914E+01 -0.80354976432E+01 -0.37926385442E+03  0.37946557969E+03  0.00000000000E+00 0. -1.
        -15    1    1    2    0    0  0.21579180220E+02  0.34547827577E+02 -0.55734950024E+01  0.41151366742E+02  0.17770000000E+01 0.  1.
         15    1    1    2    0    0 -0.22981373689E+02 -0.77627281364E+01 -0.95532895341E+02  0.98580400213E+02  0.17770000000E+01 0. -1.
</event>
<event>
 6    1  0.1860328E-003  0.4822513E+03  0.7546771E-02  0.9440424E-01
        -11   -1    0    0    0    0  0.00000000000E+00  0.00000000000E+00  0.50000000000E+03  0.50000000000E+03  0.00000000000E+00 0. -1.
         11   -1    0    0    0    0 -0.00000000000E+00 -0.00000000000E+00 -0.50000000000E+03  0.50000000000E+03  0.00000000000E+00 0.  1.
        -11    1    1    2    0    0  0.10185383443E+02 -0.64616943850E+01  0.47991482730E+03  0.48006638811E+03  0.00000000000E+00 0. -1.
         11    1    1    2    0    0  0.47221690127E+01  0.82790893980E+01 -0.48447008059E+03  0.48456382571E+03  0.00000000000E+00 0.  1.
        -15    1    1    2    0    0 -0.17834523177E+02  0.11096743188E+02 -0.49755594570E+00  0.21085853487E+02  0.17770000000E+01 0. -1.
         15    1    1    2    0    0  0.29269707213E+01 -0.12914138201E+02  0.50528092305E+01  0.14283932694E+02  0.17770000000E+01 0.  1.
</event>
<event>
 6    1  0.1860328E-003  0.5014944E+03  0.7546771E-02  0.9396472E-01
        -11   -1    0    0    0    0  0.00000000000E+00  0.00000000000E+00  0.50000000000E+03  0.50000000000E+03  0.00000000000E+00 0. -1.
         11   -1    0    0    0    0 -0.00000000000E+00 -0.00000000000E+00 -0.50000000000E+03  0.50000000000E+03  0.00000000000E+00 0.  1.
        -11    1    1    2    0    0  0.31229462600E+01  0.44934677665E+01  0.38576253207E+03  0.38580134162E+03  0.00000000000E+00 0. -1.
         11    1    1    2    0    0  0.82652150791E+01 -0.54713907134E+01 -0.49840703272E+03  0.49850558689E+03  0.00000000000E+00 0.  1.
        -15    1    1    2    0    0  0.24780003995E+01 -0.56886718793E+01  0.70465070208E+02  0.70760054566E+02  0.17770000000E+01 0. -1.
         15    1    1    2    0    0 -0.13866161739E+02  0.66665948262E+01  0.42179430446E+02  0.44933016922E+02  0.17770000000E+01 0.  1.
</event>
<event>
 6    1  0.1860328E-003  0.5100590E+03  0.7546771E-02  0.9377579E-01
        -11   -1    0    0    0    0  0.00000000000E+00  0.00000000000E+00  0.50000000000E+03  0.50000000000E+03  0.00000000000E+00 0.  1.
         11   -1    0    0    0    0 -0.00000000000E+00 -0.00000000000E+00 -0.50000000000E+03  0.50000000000E+03  0.00000000000E+00 0.  1.
        -11    1    1    2    0    0 -0.88622636699E+01  0.22614210454E+01  0.48985565741E+03  0.48994103609E+03  0.00000000000E+00 0.  1.
         11    1    1    2    0    0 -0.13919036727E+02  0.19566812948E+01 -0.31452120705E+03  0.31483512807E+03  0.00000000000E+00 0.  1.
        -15    1    1    2    0    0  0.18252967892E+02 -0.29323612193E+01  0.12063421050E+01  0.18611355927E+02  0.17770000000E+01 0.  1.
         15    1    1    2    0    0  0.45283325055E+01 -0.12857411210E+01 -0.17654079247E+03  0.17661247991E+03  0.17770000000E+01 0. -1.
</event>
<event>
 6    1  0.1860328E-003  0.5030630E+03  0.7546771E-02  0.9392982E-01
        -11   -1    0    0    0    0  0.00000000000E+00  0.00000000000E+00  0.50000000000E+03  0.50000000000E+03  0.00000000000E+00 0.  1.
         11   -1    0    0    0    0 -0.00000000000E+00 -0.00000000000E+00 -0.50000000000E+03  0.50000000000E+03  0.00000000000E+00 0. -1.
        -11    1    1    2    0    0 -0.66592989660E+01  0.11238365688E+02  0.49676526163E+03  0.49693699026E+03  0.00000000000E+00 0.  1.
         11    1    1    2    0    0  0.19495475984E+02  0.48029958014E+01 -0.39379651087E+03  0.39430804497E+03  0.00000000000E+00 0. -1.
        -15    1    1    2    0    0 -0.45429423687E+01 -0.50186018612E+01 -0.26609330674E+01  0.74875218728E+01  0.17770000000E+01 0.  1.
         15    1    1    2    0    0 -0.82932346488E+01 -0.11022759629E+02 -0.10030781769E+03  0.10126744289E+03  0.17770000000E+01 0. -1.
</event>
<event>
 6    1  0.1860328E-003  0.5013079E+03  0.7546771E-02  0.9396888E-01
        -11   -1    0    0    0    0  0.00000000000E+00  0.00000000000E+00  0.50000000000E+03  0.50000000000E+03  0.00000000000E+00 0. -1.
         11   -1    0    0    0    0 -0.00000000000E+00 -0.00000000000E+00 -0.50000000000E+03  0.50000000000E+03  0.00000000000E+00 0. -1.
        -11    1    1    2    0    0 -0.94699152735E+01 -0.21041143425E+02  0.49815796940E+03  0.49869206078E+03  0.00000000000E+00 0. -1.
         11    1    1    2    0    0  0.40516045049E+01  0.24646880338E+01 -0.16512836611E+03  0.16519645117E+03  0.00000000000E+00 0. -1.
        -15    1    1    2    0    0 -0.10367794746E+02  0.20054397499E+02 -0.99808941984E+02  0.10234575055E+03  0.17770000000E+01 0.  1.
         15    1    1    2    0    0  0.15786105515E+02 -0.14779421082E+01 -0.23322066130E+03  0.23376573750E+03  0.17770000000E+01 0. -1.
</event>
<event>
 6    1  0.1860328E-003  0.5136137E+03  0.7546771E-02  0.9369853E-01
        -11   -1    0    0    0    0  0.00000000000E+00  0.00000000000E+00  0.50000000000E+03  0.50000000000E+03  0.00000000000E+00 0. -1.
         11   -1    0    0    0    0 -0.00000000000E+00 -0.00000000000E+00 -0.50000000000E+03  0.50000000000E+03  0.00000000000E+00 0.  1.
        -11    1    1    2    0    0  0.18387671854E+01 -0.80435783983E+01  0.45352272786E+03  0.45359777877E+03  0.00000000000E+00 0. -1.
         11    1    1    2    0    0 -0.12295333280E+02 -0.46363186026E+01 -0.48620878717E+03  0.48638632320E+03  0.00000000000E+00 0.  1.
        -15    1    1    2    0    0  0.88766567949E+00  0.12957816891E+02  0.43518948231E+02  0.45450517633E+02  0.17770000000E+01 0. -1.
         15    1    1    2    0    0  0.95689004153E+01 -0.27791989008E+00 -0.10832888923E+02  0.14565380395E+02  0.17770000000E+01 0.  1.
</event>
<event>
 6    1  0.1860328E-003  0.4864738E+03  0.7546771E-02  0.9430595E-01
        -11   -1    0    0    0    0  0.00000000000E+00  0.00000000000E+00  0.50000000000E+03  0.50000000000E+03  0.00000000000E+00 0. -1.
         11   -1    0    0    0    0 -0.00000000000E+00 -0.00000000000E+00 -0.50000000000E+03  0.50000000000E+03  0.00000000000E+00 0. -1.
        -11    1    1    2    0    0 -0.30897028930E+00 -0.11086560109E+02  0.48433280874E+03  0.48445977841E+03  0.00000000000E+00 0. -1.
         11    1    1    2    0    0  0.64572149901E+01  0.19440253724E+01 -0.48851257965E+03  0.48855912164E+03  0.00000000000E+00 0. -1.
        -15    1    1    2    0    0  0.23760613259E+01  0.12062555989E+02  0.10137668194E+02  0.16033744722E+02  0.17770000000E+01 0.  1.
         15    1    1    2    0    0 -0.85243060267E+01 -0.29200212521E+01 -0.59578972825E+01  0.10947355223E+02  0.17770000000E+01 0. -1.
</event>
<event>
 6    1  0.1860328E-003  0.4551623E+03  0.7546771E-02  0.9506135E-01
        -11   -1    0    0    0    0  0.00000000000E+00  0.00000000000E+00  0.50000000000E+03  0.50000000000E+03  0.00000000000E+00 0. -1.
         11   -1    0    0    0    0 -0.00000000000E+00 -0.00000000000E+00 -0.50000000000E+03  0.50000000000E+03  0.00000000000E+00 0.  1.
        -11    1    1    2    0    0  0.55755163100E+01  0.12842511609E+02  0.44660575940E+03  0.44682515688E+03  0.00000000000E+00 0. -1.
         11    1    1    2    0    0 -0.14631286252E+00 -0.52612207099E+00 -0.33623435572E+02  0.33627869863E+02  0.00000000000E+00 0.  1.
        -15    1    1    2    0    0 -0.48982031605E+01 -0.21839425924E+02  0.50864063171E+02  0.55599132818E+02  0.17770000000E+01 0. -1.
         15    1    1    2    0    0 -0.53100028696E+00  0.95230363854E+01 -0.46384638700E+03  0.46394784044E+03  0.17770000000E+01 0.  1.
</event>
<event>
 6    1  0.1860328E-003  0.5527576E+03  0.7546771E-02  0.9288930E-01
        -11   -1    0    0    0    0  0.00000000000E+00  0.00000000000E+00  0.50000000000E+03  0.50000000000E+03  0.00000000000E+00 0.  1.
         11   -1    0    0    0    0 -0.00000000000E+00 -0.00000000000E+00 -0.50000000000E+03  0.50000000000E+03  0.00000000000E+00 0.  1.
        -11    1    1    2    0    0  0.49387994577E+01 -0.72070485221E+01  0.38279179746E+03  0.38289149049E+03  0.00000000000E+00 0.  1.
         11    1    1    2    0    0  0.50023957309E+01  0.62675292980E+01 -0.44717053877E+03  0.44724243608E+03  0.00000000000E+00 0.  1.
        -15    1    1    2    0    0 -0.24785627326E+02  0.16432569259E+02  0.11290964299E+03  0.11677372077E+03  0.17770000000E+01 0. -1.
         15    1    1    2    0    0  0.14844432138E+02 -0.15493050035E+02 -0.48530901671E+02  0.53092352659E+02  0.17770000000E+01 0.  1.
</event>
<event>
 6    1  0.1860328E-003  0.4892520E+03  0.7546771E-02  0.9424186E-01
        -11   -1    0    0    0    0  0.00000000000E+00  0.00000000000E+00  0.50000000000E+03  0.50000000000E+03  0.00000000000E+00 0.  1.
         11   -1    0    0    0    0 -0.00000000000E+00 -0.00000000000E+00 -0.50000000000E+03  0.50000000000E+03  0.00000000000E+00 0.  1.
        -11    1    1    2    0    0  0.49123051429E+01 -0.71596167014E+01  0.48706674758E+03  0.48714413417E+03  0.00000000000E+00 0.  1.
         11    1    1    2    0    0  0.17713657799E+01  0.10886400749E+02 -0.49127495054E+03  0.49139874694E+03  0.00000000000E+00 0.  1.
        -15    1    1    2    0    0 -0.30842565888E+01  0.71749994888E+01  0.55764415148E+01  0.97594920635E+01  0.17770000000E+01 0.  1.
         15    1    1    2    0    0 -0.35994143341E+01 -0.10901783536E+02 -0.13682385507E+01  0.11697626834E+02  0.17770000000E+01 0. -1.
</event>
<event>
 6    1  0.1860328E-003  0.5002267E+03  0.7546771E-02  0.9399303E-01
        -11   -1    0    0    0    0  0.00000000000E+00  0.00000000000E+00  0.50000000000E+03  0.50000000000E+03  0.00000000000E+00 0.  1.
         11   -1    0    0    0    0 -0.00000000000E+00 -0.00000000000E+00 -0.50000000000E+03  0.50000000000E+03  0.00000000000E+00 0. -1.
        -11    1    1    2    0    0 -0.13603333596E+01  0.11942032450E+01  0.82648793944E+02  0.82668614169E+02  0.00000000000E+00 0.  1.
         11    1    1    2    0    0 -0.12765090723E+02 -0.10210313134E+02 -0.49950594498E+03  0.49977333573E+03  0.00000000000E+00 0. -1.
        -15    1    1    2    0    0  0.85910575429E+01  0.51601760621E+01  0.37388080030E+03  0.37401931000E+03  0.17770000000E+01 0.  1.
         15    1    1    2    0    0  0.55343665395E+01  0.38559338269E+01  0.42976350730E+02  0.43538740103E+02  0.17770000000E+01 0. -1.
</event>
<event>
 6    1  0.1860328E-003  0.5012491E+03  0.7546771E-02  0.9397019E-01
        -11   -1    0    0    0    0  0.00000000000E+00  0.00000000000E+00  0.50000000000E+03  0.50000000000E+03  0.00000000000E+00 0. -1.
         11   -1    0    0    0    0 -0.00000000000E+00 -0.00000000000E+00 -0.50000000000E+03  0.50000000000E+03  0.00000000000E+00 0.  1.
        -11    1    1    2    0    0 -0.79214977755E+00  0.52148331343E+01  0.29166318705E+03  0.29171087856E+03  0.00000000000E+00 0. -1.
         11    1    1    2    0    0 -0.44314331796E+01 -0.59602576296E+01 -0.49869563994E+03  0.49875094342E+03  0.00000000000E+00 0.  1.
        -15    1    1    2    0    0  0.16404638167E+01  0.18570935999E+01  0.65472320362E+00  0.31187031994E+01  0.17770000000E+01 0.  1.
         15    1    1    2    0    0  0.35831191404E+01 -0.11116691045E+01  0.20637772968E+03  0.20641947482E+03  0.17770000000E+01 0. -1.
</event>
<event>
 6    1  0.1860328E-003  0.5007298E+03  0.7546771E-02  0.9398178E-01
        -11   -1    0    0    0    0  0.00000000000E+00  0.00000000000E+00  0.50000000000E+03  0.50000000000E+03  0.00000000000E+00 0.  1.
         11   -1    0    0    0    0 -0.00000000000E+00 -0.00000000000E+00 -0.50000000000E+03  0.50000000000E+03  0.00000000000E+00 0. -1.
        -11    1    1    2    0    0  0.13301608627E+02 -0.96613671748E+01  0.49899945725E+03  0.49927020054E+03  0.00000000000E+00 0.  1.
         11    1    1    2    0    0 -0.33654146251E+01 -0.73043837896E+01 -0.79377270843E+02  0.79783652239E+02  0.00000000000E+00 0. -1.
        -15    1    1    2    0    0 -0.13181386954E+01 -0.24853143598E+01 -0.67817264264E+01  0.75540597966E+01  0.17770000000E+01 0.  1.
         15    1    1    2    0    0 -0.86180553067E+01  0.19451065324E+02 -0.41284045998E+03  0.41339208743E+03  0.17770000000E+01 0. -1.
</event>
<event>
 6    1  0.1860328E-003  0.5041981E+03  0.7546771E-02  0.9390465E-01
        -11   -1    0    0    0    0  0.00000000000E+00  0.00000000000E+00  0.50000000000E+03  0.50000000000E+03  0.00000000000E+00 0.  1.
         11   -1    0    0    0    0 -0.00000000000E+00 -0.00000000000E+00 -0.50000000000E+03  0.50000000000E+03  0.00000000000E+00 0. -1.
        -11    1    1    2    0    0 -0.25919654244E+01  0.14606607048E+02  0.37606779420E+03  0.37636027565E+03  0.00000000000E+00 0.  1.
         11    1    1    2    0    0  0.43140763113E+01 -0.71092818869E+01 -0.49573216738E+03  0.49580191096E+03  0.00000000000E+00 0. -1.
        -15    1    1    2    0    0 -0.41989531994E+01  0.97168883576E+01  0.49867331879E+01  0.11835301611E+02  0.17770000000E+01 0. -1.
         15    1    1    2    0    0  0.24768423125E+01 -0.17214213519E+02  0.11467763999E+03  0.11600251177E+03  0.17770000000E+01 0.  1.
</event>
<event>
 6    1  0.1860328E-003  0.5066410E+03  0.7546771E-02  0.9385071E-01
        -11   -1    0    0    0    0  0.00000000000E+00  0.00000000000E+00  0.50000000000E+03  0.50000000000E+03  0.00000000000E+00 0. -1.
         11   -1    0    0    0    0 -0.00000000000E+00 -0.00000000000E+00 -0.50000000000E+03  0.50000000000E+03  0.00000000000E+00 0. -1.
        -11    1    1    2    0    0 -0.44459807111E+01 -0.69740132409E+01  0.49328964898E+03  0.49335897822E+03  0.00000000000E+00 0. -1.
         11    1    1    2    0    0  0.69591269642E+01  0.17347414636E+01 -0.46702096451E+03  0.46707603243E+03  0.00000000000E+00 0. -1.
        -15    1    1    2    0    0 -0.10812194426E+01  0.53739492912E+01 -0.32458733690E+02  0.32966278046E+02  0.17770000000E+01 0.  1.
         15    1    1    2    0    0 -0.14319268106E+01 -0.13467751390E+00  0.61900492273E+01  0.65987113029E+01  0.17770000000E+01 0. -1.
</event>
<event>
 6    1  0.1860328E-003  0.5086315E+03  0.7546771E-02  0.9380701E-01
        -11   -1    0    0    0    0  0.00000000000E+00  0.00000000000E+00  0.50000000000E+03  0.50000000000E+03  0.00000000000E+00 0. -1.
         11   -1    0    0    0    0 -0.00000000000E+00 -0.00000000000E+00 -0.50000000000E+03  0.50000000000E+03  0.00000000000E+00 0.  1.
        -11    1    1    2    0    0  0.14618012354E+02  0.63224156990E+01  0.41221446773E+03  0.41252203169E+03  0.00000000000E+00 0. -1.
         11    1    1    2    0    0 -0.24176832423E+02 -0.19965715812E+02 -0.49036708701E+03  0.49136852673E+03  0.00000000000E+00 0.  1.
        -15    1    1    2    0    0 -0.41104453849E+01  0.77336030457E+01  0.80442993013E+02  0.80937860307E+02  0.17770000000E+01 0.  1.
         15    1    1    2    0    0  0.13669265453E+02  0.59096970669E+01 -0.22903737271E+01  0.15171581271E+02  0.17770000000E+01 0. -1.
</event>
<event>
 6    1  0.1860328E-003  0.5009038E+03  0.7546771E-02  0.9397790E-01
        -11   -1    0    0    0    0  0.00000000000E+00  0.00000000000E+00  0.50000000000E+03  0.50000000000E+03  0.00000000000E+00 0.  1.
         11   -1    0    0    0    0 -0.00000000000E+00 -0.00000000000E+00 -0.50000000000E+03  0.50000000000E+03  0.00000000000E+00 0. -1.
        -11    1    1    2    0    0  0.21745470911E+02 -0.76437560009E+01  0.49856369518E+03  0.49909623387E+03  0.00000000000E+00 0.  1.
         11    1    1    2    0    0  0.44534356748E+01  0.10668422300E+01 -0.11958774349E+03  0.11967539277E+03  0.00000000000E+00 0. -1.
        -15    1    1    2    0    0 -0.10008024427E+02 -0.46761889398E+01 -0.28353949520E+03  0.28376016345E+03  0.17770000000E+01 0. -1.
         15    1    1    2    0    0 -0.16190882159E+02  0.11253102711E+02 -0.95436456487E+02  0.97468209902E+02  0.17770000000E+01 0.  1.
</event>
<event>
 6    1  0.1860328E-003  0.5060557E+03  0.7546771E-02  0.9386361E-01
        -11   -1    0    0    0    0  0.00000000000E+00  0.00000000000E+00  0.50000000000E+03  0.50000000000E+03  0.00000000000E+00 0.  1.
         11   -1    0    0    0    0 -0.00000000000E+00 -0.00000000000E+00 -0.50000000000E+03  0.50000000000E+03  0.00000000000E+00 0.  1.
        -11    1    1    2    0    0  0.46219387394E+01  0.50855095328E+01  0.48982063235E+03  0.48986883612E+03  0.00000000000E+00 0.  1.
         11    1    1    2    0    0 -0.31374474668E+01 -0.68291887022E+01 -0.49388715891E+03  0.49394433606E+03  0.00000000000E+00 0.  1.
        -15    1    1    2    0    0  0.24791020432E+01  0.75975681689E+01  0.88957759051E+00  0.82351725125E+01  0.17770000000E+01 0.  1.
         15    1    1    2    0    0 -0.39635933158E+01 -0.58538889995E+01  0.31769489696E+01  0.79516553086E+01  0.17770000000E+01 0.  1.
</event>
<event>
 6    1  0.1860328E-003  0.5010178E+03  0.7546771E-02  0.9397535E-01
        -11   -1    0    0    0    0  0.00000000000E+00  0.00000000000E+00  0.50000000000E+03  0.50000000000E+03  0.00000000000E+00 0. -1.
         11   -1    0    0    0    0 -0.00000000000E+00 -0.00000000000E+00 -0.50000000000E+03  0.50000000000E+03  0.00000000000E+00 0. -1.
        -11    1    1    2    0    0 -0.20637335870E+02 -0.32222906345E+01  0.49854478863E+03  0.49898215305E+03  0.00000000000E+00 0. -1.
         11    1    1    2    0    0 -0.57795235935E+01  0.88118294563E+01 -0.30190381763E+03  0.30208767987E+03  0.00000000000E+00 0. -1.
        -15    1    1    2    0    0  0.13541693262E+02 -0.86289421000E+01 -0.12681164523E+03  0.12783656438E+03  0.17770000000E+01 0.  1.
         15    1    1    2    0    0  0.12875166201E+02  0.30394032783E+01 -0.69829325778E+02  0.71093602699E+02  0.17770000000E+01 0. -1.
</event>
<event>
 6    1  0.1860328E-003  0.5043653E+03  0.7546771E-02  0.9390095E-01
        -11   -1    0    0    0    0  0.00000000000E+00  0.00000000000E+00  0.50000000000E+03  0.50000000000E+03  0.00000000000E+00 0.  1.
         11   -1    0    0    0    0 -0.00000000000E+00 -0.00000000000E+00 -0.50000000000E+03  0.50000000000E+03  0.00000000000E+00 0.  1.
        -11    1    1    2    0    0 -0.10180625597E+02 -0.75390813112E+01  0.49547276751E+03  0.49563469030E+03  0.00000000000E+00 0.  1.
         11    1    1    2    0    0 -0.86446568709E+01  0.16435519333E+02 -0.45550101279E+03  0.45587940186E+03  0.00000000000E+00 0.  1.
        -15    1    1    2    0    0  0.11507167450E+02  0.33951789489E+01 -0.12239609419E+02  0.17231015946E+02  0.17770000000E+01 0. -1.
         15    1    1    2    0    0  0.73181150185E+01 -0.12291616970E+02 -0.27732145299E+02  0.31254891890E+02  0.17770000000E+01 0.  1.
</event>
<event>
 6    1  0.1860328E-003  0.4770678E+03  0.7546771E-02  0.9452637E-01
        -11   -1    0    0    0    0  0.00000000000E+00  0.00000000000E+00  0.50000000000E+03  0.50000000000E+03  0.00000000000E+00 0.  1.
         11   -1    0    0    0    0 -0.00000000000E+00 -0.00000000000E+00 -0.50000000000E+03  0.50000000000E+03  0.00000000000E+00 0.  1.
        -11    1    1    2    0    0  0.57364438653E+01  0.70308987792E+01  0.47178416707E+03  0.47187142383E+03  0.00000000000E+00 0.  1.
         11    1    1    2    0    0  0.84200791630E+01  0.19829195778E+02 -0.48232437882E+03  0.48280524142E+03  0.00000000000E+00 0.  1.
        -15    1    1    2    0    0 -0.14216406385E+02 -0.33121209390E+02  0.13011698806E+02  0.38361214225E+02  0.17770000000E+01 0. -1.
         15    1    1    2    0    0  0.59883356674E-01  0.62611148330E+01 -0.24714870520E+01  0.69621205259E+01  0.17770000000E+01 0.  1.
</event>
<event>
 6    1  0.1860328E-003  0.5229945E+03  0.7546771E-02  0.9349779E-01
        -11   -1    0    0    0    0  0.00000000000E+00  0.00000000000E+00  0.50000000000E+03  0.50000000000E+03  0.00000000000E+00 0. -1.
         11   -1    0    0    0    0 -0.00000000000E+00 -0.00000000000E+00 -0.50000000000E+03  0.50000000000E+03  0.00000000000E+00 0.  1.
        -11    1    1    2    0    0  0.18624656002E+02 -0.11305306566E+02  0.38576951771E+03  0.38638427577E+03  0.00000000000E+00 0. -1.
         11    1    1    2    0    0  0.15727241946E+02  0.14639421222E+02 -0.47652137864E+03  0.47700553780E+03  0.00000000000E+00 0.  1.
        -15    1    1    2    0    0 -0.84378493433E+01 -0.29192233035E+01  0.10606474573E+03  0.10645471893E+03  0.17770000000E+01 0. -1.
         15    1    1    2    0    0 -0.25914048605E+02 -0.41489135227E+00 -0.15312884810E+02  0.30155467500E+02  0.17770000000E+01 0.  1.
</event>
<event>
 6    1  0.1860328E-003  0.5035203E+03  0.7546771E-02  0.9391967E-01
        -11   -1    0    0    0    0  0.00000000000E+00  0.00000000000E+00  0.50000000000E+03  0.50000000000E+03  0.00000000000E+00 0. -1.
         11   -1    0    0    0    0 -0.00000000000E+00 -0.00000000000E+00 -0.50000000000E+03  0.50000000000E+03  0.00000000000E+00 0.  1.
        -11    1    1    2    0    0 -0.38560436780E+01 -0.87245984602E+01  0.49638808362E+03  0.49647972492E+03  0.00000000000E+00 0. -1.
         11    1    1    2    0    0  0.35683963256E+01 -0.59513075386E+01 -0.43063397700E+03  0.43068988108E+03  0.00000000000E+00 0.  1.
        -15    1    1    2    0    0  0.42448914376E+01  0.62931680887E+01 -0.15658583614E+01  0.79518997300E+01  0.17770000000E+01 0. -1.
         15    1    1    2    0    0 -0.39572440852E+01  0.83827379102E+01 -0.64188248258E+02  0.64878494273E+02  0.17770000000E+01 0.  1.
</event>
<event>
 6    1  0.1860328E-003  0.4889700E+03  0.7546771E-02  0.9424834E-01
        -11   -1    0    0    0    0  0.00000000000E+00  0.00000000000E+00  0.50000000000E+03  0.50000000000E+03  0.00000000000E+00 0. -1.
         11   -1    0    0    0    0 -0.00000000000E+00 -0.00000000000E+00 -0.50000000000E+03  0.50000000000E+03  0.00000000000E+00 0. -1.
        -11    1    1    2    0    0 -0.54196288039E+00  0.79922517309E+00  0.26070593619E+02  0.26088471330E+02  0.00000000000E+00 0. -1.
         11    1    1    2    0    0 -0.54417796088E+01 -0.48772421327E+02 -0.49528813865E+03  0.49771347413E+03  0.00000000000E+00 0. -1.
        -15    1    1    2    0    0 -0.79271379120E+01  0.27253426913E+02  0.61982239708E+02  0.68194901292E+02  0.17770000000E+01 0.  1.
         15    1    1    2    0    0  0.13910880401E+02  0.20719769241E+02  0.40723530532E+03  0.40800315325E+03  0.17770000000E+01 0. -1.
</event>
<event>
 6    1  0.1860328E-003  0.5077165E+03  0.7546771E-02  0.9382707E-01
        -11   -1    0    0    0    0  0.00000000000E+00  0.00000000000E+00  0.50000000000E+03  0.50000000000E+03  0.00000000000E+00 0.  1.
         11   -1    0    0    0    0 -0.00000000000E+00 -0.00000000000E+00 -0.50000000000E+03  0.50000000000E+03  0.00000000000E+00 0. -1.
        -11    1    1    2    0    0  0.10963698513E+02 -0.16298300223E+02  0.49189145007E+03  0.49228349143E+03  0.00000000000E+00 0.  1.
         11    1    1    2    0    0 -0.62320502117E+01 -0.80294412023E+01 -0.45295098640E+03  0.45306501350E+03  0.00000000000E+00 0. -1.
        -15    1    1    2    0    0  0.51672116251E+01  0.19807599944E+02 -0.84295839582E+01  0.22209383292E+02  0.17770000000E+01 0.  1.
         15    1    1    2    0    0 -0.98988599263E+01  0.45201414815E+01 -0.30510879712E+02  0.32442111779E+02  0.17770000000E+01 0. -1.
</event>
<event>
 6    1  0.1860328E-003  0.4941601E+03  0.7546771E-02  0.9412973E-01
        -11   -1    0    0    0    0  0.00000000000E+00  0.00000000000E+00  0.50000000000E+03  0.50000000000E+03  0.00000000000E+00 0. -1.
         11   -1    0    0    0    0 -0.00000000000E+00 -0.00000000000E+00 -0.50000000000E+03  0.50000000000E+03  0.00000000000E+00 0. -1.
        -11    1    1    2    0    0 -0.39738236060E+01 -0.57975242504E+01  0.49433687538E+03  0.49438684138E+03  0.00000000000E+00 0. -1.
         11    1    1    2    0    0 -0.20284717439E+01  0.80938463745E+01 -0.49388381507E+03  0.49395429731E+03  0.00000000000E+00 0. -1.
        -15    1    1    2    0    0  0.29829339300E+01 -0.44307323347E+01 -0.34284762185E+01  0.65910137333E+01  0.17770000000E+01 0.  1.
         15    1    1    2    0    0  0.30193614199E+01  0.21344102105E+01  0.29754159006E+01  0.50678475818E+01  0.17770000000E+01 0.  1.
</event>
<event>
 6    1  0.1860328E-003  0.5086845E+03  0.7546771E-02  0.9380584E-01
        -11   -1    0    0    0    0  0.00000000000E+00  0.00000000000E+00  0.50000000000E+03  0.50000000000E+03  0.00000000000E+00 0.  1.
         11   -1    0    0    0    0 -0.00000000000E+00 -0.00000000000E+00 -0.50000000000E+03  0.50000000000E+03  0.00000000000E+00 0. -1.
        -11    1    1    2    0    0  0.71388637589E+01 -0.13416847756E+01  0.48809869890E+03  0.48815274593E+03  0.00000000000E+00 0.  1.
         11    1    1    2    0    0 -0.69498311293E+01  0.27710674434E+01 -0.49125849265E+03  0.49131546441E+03  0.00000000000E+00 0. -1.
        -15    1    1    2    0    0 -0.56703415814E+01  0.18888252766E+01  0.94873986316E+01  0.11352924573E+02  0.17770000000E+01 0. -1.
         15    1    1    2    0    0  0.54813089518E+01 -0.33182079444E+01 -0.63276048787E+01  0.91788650871E+01  0.17770000000E+01 0.  1.
</event>
<event>
 6    1  0.1860328E-003  0.5153559E+03  0.7546771E-02  0.9366090E-01
        -11   -1    0    0    0    0  0.00000000000E+00  0.00000000000E+00  0.50000000000E+03  0.50000000000E+03  0.00000000000E+00 0.  1.
         11   -1    0    0    0    0 -0.00000000000E+00 -0.00000000000E+00 -0.50000000000E+03  0.50000000000E+03  0.00000000000E+00 0.  1.
        -11    1    1    2    0    0  0.32089829218E+01  0.25545229382E+01  0.21479697961E+03  0.21483613665E+03  0.00000000000E+00 0.  1.
         11    1    1    2    0    0  0.45390825571E+01  0.49454261251E+01 -0.48459760228E+03  0.48464409275E+03  0.00000000000E+00 0.  1.
        -15    1    1    2    0    0  0.16546576902E+02 -0.22613992182E+02 -0.11073652137E+01  0.28099214158E+02  0.17770000000E+01 0.  1.
         15    1    1    2    0    0 -0.24294642380E+02  0.15114043119E+02  0.27090798787E+03  0.27242055644E+03  0.17770000000E+01 0. -1.
</event>
<event>
 6    1  0.1860328E-003  0.5012533E+03  0.7546771E-02  0.9397010E-01
        -11   -1    0    0    0    0  0.00000000000E+00  0.00000000000E+00  0.50000000000E+03  0.50000000000E+03  0.00000000000E+00 0. -1.
         11   -1    0    0    0    0 -0.00000000000E+00 -0.00000000000E+00 -0.50000000000E+03  0.50000000000E+03  0.00000000000E+00 0. -1.
        -11    1    1    2    0    0 -0.16633495908E+01 -0.42697971282E+01  0.88683052539E+02  0.88801360953E+02  0.00000000000E+00 0. -1.
         11    1    1    2    0    0  0.49643106893E+00 -0.68973403064E+01 -0.49869873765E+03  0.49874667987E+03  0.00000000000E+00 0. -1.
        -15    1    1    2    0    0  0.28080476038E+01  0.78826121251E+01  0.40764346435E+03  0.40773321236E+03  0.17770000000E+01 0. -1.
         15    1    1    2    0    0 -0.16411290820E+01  0.32845253096E+01  0.23722207613E+01  0.47187468160E+01  0.17770000000E+01 0.  1.
</event>
<event>
 6    1  0.1860328E-003  0.5090721E+03  0.7546771E-02  0.9379736E-01
        -11   -1    0    0    0    0  0.00000000000E+00  0.00000000000E+00  0.50000000000E+03  0.50000000000E+03  0.00000000000E+00 0.  1.
         11   -1    0    0    0    0 -0.00000000000E+00 -0.00000000000E+00 -0.50000000000E+03  0.50000000000E+03  0.00000000000E+00 0. -1.
        -11    1    1    2    0    0  0.78534667800E+01 -0.22260612031E+02  0.40728961705E+03  0.40797309218E+03  0.00000000000E+00 0.  1.
         11    1    1    2    0    0 -0.84405032074E+01  0.31381950953E+01 -0.49084525568E+03  0.49092785151E+03  0.00000000000E+00 0. -1.
        -15    1    1    2    0    0  0.32506596319E+01  0.33857278059E+02  0.77854350232E+02  0.84978465770E+02  0.17770000000E+01 0.  1.
         15    1    1    2    0    0 -0.26636232046E+01 -0.14734861123E+02  0.57012883973E+01  0.16120590538E+02  0.17770000000E+01 0. -1.
</event>
<event>
 6    1  0.1860328E-003  0.5143323E+03  0.7546771E-02  0.9368299E-01
        -11   -1    0    0    0    0  0.00000000000E+00  0.00000000000E+00  0.50000000000E+03  0.50000000000E+03  0.00000000000E+00 0. -1.
         11   -1    0    0    0    0 -0.00000000000E+00 -0.00000000000E+00 -0.50000000000E+03  0.50000000000E+03  0.00000000000E+00 0.  1.
        -11    1    1    2    0    0  0.17708224828E+02  0.16292534051E+02  0.48507125846E+03  0.48566774000E+03  0.00000000000E+00 0. -1.
         11    1    1    2    0    0 -0.36735503717E+01  0.10154522319E+02 -0.37309150728E+03  0.37324774896E+03  0.00000000000E+00 0.  1.
        -15    1    1    2    0    0  0.15393081817E+02 -0.52986358372E+01  0.61618595716E+01  0.17497106959E+02  0.17770000000E+01 0. -1.
         15    1    1    2    0    0 -0.29427756273E+02 -0.21148420533E+02 -0.11814161075E+03  0.12358740409E+03  0.17770000000E+01 0.  1.
</event>
<event>
 6    1  0.1860328E-003  0.4772787E+03  0.7546771E-02  0.9452137E-01
        -11   -1    0    0    0    0  0.00000000000E+00  0.00000000000E+00  0.50000000000E+03  0.50000000000E+03  0.00000000000E+00 0.  1.
         11   -1    0    0    0    0 -0.00000000000E+00 -0.00000000000E+00 -0.50000000000E+03  0.50000000000E+03  0.00000000000E+00 0.  1.
        -11    1    1    2    0    0  0.25138640897E+02  0.17114424931E+02  0.48307607828E+03  0.48403238756E+03  0.00000000000E+00 0.  1.
         11    1    1    2    0    0 -0.11198585629E+02  0.28950775948E+01 -0.47077362334E+03  0.47091569758E+03  0.00000000000E+00 0.  1.
        -15    1    1    2    0    0 -0.23766165451E+02 -0.47484982055E+01 -0.27271788640E+01  0.24453508726E+02  0.17770000000E+01 0. -1.
         15    1    1    2    0    0  0.98261101827E+01 -0.15261004321E+02 -0.95752760718E+01  0.20598406129E+02  0.17770000000E+01 0.  1.
</event>
<event>
 6    1  0.1860328E-003  0.5051676E+03  0.7546771E-02  0.9388321E-01
        -11   -1    0    0    0    0  0.00000000000E+00  0.00000000000E+00  0.50000000000E+03  0.50000000000E+03  0.00000000000E+00 0. -1.
         11   -1    0    0    0    0 -0.00000000000E+00 -0.00000000000E+00 -0.50000000000E+03  0.50000000000E+03  0.00000000000E+00 0.  1.
        -11    1    1    2    0    0  0.74072387235E+01  0.29734376982E+01  0.28146322905E+03  0.28157638009E+03  0.00000000000E+00 0. -1.
         11    1    1    2    0    0 -0.60432238910E+01 -0.31106924845E+01 -0.49478574911E+03  0.49483243072E+03  0.00000000000E+00 0.  1.
        -15    1    1    2    0    0  0.27932845232E+02 -0.86742269059E+01  0.54886848139E+02  0.62219047589E+02  0.17770000000E+01 0. -1.
         15    1    1    2    0    0 -0.29296860065E+02  0.88114816922E+01  0.15843567192E+03  0.16137214160E+03  0.17770000000E+01 0.  1.
</event>
<event>
 6    1  0.1860328E-003  0.5093667E+03  0.7546771E-02  0.9379092E-01
        -11   -1    0    0    0    0  0.00000000000E+00  0.00000000000E+00  0.50000000000E+03  0.50000000000E+03  0.00000000000E+00 0. -1.
         11   -1    0    0    0    0 -0.00000000000E+00 -0.00000000000E+00 -0.50000000000E+03  0.50000000000E+03  0.00000000000E+00 0.  1.
        -11    1    1    2    0    0 -0.10824598690E+02  0.31610794240E+01  0.49050372448E+03  0.49063333365E+03  0.00000000000E+00 0. -1.
         11    1    1    2    0    0 -0.12389368134E+02 -0.49354311441E+01 -0.37118748895E+03  0.37142698727E+03  0.00000000000E+00 0.  1.
        -15    1    1    2    0    0  0.14216544046E+02 -0.26249971492E+01 -0.12529640207E+03  0.12614018723E+03  0.17770000000E+01 0. -1.
         15    1    1    2    0    0  0.89974227774E+01  0.43993488692E+01  0.59801665304E+01  0.11799491847E+02  0.17770000000E+01 0.  1.
</event>
<event>
 6    1  0.1860328E-003  0.5048020E+03  0.7546771E-02  0.9389128E-01
        -11   -1    0    0    0    0  0.00000000000E+00  0.00000000000E+00  0.50000000000E+03  0.50000000000E+03  0.00000000000E+00 0. -1.
         11   -1    0    0    0    0 -0.00000000000E+00 -0.00000000000E+00 -0.50000000000E+03  0.50000000000E+03  0.00000000000E+00 0.  1.
        -11    1    1    2    0    0 -0.54497208649E+01 -0.27371131571E+01  0.37387266558E+03  0.37392240012E+03  0.00000000000E+00 0. -1.
         11    1    1    2    0    0 -0.91039737525E+01 -0.74043470063E+01 -0.49505889741E+03  0.49519795900E+03  0.00000000000E+00 0.  1.
        -15    1    1    2    0    0  0.14455659658E+01 -0.79080173004E+01  0.99088981471E+02  0.99430429831E+02  0.17770000000E+01 0.  1.
         15    1    1    2    0    0  0.13108128652E+02  0.18049477464E+02  0.22097250355E+02  0.31449211051E+02  0.17770000000E+01 0. -1.
</event>
<event>
 6    1  0.1860328E-003  0.5049569E+03  0.7546771E-02  0.9388786E-01
        -11   -1    0    0    0    0  0.00000000000E+00  0.00000000000E+00  0.50000000000E+03  0.50000000000E+03  0.00000000000E+00 0.  1.
         11   -1    0    0    0    0 -0.00000000000E+00 -0.00000000000E+00 -0.50000000000E+03  0.50000000000E+03  0.00000000000E+00 0.  1.
        -11    1    1    2    0    0 -0.77033113466E+01 -0.41034582665E+01  0.49496614888E+03  0.49504309703E+03  0.00000000000E+00 0.  1.
         11    1    1    2    0    0 -0.58735804972E+01  0.24548399391E+01 -0.45283040642E+03  0.45287515075E+03  0.00000000000E+00 0.  1.
        -15    1    1    2    0    0  0.78295590794E+01  0.46817045537E+01  0.11754835440E+00  0.92947242843E+01  0.17770000000E+01 0. -1.
         15    1    1    2    0    0  0.57473327644E+01 -0.30330862263E+01 -0.42253290814E+02  0.42787027936E+02  0.17770000000E+01 0. -1.
</event>
<event>
 6    1  0.1860328E-003  0.5168481E+03  0.7546771E-02  0.9362880E-01
        -11   -1    0    0    0    0  0.00000000000E+00  0.00000000000E+00  0.50000000000E+03  0.50000000000E+03  0.00000000000E+00 0. -1.
         11   -1    0    0    0    0 -0.00000000000E+00 -0.00000000000E+00 -0.50000000000E+03  0.50000000000E+03  0.00000000000E+00 0. -1.
        -11    1    1    2    0    0  0.13521031129E+02 -0.14996006394E+01  0.46034607218E+03  0.46054703696E+03  0.00000000000E+00 0. -1.
         11    1    1    2    0    0  0.12978472533E+00 -0.14594830458E+02 -0.48293144519E+03  0.48315194988E+03  0.00000000000E+00 0. -1.
        -15    1    1    2    0    0 -0.22098580335E+02  0.99786346921E+01 -0.66542591744E+01  0.25206294795E+02  0.17770000000E+01 0. -1.
         15    1    1    2    0    0  0.84477644804E+01  0.61157964058E+01  0.29239632188E+02  0.31094718360E+02  0.17770000000E+01 0.  1.
</event>
<event>
 6    1  0.1860328E-003  0.4846681E+03  0.7546771E-02  0.9434785E-01
        -11   -1    0    0    0    0  0.00000000000E+00  0.00000000000E+00  0.50000000000E+03  0.50000000000E+03  0.00000000000E+00 0.  1.
         11   -1    0    0    0    0 -0.00000000000E+00 -0.00000000000E+00 -0.50000000000E+03  0.50000000000E+03  0.00000000000E+00 0. -1.
        -11    1    1    2    0    0 -0.10348908489E+02  0.40408694277E+01  0.49423993768E+03  0.49436478892E+03  0.00000000000E+00 0.  1.
         11    1    1    2    0    0 -0.10017416924E+01 -0.59797720272E+00 -0.40548259173E+02  0.40565038952E+02  0.00000000000E+00 0. -1.
        -15    1    1    2    0    0 -0.22468729307E+02 -0.32556538830E+02 -0.86021536010E+02  0.94697594498E+02  0.17770000000E+01 0.  1.
         15    1    1    2    0    0  0.33819379489E+02  0.29113646605E+02 -0.36767014249E+03  0.37037257763E+03  0.17770000000E+01 0. -1.
</event>
<event>
 6    1  0.1860328E-003  0.5010794E+03  0.7546771E-02  0.9397398E-01
        -11   -1    0    0    0    0  0.00000000000E+00  0.00000000000E+00  0.50000000000E+03  0.50000000000E+03  0.00000000000E+00 0. -1.
         11   -1    0    0    0    0 -0.00000000000E+00 -0.00000000000E+00 -0.50000000000E+03  0.50000000000E+03  0.00000000000E+00 0.  1.
        -11    1    1    2    0    0  0.23406169156E+01  0.55168721897E+01  0.43983139035E+03  0.43987221588E+03  0.00000000000E+00 0. -1.
         11    1    1    2    0    0 -0.73921145888E+01  0.32189869302E+00 -0.49886576770E+03  0.49892063613E+03  0.00000000000E+00 0.  1.
        -15    1    1    2    0    0  0.41591607438E+01  0.34302112300E+01  0.12669360101E+02  0.13882916896E+02  0.17770000000E+01 0.  1.
         15    1    1    2    0    0  0.89233692934E+00 -0.92689821127E+01  0.46365017247E+02  0.47324231087E+02  0.17770000000E+01 0. -1.
</event>
<event>
 6    1  0.1860328E-003  0.5022331E+03  0.7546771E-02  0.9394827E-01
        -11   -1    0    0    0    0  0.00000000000E+00  0.00000000000E+00  0.50000000000E+03  0.50000000000E+03  0.00000000000E+00 0. -1.
         11   -1    0    0    0    0 -0.00000000000E+00 -0.00000000000E+00 -0.50000000000E+03  0.50000000000E+03  0.00000000000E+00 0. -1.
        -11    1    1    2    0    0  0.86471405814E+01  0.81848433406E+01  0.32987381465E+03  0.33008862188E+03  0.00000000000E+00 0. -1.
         11    1    1    2    0    0  0.32035724714E+01 -0.17778387900E+02 -0.49743903134E+03  0.49776693729E+03  0.00000000000E+00 0. -1.
        -15    1    1    2    0    0 -0.40934115814E+00 -0.55776933350E+01  0.32176435668E+01  0.66924720579E+01  0.17770000000E+01 0. -1.
         15    1    1    2    0    0 -0.11441371895E+02  0.15171237895E+02  0.16434757313E+03  0.16545196878E+03  0.17770000000E+01 0.  1.
</event>
<event>
 6    1  0.1860328E-003  0.5016356E+03  0.7546771E-02  0.9396157E-01
        -11   -1    0    0    0    0  0.00000000000E+00  0.00000000000E+00  0.50000000000E+03  0.50000000000E+03  0.00000000000E+00 0. -1.
         11   -1    0    0    0    0 -0.00000000000E+00 -0.00000000000E+00 -0.50000000000E+03  0.50000000000E+03  0.00000000000E+00 0.  1.
        -11    1    1    2    0    0 -0.43202800332E+01 -0.24420127919E+01  0.36158330778E+03  0.36161736229E+03  0.00000000000E+00 0. -1.
         11    1    1    2    0    0  0.11452833880E+02 -0.13770873501E+02 -0.49804243960E+03  0.49836440082E+03  0.00000000000E+00 0.  1.
        -15    1    1    2    0    0  0.23772701842E+01  0.70231673040E+01  0.11111358750E+03  0.11137487754E+03  0.17770000000E+01 0.  1.
         15    1    1    2    0    0 -0.95098240306E+01  0.91897189893E+01  0.25345544331E+02  0.28643359346E+02  0.17770000000E+01 0.  1.
</event>
<event>
 6    1  0.1860328E-003  0.5195145E+03  0.7546771E-02  0.9357173E-01
        -11   -1    0    0    0    0  0.00000000000E+00  0.00000000000E+00  0.50000000000E+03  0.50000000000E+03  0.00000000000E+00 0. -1.
         11   -1    0    0    0    0 -0.00000000000E+00 -0.00000000000E+00 -0.50000000000E+03  0.50000000000E+03  0.00000000000E+00 0. -1.
        -11    1    1    2    0    0  0.54402438331E+01 -0.34920246952E+01  0.46539253011E+03  0.46543742605E+03  0.00000000000E+00 0. -1.
         11    1    1    2    0    0 -0.13280049778E+02  0.23637707006E+01 -0.48029611900E+03  0.48048549308E+03  0.00000000000E+00 0. -1.
        -15    1    1    2    0    0  0.18469018753E+01 -0.68600487292E-01 -0.19207239528E+02  0.19377603872E+02  0.17770000000E+01 0.  1.
         15    1    1    2    0    0  0.59929040697E+01  0.11968544819E+01  0.34110828413E+02  0.34699476997E+02  0.17770000000E+01 0. -1.
</event>
<event>
 6    1  0.1860328E-003  0.5067047E+03  0.7546771E-02  0.9384931E-01
        -11   -1    0    0    0    0  0.00000000000E+00  0.00000000000E+00  0.50000000000E+03  0.50000000000E+03  0.00000000000E+00 0.  1.
         11   -1    0    0    0    0 -0.00000000000E+00 -0.00000000000E+00 -0.50000000000E+03  0.50000000000E+03  0.00000000000E+00 0.  1.
        -11    1    1    2    0    0  0.12402649906E+02  0.48376003368E+01  0.43285333999E+03  0.43305801233E+03  0.00000000000E+00 0.  1.
         11    1    1    2    0    0 -0.25617455232E+02 -0.25565994087E+02 -0.49196586168E+03  0.49329533053E+03  0.00000000000E+00 0.  1.
        -15    1    1    2    0    0 -0.64412158712E+01  0.14897920158E+02  0.47027251003E+02  0.49781094331E+02  0.17770000000E+01 0. -1.
         15    1    1    2    0    0  0.19656021197E+02  0.58304735918E+01  0.12085270689E+02  0.23865562810E+02  0.17770000000E+01 0.  1.
</event>
<event>
 6    1  0.1860328E-003  0.5010892E+03  0.7546771E-02  0.9397376E-01
        -11   -1    0    0    0    0  0.00000000000E+00  0.00000000000E+00  0.50000000000E+03  0.50000000000E+03  0.00000000000E+00 0.  1.
         11   -1    0    0    0    0 -0.00000000000E+00 -0.00000000000E+00 -0.50000000000E+03  0.50000000000E+03  0.00000000000E+00 0. -1.
        -11    1    1    2    0    0 -0.51975843087E+01 -0.84941158343E+01  0.21681840111E+03  0.21704696253E+03  0.00000000000E+00 0.  1.
         11    1    1    2    0    0 -0.71601628749E+01 -0.15074753652E+02 -0.49863161329E+03  0.49891081558E+03  0.00000000000E+00 0. -1.
        -15    1    1    2    0    0  0.34422232412E+01  0.94020568175E+01  0.30189348358E+02  0.31855957944E+02  0.17770000000E+01 0. -1.
         15    1    1    2    0    0  0.89155239424E+01  0.14166812669E+02  0.25162386382E+03  0.25218626394E+03  0.17770000000E+01 0.  1.
</event>
<event>
 6    1  0.1860328E-003  0.5181998E+03  0.7546771E-02  0.9359982E-01
        -11   -1    0    0    0    0  0.00000000000E+00  0.00000000000E+00  0.50000000000E+03  0.50000000000E+03  0.00000000000E+00 0.  1.
         11   -1    0    0    0    0 -0.00000000000E+00 -0.00000000000E+00 -0.50000000000E+03  0.50000000000E+03  0.00000000000E+00 0.  1.
        -11    1    1    2    0    0  0.15383627343E+02  0.14880064374E+01  0.38703474740E+03  0.38734321453E+03  0.00000000000E+00 0.  1.
         11    1    1    2    0    0 -0.16225330918E+02  0.59312371787E+01 -0.48149034500E+03  0.48180015906E+03  0.00000000000E+00 0.  1.
        -15    1    1    2    0    0 -0.84530016429E+01 -0.22453863500E+01 -0.16829820368E+02  0.19049818353E+02  0.17770000000E+01 0. -1.
         15    1    1    2    0    0  0.92947052182E+01 -0.51738572660E+01  0.11128541798E+03  0.11180680805E+03  0.17770000000E+01 0.  1.
</event>
<event>
 6    1  0.1860328E-003  0.5061452E+03  0.7546771E-02  0.9386163E-01
        -11   -1    0    0    0    0  0.00000000000E+00  0.00000000000E+00  0.50000000000E+03  0.50000000000E+03  0.00000000000E+00 0.  1.
         11   -1    0    0    0    0 -0.00000000000E+00 -0.00000000000E+00 -0.50000000000E+03  0.50000000000E+03  0.00000000000E+00 0. -1.
        -11    1    1    2    0    0  0.22119631029E+02 -0.32779825936E+02  0.49226900613E+03  0.49385480606E+03  0.00000000000E+00 0.  1.
         11    1    1    2    0    0 -0.39960293665E+01  0.49307066527E+01 -0.35501891012E+03  0.35507563512E+03  0.00000000000E+00 0. -1.
        -15    1    1    2    0    0 -0.20189457508E+01 -0.88719454107E+01 -0.83366081168E+02  0.83879966473E+02  0.17770000000E+01 0. -1.
         15    1    1    2    0    0 -0.16104655912E+02  0.36721064694E+02 -0.53884014850E+02  0.67189592347E+02  0.17770000000E+01 0.  1.
</event>
<event>
 6    1  0.1860328E-003  0.5022298E+03  0.7546771E-02  0.9394834E-01
        -11   -1    0    0    0    0  0.00000000000E+00  0.00000000000E+00  0.50000000000E+03  0.50000000000E+03  0.00000000000E+00 0.  1.
         11   -1    0    0    0    0 -0.00000000000E+00 -0.00000000000E+00 -0.50000000000E+03  0.50000000000E+03  0.00000000000E+00 0.  1.
        -11    1    1    2    0    0 -0.56301106511E+01 -0.63856769418E+01  0.49769740478E+03  0.49777020977E+03  0.00000000000E+00 0.  1.
         11    1    1    2    0    0  0.63056443501E+01  0.25191874755E+01 -0.48011585470E+03  0.48016386931E+03  0.00000000000E+00 0.  1.
        -15    1    1    2    0    0  0.55972730657E+01  0.30705229511E+01 -0.10418145492E+02  0.12347188403E+02  0.17770000000E+01 0.  1.
         15    1    1    2    0    0 -0.62728067646E+01  0.79596651521E+00 -0.71634045820E+01  0.97187325102E+01  0.17770000000E+01 0. -1.
</event>
<event>
 6    1  0.1860328E-003  0.5004006E+03  0.7546771E-02  0.9398914E-01
        -11   -1    0    0    0    0  0.00000000000E+00  0.00000000000E+00  0.50000000000E+03  0.50000000000E+03  0.00000000000E+00 0.  1.
         11   -1    0    0    0    0 -0.00000000000E+00 -0.00000000000E+00 -0.50000000000E+03  0.50000000000E+03  0.00000000000E+00 0.  1.
        -11    1    1    2    0    0 -0.70765787726E+01 -0.46292833376E+01  0.12035228479E+03  0.12064899786E+03  0.00000000000E+00 0.  1.
         11    1    1    2    0    0 -0.22516086846E+01  0.96092971496E+01 -0.49950193286E+03  0.49959942880E+03  0.00000000000E+00 0.  1.
        -15    1    1    2    0    0  0.20243149128E+01  0.36498700863E+01  0.24443897551E+02  0.24861240094E+02  0.17770000000E+01 0. -1.
         15    1    1    2    0    0  0.73038725443E+01 -0.86298838984E+01  0.35470575051E+03  0.35489033324E+03  0.17770000000E+01 0.  1.
</event>
<event>
 6    1  0.1860328E-003  0.5061472E+03  0.7546771E-02  0.9386159E-01
        -11   -1    0    0    0    0  0.00000000000E+00  0.00000000000E+00  0.50000000000E+03  0.50000000000E+03  0.00000000000E+00 0.  1.
         11   -1    0    0    0    0 -0.00000000000E+00 -0.00000000000E+00 -0.50000000000E+03  0.50000000000E+03  0.00000000000E+00 0. -1.
        -11    1    1    2    0    0  0.62106763262E+01  0.30983109988E+00  0.38345746723E+03  0.38350788476E+03  0.00000000000E+00 0.  1.
         11    1    1    2    0    0 -0.14890189137E+02  0.12304139907E+02 -0.49347485867E+03  0.49385275714E+03  0.00000000000E+00 0. -1.
        -15    1    1    2    0    0  0.16825099864E+02 -0.21102483559E+02  0.25122351838E+02  0.36914618902E+02  0.17770000000E+01 0. -1.
         15    1    1    2    0    0 -0.81455870531E+01  0.84885125514E+01  0.84895039601E+02  0.85724739204E+02  0.17770000000E+01 0.  1.
</event>
<event>
 6    1  0.1860328E-003  0.5247571E+03  0.7546771E-02  0.9346056E-01
        -11   -1    0    0    0    0  0.00000000000E+00  0.00000000000E+00  0.50000000000E+03  0.50000000000E+03  0.00000000000E+00 0. -1.
         11   -1    0    0    0    0 -0.00000000000E+00 -0.00000000000E+00 -0.50000000000E+03  0.50000000000E+03  0.00000000000E+00 0. -1.
        -11    1    1    2    0    0 -0.84605770544E+01 -0.40898244342E+01  0.47514995245E+03  0.47524286985E+03  0.00000000000E+00 0. -1.
         11    1    1    2    0    0 -0.41572416303E+02 -0.13904671936E+02 -0.41314726213E+03  0.41546632343E+03  0.00000000000E+00 0. -1.
        -15    1    1    2    0    0  0.29530786392E+02  0.11417100248E+02  0.10683239351E+02  0.33462021084E+02  0.17770000000E+01 0. -1.
         15    1    1    2    0    0  0.20502206966E+02  0.65773961226E+01 -0.72685929671E+02  0.75828785638E+02  0.17770000000E+01 0.  1.
</event>
<event>
 6    1  0.1860328E-003  0.5221747E+03  0.7546771E-02  0.9351515E-01
        -11   -1    0    0    0    0  0.00000000000E+00  0.00000000000E+00  0.50000000000E+03  0.50000000000E+03  0.00000000000E+00 0. -1.
         11   -1    0    0    0    0 -0.00000000000E+00 -0.00000000000E+00 -0.50000000000E+03  0.50000000000E+03  0.00000000000E+00 0.  1.
        -11    1    1    2    0    0 -0.81449810713E+00  0.23126974592E+02  0.35546770532E+03  0.35622017052E+03  0.00000000000E+00 0. -1.
         11    1    1    2    0    0 -0.30282387272E+01  0.74273113379E+01 -0.47775800784E+03  0.47782533340E+03  0.00000000000E+00 0.  1.
        -15    1    1    2    0    0 -0.83268748811E+01 -0.13526024592E+02 -0.18016503074E+02  0.24084067318E+02  0.17770000000E+01 0.  1.
         15    1    1    2    0    0  0.12169611715E+02 -0.17028261337E+02  0.14030680559E+03  0.14187042876E+03  0.17770000000E+01 0. -1.
</event>
<event>
 6    1  0.1860328E-003  0.4878873E+03  0.7546771E-02  0.9427328E-01
        -11   -1    0    0    0    0  0.00000000000E+00  0.00000000000E+00  0.50000000000E+03  0.50000000000E+03  0.00000000000E+00 0.  1.
         11   -1    0    0    0    0 -0.00000000000E+00 -0.00000000000E+00 -0.50000000000E+03  0.50000000000E+03  0.00000000000E+00 0.  1.
        -11    1    1    2    0    0  0.60488652089E+01 -0.56084896403E+01  0.48822650477E+03  0.48829618460E+03  0.00000000000E+00 0.  1.
         11    1    1    2    0    0 -0.67691583222E-01 -0.11155522360E+02 -0.48751337378E+03  0.48764099487E+03  0.00000000000E+00 0.  1.
        -15    1    1    2    0    0 -0.75732547620E+01  0.93731548199E+01 -0.70194550999E+01  0.14058474237E+02  0.17770000000E+01 0.  1.
         15    1    1    2    0    0  0.15920811363E+01  0.73908571808E+01  0.63063241037E+01  0.10004346301E+02  0.17770000000E+01 0. -1.
</event>
<event>
 6    1  0.1860328E-003  0.5001700E+03  0.7546771E-02  0.9399430E-01
        -11   -1    0    0    0    0  0.00000000000E+00  0.00000000000E+00  0.50000000000E+03  0.50000000000E+03  0.00000000000E+00 0. -1.
         11   -1    0    0    0    0 -0.00000000000E+00 -0.00000000000E+00 -0.50000000000E+03  0.50000000000E+03  0.00000000000E+00 0.  1.
        -11    1    1    2    0    0  0.44813824381E+01 -0.31904961514E+01  0.25154135487E+03  0.25160150092E+03  0.00000000000E+00 0. -1.
         11    1    1    2    0    0  0.37050184399E+01  0.11395711055E+02 -0.49968638626E+03  0.49983004512E+03  0.00000000000E+00 0.  1.
        -15    1    1    2    0    0 -0.13251297722E+01 -0.50152141837E+01  0.56389225203E+02  0.56655192085E+02  0.17770000000E+01 0.  1.
         15    1    1    2    0    0 -0.68612711057E+01 -0.31900007203E+01  0.19175580619E+03  0.19191326187E+03  0.17770000000E+01 0. -1.
</event>
<event>
 6    1  0.1860328E-003  0.5316665E+03  0.7546771E-02  0.9331614E-01
        -11   -1    0    0    0    0  0.00000000000E+00  0.00000000000E+00  0.50000000000E+03  0.50000000000E+03  0.00000000000E+00 0. -1.
         11   -1    0    0    0    0 -0.00000000000E+00 -0.00000000000E+00 -0.50000000000E+03  0.50000000000E+03  0.00000000000E+00 0.  1.
        -11    1    1    2    0    0 -0.32995456695E+02 -0.21342908163E+01  0.46716491586E+03  0.46833354991E+03  0.00000000000E+00 0. -1.
         11    1    1    2    0    0  0.17229241237E+02 -0.30180075643E+02 -0.37833702119E+03  0.37992971103E+03  0.00000000000E+00 0.  1.
        -15    1    1    2    0    0 -0.47556340816E+02  0.24723137628E+02 -0.18375749548E+02  0.56689196382E+02  0.17770000000E+01 0. -1.
         15    1    1    2    0    0  0.63322556274E+02  0.75912288317E+01 -0.70452145122E+02  0.95047542680E+02  0.17770000000E+01 0.  1.
</event>
<event>
 6    1  0.1860328E-003  0.5018380E+03  0.7546771E-02  0.9395706E-01
        -11   -1    0    0    0    0  0.00000000000E+00  0.00000000000E+00  0.50000000000E+03  0.50000000000E+03  0.00000000000E+00 0. -1.
         11   -1    0    0    0    0 -0.00000000000E+00 -0.00000000000E+00 -0.50000000000E+03  0.50000000000E+03  0.00000000000E+00 0.  1.
        -11    1    1    2    0    0  0.12722135425E+01  0.75352416062E+01  0.34072754826E+03  0.34081323409E+03  0.00000000000E+00 0. -1.
         11    1    1    2    0    0  0.50982779285E+01  0.21722364938E+02 -0.49766203797E+03  0.49816197929E+03  0.00000000000E+00 0.  1.
        -15    1    1    2    0    0  0.24844273944E+00 -0.50041214530E+01  0.60666623749E+01  0.80662926231E+01  0.17770000000E+01 0. -1.
         15    1    1    2    0    0 -0.66189342104E+01 -0.24253485091E+02  0.15086782734E+03  0.15295849399E+03  0.17770000000E+01 0.  1.
</event>
<event>
 6    1  0.1860328E-003  0.5017429E+03  0.7546771E-02  0.9395918E-01
        -11   -1    0    0    0    0  0.00000000000E+00  0.00000000000E+00  0.50000000000E+03  0.50000000000E+03  0.00000000000E+00 0.  1.
         11   -1    0    0    0    0 -0.00000000000E+00 -0.00000000000E+00 -0.50000000000E+03  0.50000000000E+03  0.00000000000E+00 0. -1.
        -11    1    1    2    0    0  0.28274829139E+01 -0.15845485550E+02  0.49799705548E+03  0.49825710365E+03  0.00000000000E+00 0.  1.
         11    1    1    2    0    0 -0.11080583326E+02 -0.22658437110E+01 -0.29699186945E+03  0.29720713971E+03  0.00000000000E+00 0. -1.
        -15    1    1    2    0    0  0.48958594733E+01 -0.17701416120E+00 -0.38042754894E+01  0.64522100861E+01  0.17770000000E+01 0. -1.
         15    1    1    2    0    0  0.33572409389E+01  0.18288343422E+02 -0.19720091054E+03  0.19808354656E+03  0.17770000000E+01 0.  1.
</event>
<event>
 6    1  0.1860328E-003  0.5496401E+03  0.7546771E-02  0.9295111E-01
        -11   -1    0    0    0    0  0.00000000000E+00  0.00000000000E+00  0.50000000000E+03  0.50000000000E+03  0.00000000000E+00 0.  1.
         11   -1    0    0    0    0 -0.00000000000E+00 -0.00000000000E+00 -0.50000000000E+03  0.50000000000E+03  0.00000000000E+00 0. -1.
        -11    1    1    2    0    0  0.88618482052E+01 -0.65191990097E+01  0.45022548894E+03  0.45035988187E+03  0.00000000000E+00 0.  1.
         11    1    1    2    0    0  0.14402691389E+02  0.90682925612E+01 -0.38449923408E+03  0.38487573639E+03  0.00000000000E+00 0. -1.
        -15    1    1    2    0    0  0.64459044036E+01  0.96739127965E+01 -0.10967096229E+03  0.11029964629E+03  0.17770000000E+01 0. -1.
         15    1    1    2    0    0 -0.29710443998E+02 -0.12223006348E+02  0.43944707441E+02  0.54464735451E+02  0.17770000000E+01 0.  1.
</event>
<event>
 6    1  0.1860328E-003  0.5174337E+03  0.7546771E-02  0.9361624E-01
        -11   -1    0    0    0    0  0.00000000000E+00  0.00000000000E+00  0.50000000000E+03  0.50000000000E+03  0.00000000000E+00 0.  1.
         11   -1    0    0    0    0 -0.00000000000E+00 -0.00000000000E+00 -0.50000000000E+03  0.50000000000E+03  0.00000000000E+00 0. -1.
        -11    1    1    2    0    0 -0.14667746103E+02 -0.59507017408E+01  0.46863590796E+03  0.46890315403E+03  0.00000000000E+00 0.  1.
         11    1    1    2    0    0 -0.94446725491E+00  0.70457915782E+01 -0.48251395391E+03  0.48256631764E+03  0.00000000000E+00 0. -1.
        -15    1    1    2    0    0 -0.11072614191E+02 -0.12507975896E+02  0.89632838627E+01  0.19040757144E+02  0.17770000000E+01 0.  1.
         15    1    1    2    0    0  0.26684827548E+02  0.11412886059E+02  0.49147620839E+01  0.29489771189E+02  0.17770000000E+01 0. -1.
</event>
<event>
 6    1  0.1860328E-003  0.5071030E+03  0.7546771E-02  0.9384055E-01
        -11   -1    0    0    0    0  0.00000000000E+00  0.00000000000E+00  0.50000000000E+03  0.50000000000E+03  0.00000000000E+00 0.  1.
         11   -1    0    0    0    0 -0.00000000000E+00 -0.00000000000E+00 -0.50000000000E+03  0.50000000000E+03  0.00000000000E+00 0.  1.
        -11    1    1    2    0    0 -0.31540867620E+01  0.18152869898E+02  0.49255254651E+03  0.49289703389E+03  0.00000000000E+00 0.  1.
         11    1    1    2    0    0  0.11496592955E+02  0.14529206037E+02 -0.44870397053E+03  0.44908631982E+03  0.00000000000E+00 0.  1.
        -15    1    1    2    0    0 -0.43789214573E+01 -0.61138725061E+01 -0.22088239694E+02  0.23400907075E+02  0.17770000000E+01 0.  1.
         15    1    1    2    0    0 -0.39635847360E+01 -0.26568203429E+02 -0.21760336283E+02  0.34615739217E+02  0.17770000000E+01 0. -1.
</event>
<event>
 6    1  0.1860328E-003  0.5001163E+03  0.7546771E-02  0.9399550E-01
        -11   -1    0    0    0    0  0.00000000000E+00  0.00000000000E+00  0.50000000000E+03  0.50000000000E+03  0.00000000000E+00 0. -1.
         11   -1    0    0    0    0 -0.00000000000E+00 -0.00000000000E+00 -0.50000000000E+03  0.50000000000E+03  0.00000000000E+00 0. -1.
        -11    1    1    2    0    0 -0.54705664583E+01  0.27919210272E+01  0.11861272201E+03  0.11877162853E+03  0.00000000000E+00 0. -1.
         11    1    1    2    0    0  0.74754654457E+01  0.36638714095E+01 -0.49981436414E+03  0.49988369161E+03  0.00000000000E+00 0. -1.
        -15    1    1    2    0    0 -0.26825844198E+01 -0.95556105100E+00  0.62631051224E+02  0.62720934803E+02  0.17770000000E+01 0.  1.
         15    1    1    2    0    0  0.67768543243E+00 -0.55002313856E+01  0.31857059090E+03  0.31862374507E+03  0.17770000000E+01 0. -1.
</event>
<event>
 6    1  0.1860328E-003  0.5031271E+03  0.7546771E-02  0.9392840E-01
        -11   -1    0    0    0    0  0.00000000000E+00  0.00000000000E+00  0.50000000000E+03  0.50000000000E+03  0.00000000000E+00 0.  1.
         11   -1    0    0    0    0 -0.00000000000E+00 -0.00000000000E+00 -0.50000000000E+03  0.50000000000E+03  0.00000000000E+00 0.  1.
        -11    1    1    2    0    0  0.33776544406E+01  0.14450597808E+02  0.40758636232E+03  0.40785643439E+03  0.00000000000E+00 0.  1.
         11    1    1    2    0    0 -0.63264927030E+01  0.68854363429E+01 -0.49678488697E+03  0.49687287878E+03  0.00000000000E+00 0.  1.
        -15    1    1    2    0    0  0.93308261944E+00 -0.26008430641E+02  0.57812031870E+02  0.63424741746E+02  0.17770000000E+01 0.  1.
         15    1    1    2    0    0  0.20157556430E+01  0.46723964900E+01  0.31386492782E+02  0.31845945079E+02  0.17770000000E+01 0. -1.
</event>
<event>
 6    1  0.1860328E-003  0.5071542E+03  0.7546771E-02  0.9383942E-01
        -11   -1    0    0    0    0  0.00000000000E+00  0.00000000000E+00  0.50000000000E+03  0.50000000000E+03  0.00000000000E+00 0. -1.
         11   -1    0    0    0    0 -0.00000000000E+00 -0.00000000000E+00 -0.50000000000E+03  0.50000000000E+03  0.00000000000E+00 0.  1.
        -11    1    1    2    0    0  0.73083468983E+01  0.40626748712E+01  0.48257348914E+03  0.48264592579E+03  0.00000000000E+00 0. -1.
         11    1    1    2    0    0  0.28880600996E+01 -0.71208523061E+01 -0.49278589026E+03  0.49284579847E+03  0.00000000000E+00 0.  1.
        -15    1    1    2    0    0 -0.17291645100E+01 -0.62780995920E+01 -0.18217111562E+01  0.69914880338E+01  0.17770000000E+01 0.  1.
         15    1    1    2    0    0 -0.84672424879E+01  0.93362770269E+01  0.12034112278E+02  0.17516787702E+02  0.17770000000E+01 0. -1.
</event>
<event>
 6    1  0.1860328E-003  0.5009820E+03  0.7546771E-02  0.9397615E-01
        -11   -1    0    0    0    0  0.00000000000E+00  0.00000000000E+00  0.50000000000E+03  0.50000000000E+03  0.00000000000E+00 0.  1.
         11   -1    0    0    0    0 -0.00000000000E+00 -0.00000000000E+00 -0.50000000000E+03  0.50000000000E+03  0.00000000000E+00 0.  1.
        -11    1    1    2    0    0  0.80967641160E+01 -0.18033692045E+02  0.49862635236E+03  0.49901804667E+03  0.00000000000E+00 0.  1.
         11    1    1    2    0    0 -0.68687638143E+00  0.27824472139E+01 -0.13885571424E+03  0.13888528788E+03  0.00000000000E+00 0.  1.
        -15    1    1    2    0    0 -0.25787595292E+01 -0.23004542855E+01 -0.28818482569E+03  0.28821102265E+03  0.17770000000E+01 0.  1.
         15    1    1    2    0    0 -0.48311282054E+01  0.17551699116E+02 -0.71585812432E+02  0.73885642801E+02  0.17770000000E+01 0. -1.
</event>
<event>
 6    1  0.1860328E-003  0.5062431E+03  0.7546771E-02  0.9385948E-01
        -11   -1    0    0    0    0  0.00000000000E+00  0.00000000000E+00  0.50000000000E+03  0.50000000000E+03  0.00000000000E+00 0. -1.
         11   -1    0    0    0    0 -0.00000000000E+00 -0.00000000000E+00 -0.50000000000E+03  0.50000000000E+03  0.00000000000E+00 0. -1.
        -11    1    1    2    0    0  0.10629247274E+02  0.69451840776E+01  0.49359357485E+03  0.49375685677E+03  0.00000000000E+00 0. -1.
         11    1    1    2    0    0 -0.57624708851E+00 -0.11120165005E+02 -0.40890098878E+03  0.40905257457E+03  0.00000000000E+00 0. -1.
        -15    1    1    2    0    0  0.27310940051E+01 -0.88242257789E+01  0.10939701857E+01  0.94699701599E+01  0.17770000000E+01 0. -1.
         15    1    1    2    0    0 -0.12784094191E+02  0.12999206706E+02 -0.85786556250E+02  0.87720598502E+02  0.17770000000E+01 0. -1.
</event>
<event>
 6    1  0.1860328E-003  0.5048137E+03  0.7546771E-02  0.9389103E-01
        -11   -1    0    0    0    0  0.00000000000E+00  0.00000000000E+00  0.50000000000E+03  0.50000000000E+03  0.00000000000E+00 0.  1.
         11   -1    0    0    0    0 -0.00000000000E+00 -0.00000000000E+00 -0.50000000000E+03  0.50000000000E+03  0.00000000000E+00 0.  1.
        -11    1    1    2    0    0  0.92105021438E+01  0.73303645150E+01  0.49504633248E+03  0.49518626687E+03  0.00000000000E+00 0.  1.
         11    1    1    2    0    0 -0.34081690631E+01 -0.10533045303E+02 -0.46302781167E+03  0.46316013974E+03  0.00000000000E+00 0.  1.
        -15    1    1    2    0    0  0.99065050618E+01  0.31120243353E+00 -0.16391401627E+02  0.19237241637E+02  0.17770000000E+01 0.  1.
         15    1    1    2    0    0 -0.15708838142E+02  0.28914783546E+01 -0.15627119183E+02  0.22416351751E+02  0.17770000000E+01 0. -1.
</event>
<event>
 6    1  0.1860328E-003  0.5126221E+03  0.7546771E-02  0.9372001E-01
        -11   -1    0    0    0    0  0.00000000000E+00  0.00000000000E+00  0.50000000000E+03  0.50000000000E+03  0.00000000000E+00 0.  1.
         11   -1    0    0    0    0 -0.00000000000E+00 -0.00000000000E+00 -0.50000000000E+03  0.50000000000E+03  0.00000000000E+00 0. -1.
        -11    1    1    2    0    0 -0.68880126208E+00 -0.20210903617E+02  0.48695819891E+03  0.48737792581E+03  0.00000000000E+00 0.  1.
         11    1    1    2    0    0 -0.85932599264E+01  0.21617751158E+01 -0.47344513278E+03  0.47352804684E+03  0.00000000000E+00 0. -1.
        -15    1    1    2    0    0  0.18096214331E+02  0.71443970693E+01  0.50099664546E-02  0.19536456605E+02  0.17770000000E+01 0. -1.
         15    1    1    2    0    0 -0.88141531425E+01  0.10904731432E+02 -0.13518076100E+02  0.19557570750E+02  0.17770000000E+01 0.  1.
</event>
<event>
 6    1  0.1860328E-003  0.4808372E+03  0.7546771E-02  0.9443739E-01
        -11   -1    0    0    0    0  0.00000000000E+00  0.00000000000E+00  0.50000000000E+03  0.50000000000E+03  0.00000000000E+00 0. -1.
         11   -1    0    0    0    0 -0.00000000000E+00 -0.00000000000E+00 -0.50000000000E+03  0.50000000000E+03  0.00000000000E+00 0. -1.
        -11    1    1    2    0    0 -0.26553581418E+01  0.10497008278E+02  0.49279983266E+03  0.49291876935E+03  0.00000000000E+00 0. -1.
         11    1    1    2    0    0  0.65932893784E+00 -0.36739434195E+01 -0.11185014876E+02  0.11791400793E+02  0.00000000000E+00 0. -1.
        -15    1    1    2    0    0  0.48926262489E+01  0.15591371783E+02 -0.46911251074E+03  0.46940039852E+03  0.17770000000E+01 0. -1.
         15    1    1    2    0    0 -0.28965970449E+01 -0.22414436642E+02 -0.12502307041E+02  0.25889431333E+02  0.17770000000E+01 0.  1.
</event>
<event>
 6    1  0.1860328E-003  0.5004279E+03  0.7546771E-02  0.9398853E-01
        -11   -1    0    0    0    0  0.00000000000E+00  0.00000000000E+00  0.50000000000E+03  0.50000000000E+03  0.00000000000E+00 0.  1.
         11   -1    0    0    0    0 -0.00000000000E+00 -0.00000000000E+00 -0.50000000000E+03  0.50000000000E+03  0.00000000000E+00 0.  1.
        -11    1    1    2    0    0  0.63513454169E+01  0.38325035451E+01  0.49951698384E+03  0.49957206169E+03  0.00000000000E+00 0.  1.
         11    1    1    2    0    0  0.61035128162E+01  0.15756298756E+01 -0.30678944473E+03  0.30685419807E+03  0.00000000000E+00 0.  1.
        -15    1    1    2    0    0 -0.12128394524E+01  0.73254233428E+00 -0.90879607935E+02  0.90908022007E+02  0.17770000000E+01 0.  1.
         15    1    1    2    0    0 -0.11242018781E+02 -0.61406757550E+01 -0.10184793118E+03  0.10266571823E+03  0.17770000000E+01 0. -1.
</event>
<event>
 6    1  0.1860328E-003  0.5009680E+03  0.7546771E-02  0.9397646E-01
        -11   -1    0    0    0    0  0.00000000000E+00  0.00000000000E+00  0.50000000000E+03  0.50000000000E+03  0.00000000000E+00 0. -1.
         11   -1    0    0    0    0 -0.00000000000E+00 -0.00000000000E+00 -0.50000000000E+03  0.50000000000E+03  0.00000000000E+00 0.  1.
        -11    1    1    2    0    0  0.82765084572E+01 -0.59228284488E+01  0.49892823053E+03  0.49903202273E+03  0.00000000000E+00 0. -1.
         11    1    1    2    0    0 -0.25499209841E+01 -0.73296355448E+01 -0.35160667928E+03  0.35169231235E+03  0.00000000000E+00 0.  1.
        -15    1    1    2    0    0 -0.13740063422E+00  0.15400932040E+02 -0.69712106753E+02  0.71415286484E+02  0.17770000000E+01 0. -1.
         15    1    1    2    0    0 -0.55891868389E+01 -0.21484680469E+01 -0.77609444500E+02  0.77860378429E+02  0.17770000000E+01 0.  1.
</event>
<event>
 6    1  0.1860328E-003  0.5001325E+03  0.7546771E-02  0.9399513E-01
        -11   -1    0    0    0    0  0.00000000000E+00  0.00000000000E+00  0.50000000000E+03  0.50000000000E+03  0.00000000000E+00 0.  1.
         11   -1    0    0    0    0 -0.00000000000E+00 -0.00000000000E+00 -0.50000000000E+03  0.50000000000E+03  0.00000000000E+00 0. -1.
        -11    1    1    2    0    0  0.56627642237E+01  0.57970696408E+01  0.22376709359E+03  0.22391378941E+03  0.00000000000E+00 0.  1.
         11    1    1    2    0    0 -0.14487330812E+01 -0.77254197807E+01 -0.49980568294E+03  0.49986748408E+03  0.00000000000E+00 0. -1.
        -15    1    1    2    0    0 -0.25572704359E+01  0.35070578123E+01  0.24507454871E+03  0.24511942240E+03  0.17770000000E+01 0.  1.
         15    1    1    2    0    0 -0.16567607066E+01 -0.15787076724E+01  0.30964040645E+02  0.31099304108E+02  0.17770000000E+01 0. -1.
</event>
<event>
 6    1  0.1860328E-003  0.5058712E+03  0.7546771E-02  0.9386767E-01
        -11   -1    0    0    0    0  0.00000000000E+00  0.00000000000E+00  0.50000000000E+03  0.50000000000E+03  0.00000000000E+00 0.  1.
         11   -1    0    0    0    0 -0.00000000000E+00 -0.00000000000E+00 -0.50000000000E+03  0.50000000000E+03  0.00000000000E+00 0.  1.
        -11    1    1    2    0    0  0.74172697712E+01  0.17112991233E+02  0.49377665079E+03  0.49412878000E+03  0.00000000000E+00 0.  1.
         11    1    1    2    0    0 -0.49553855718E+01 -0.27784761674E+01 -0.39942293587E+03  0.39946333684E+03  0.00000000000E+00 0.  1.
        -15    1    1    2    0    0  0.22589451824E+01  0.16523159186E+01 -0.88632901954E+02  0.88694881583E+02  0.17770000000E+01 0. -1.
         15    1    1    2    0    0 -0.47208293819E+01 -0.15986830985E+02 -0.57208129604E+01  0.17713001578E+02  0.17770000000E+01 0.  1.
</event>
<event>
 6    1  0.1860328E-003  0.4793275E+03  0.7546771E-02  0.9447292E-01
        -11   -1    0    0    0    0  0.00000000000E+00  0.00000000000E+00  0.50000000000E+03  0.50000000000E+03  0.00000000000E+00 0.  1.
         11   -1    0    0    0    0 -0.00000000000E+00 -0.00000000000E+00 -0.50000000000E+03  0.50000000000E+03  0.00000000000E+00 0.  1.
        -11    1    1    2    0    0  0.11464857947E+02  0.16819441357E+02  0.47381799152E+03  0.47425502176E+03  0.00000000000E+00 0.  1.
         11    1    1    2    0    0 -0.14980205817E+01  0.11158695890E+02 -0.48479197223E+03  0.48492269167E+03  0.00000000000E+00 0.  1.
        -15    1    1    2    0    0 -0.10229176390E+02 -0.30136632728E+01  0.11505364410E+02  0.15787632981E+02  0.17770000000E+01 0. -1.
         15    1    1    2    0    0  0.26233902470E+00 -0.24964473974E+02 -0.53138370506E+00  0.25034653587E+02  0.17770000000E+01 0.  1.
</event>
<event>
 6    1  0.1860328E-003  0.4833378E+03  0.7546771E-02  0.9437884E-01
        -11   -1    0    0    0    0  0.00000000000E+00  0.00000000000E+00  0.50000000000E+03  0.50000000000E+03  0.00000000000E+00 0. -1.
         11   -1    0    0    0    0 -0.00000000000E+00 -0.00000000000E+00 -0.50000000000E+03  0.50000000000E+03  0.00000000000E+00 0. -1.
        -11    1    1    2    0    0 -0.24644593078E+01  0.61967369932E+01  0.48590929673E+03  0.48595505734E+03  0.00000000000E+00 0. -1.
         11    1    1    2    0    0 -0.99310025760E+01  0.96577129959E+01 -0.48074429410E+03  0.48094383512E+03  0.00000000000E+00 0. -1.
        -15    1    1    2    0    0  0.69846668864E+01 -0.95516695378E+01 -0.15590510964E+02  0.19653033445E+02  0.17770000000E+01 0. -1.
         15    1    1    2    0    0  0.54107949974E+01 -0.63027804513E+01  0.10425508332E+02  0.13448074097E+02  0.17770000000E+01 0.  1.
</event>
<event>
 6    1  0.1860328E-003  0.5001803E+03  0.7546771E-02  0.9399406E-01
        -11   -1    0    0    0    0  0.00000000000E+00  0.00000000000E+00  0.50000000000E+03  0.50000000000E+03  0.00000000000E+00 0. -1.
         11   -1    0    0    0    0 -0.00000000000E+00 -0.00000000000E+00 -0.50000000000E+03  0.50000000000E+03  0.00000000000E+00 0.  1.
        -11    1    1    2    0    0 -0.40487843140E+00  0.32221310455E+01  0.19402443751E+03  0.19405161274E+03  0.00000000000E+00 0. -1.
         11    1    1    2    0    0  0.38216366855E+01  0.60758149302E+01 -0.49976811325E+03  0.49981965493E+03  0.00000000000E+00 0.  1.
        -15    1    1    2    0    0  0.20728973428E+00 -0.59910705455E+01  0.26205189750E+03  0.26212647826E+03  0.17770000000E+01 0. -1.
         15    1    1    2    0    0 -0.36240479884E+01 -0.33068754302E+01  0.43691778237E+02  0.44002254072E+02  0.17770000000E+01 0.  1.
</event>
<event>
 6    1  0.1860328E-003  0.4111932E+03  0.7546771E-02  0.9623895E-01
        -11   -1    0    0    0    0  0.00000000000E+00  0.00000000000E+00  0.50000000000E+03  0.50000000000E+03  0.00000000000E+00 0.  1.
         11   -1    0    0    0    0 -0.00000000000E+00 -0.00000000000E+00 -0.50000000000E+03  0.50000000000E+03  0.00000000000E+00 0. -1.
        -11    1    1    2    0    0  0.10426251259E+01 -0.82734060545E+01  0.41061202303E+03  0.41069668829E+03  0.00000000000E+00 0.  1.
         11    1    1    2    0    0  0.38016065927E+01 -0.71881238753E+01 -0.41176976546E+03  0.41185004685E+03  0.00000000000E+00 0. -1.
        -15    1    1    2    0    0  0.45483629183E+02  0.61502439005E+02  0.51869384353E+02  0.92438635263E+02  0.17770000000E+01 0.  1.
         15    1    1    2    0    0 -0.50327860902E+02 -0.46040909075E+02 -0.50711641919E+02  0.85014629603E+02  0.17770000000E+01 0. -1.
</event>
<event>
 6    1  0.1860328E-003  0.5009838E+03  0.7546771E-02  0.9397611E-01
        -11   -1    0    0    0    0  0.00000000000E+00  0.00000000000E+00  0.50000000000E+03  0.50000000000E+03  0.00000000000E+00 0. -1.
         11   -1    0    0    0    0 -0.00000000000E+00 -0.00000000000E+00 -0.50000000000E+03  0.50000000000E+03  0.00000000000E+00 0.  1.
        -11    1    1    2    0    0 -0.16790606194E+00 -0.96493225991E+01  0.22983966635E+03  0.23004219145E+03  0.00000000000E+00 0. -1.
         11    1    1    2    0    0 -0.90521497620E+01  0.99831222351E+01 -0.49883423658E+03  0.49901623193E+03  0.00000000000E+00 0.  1.
        -15    1    1    2    0    0 -0.22373081534E+01  0.94041105673E+01  0.20277393258E+03  0.20301199055E+03  0.17770000000E+01 0. -1.
         15    1    1    2    0    0  0.11457363977E+02 -0.97379102033E+01  0.66220637642E+02  0.67929586067E+02  0.17770000000E+01 0.  1.
</event>
<event>
 6    1  0.1860328E-003  0.5026344E+03  0.7546771E-02  0.9393934E-01
        -11   -1    0    0    0    0  0.00000000000E+00  0.00000000000E+00  0.50000000000E+03  0.50000000000E+03  0.00000000000E+00 0. -1.
         11   -1    0    0    0    0 -0.00000000000E+00 -0.00000000000E+00 -0.50000000000E+03  0.50000000000E+03  0.00000000000E+00 0. -1.
        -11    1    1    2    0    0  0.60794815497E+01  0.21903270207E+01  0.36638074102E+03  0.36643772325E+03  0.00000000000E+00 0. -1.
         11    1    1    2    0    0  0.56570894283E+01  0.20302209224E+02 -0.49691882228E+03  0.49736555801E+03  0.00000000000E+00 0. -1.
        -15    1    1    2    0    0 -0.51046539377E+01 -0.20237360489E+02  0.12585281314E+03  0.12758407642E+03  0.17770000000E+01 0. -1.
         15    1    1    2    0    0 -0.66319170403E+01 -0.22551757558E+01  0.46852681176E+01  0.86126423154E+01  0.17770000000E+01 0.  1.
</event>
<event>
 6    1  0.1860328E-003  0.5036672E+03  0.7546771E-02  0.9391641E-01
        -11   -1    0    0    0    0  0.00000000000E+00  0.00000000000E+00  0.50000000000E+03  0.50000000000E+03  0.00000000000E+00 0. -1.
         11   -1    0    0    0    0 -0.00000000000E+00 -0.00000000000E+00 -0.50000000000E+03  0.50000000000E+03  0.00000000000E+00 0. -1.
        -11    1    1    2    0    0 -0.16291856720E+01  0.15889745369E+02  0.49607566873E+03  0.49633275870E+03  0.00000000000E+00 0. -1.
         11    1    1    2    0    0 -0.78215329162E+01  0.81157841209E+01 -0.37714289427E+03  0.37731128399E+03  0.00000000000E+00 0. -1.
        -15    1    1    2    0    0  0.20716766867E+02 -0.18593605207E+02 -0.98175347886E+02  0.10206107606E+03  0.17770000000E+01 0.  1.
         15    1    1    2    0    0 -0.11266048279E+02 -0.54119242830E+01 -0.20757426577E+02  0.24294881258E+02  0.17770000000E+01 0. -1.
</event>
<event>
 6    1  0.1860328E-003  0.5028042E+03  0.7546771E-02  0.9393557E-01
        -11   -1    0    0    0    0  0.00000000000E+00  0.00000000000E+00  0.50000000000E+03  0.50000000000E+03  0.00000000000E+00 0.  1.
         11   -1    0    0    0    0 -0.00000000000E+00 -0.00000000000E+00 -0.50000000000E+03  0.50000000000E+03  0.00000000000E+00 0.  1.
        -11    1    1    2    0    0  0.19208315217E+01  0.12024026662E+02  0.49704664302E+03  0.49719576843E+03  0.00000000000E+00 0.  1.
         11    1    1    2    0    0  0.11512967146E+02  0.56980152621E+01 -0.25504096896E+03  0.25536427244E+03  0.00000000000E+00 0.  1.
        -15    1    1    2    0    0 -0.28262986773E+02 -0.72279926811E+01 -0.19190225144E+03  0.19411510022E+03  0.17770000000E+01 0. -1.
         15    1    1    2    0    0  0.14829188106E+02 -0.10494049243E+02 -0.50103422626E+02  0.53324858905E+02  0.17770000000E+01 0.  1.
</event>
<event>
 6    1  0.1860328E-003  0.5015897E+03  0.7546771E-02  0.9396260E-01
        -11   -1    0    0    0    0  0.00000000000E+00  0.00000000000E+00  0.50000000000E+03  0.50000000000E+03  0.00000000000E+00 0.  1.
         11   -1    0    0    0    0 -0.00000000000E+00 -0.00000000000E+00 -0.50000000000E+03  0.50000000000E+03  0.00000000000E+00 0. -1.
        -11    1    1    2    0    0  0.87048618839E+01  0.29105263240E+01  0.49832580098E+03  0.49841032263E+03  0.00000000000E+00 0.  1.
         11    1    1    2    0    0  0.26538326039E+01  0.55170543706E+01 -0.44013975452E+03  0.44018233066E+03  0.00000000000E+00 0. -1.
        -15    1    1    2    0    0 -0.10022704654E+02 -0.38243599703E+01 -0.19018109206E+02  0.21907225853E+02  0.17770000000E+01 0. -1.
         15    1    1    2    0    0 -0.13359898334E+01 -0.46032207243E+01 -0.39167937257E+02  0.39500120859E+02  0.17770000000E+01 0.  1.
</event>
<event>
 6    1  0.1860328E-003  0.5053144E+03  0.7546771E-02  0.9387996E-01
        -11   -1    0    0    0    0  0.00000000000E+00  0.00000000000E+00  0.50000000000E+03  0.50000000000E+03  0.00000000000E+00 0.  1.
         11   -1    0    0    0    0 -0.00000000000E+00 -0.00000000000E+00 -0.50000000000E+03  0.50000000000E+03  0.00000000000E+00 0. -1.
        -11    1    1    2    0    0 -0.70912437449E+01 -0.26015469804E+00  0.40394620131E+03  0.40400852339E+03  0.00000000000E+00 0.  1.
         11    1    1    2    0    0  0.28091328187E+02  0.27907286218E+01 -0.49387948703E+03  0.49468561592E+03  0.00000000000E+00 0. -1.
        -15    1    1    2    0    0 -0.33116973045E+02 -0.97797804502E-01  0.55202210190E+02  0.64398642897E+02  0.17770000000E+01 0.  1.
         15    1    1    2    0    0  0.12116888603E+02 -0.24327761192E+01  0.34731075525E+02  0.36907217793E+02  0.17770000000E+01 0. -1.
</event>
<event>
 6    1  0.1860328E-003  0.5033085E+03  0.7546771E-02  0.9392437E-01
        -11   -1    0    0    0    0  0.00000000000E+00  0.00000000000E+00  0.50000000000E+03  0.50000000000E+03  0.00000000000E+00 0. -1.
         11   -1    0    0    0    0 -0.00000000000E+00 -0.00000000000E+00 -0.50000000000E+03  0.50000000000E+03  0.00000000000E+00 0.  1.
        -11    1    1    2    0    0 -0.12212676168E+02 -0.10558549283E+02  0.45733843595E+03  0.45762329205E+03  0.00000000000E+00 0. -1.
         11    1    1    2    0    0  0.83727238310E+00 -0.68637869936E+01 -0.49664335709E+03  0.49669149051E+03  0.00000000000E+00 0.  1.
        -15    1    1    2    0    0  0.12347538222E+01  0.59553215785E+00  0.73173921019E+00  0.23606030636E+01  0.17770000000E+01 0.  1.
         15    1    1    2    0    0  0.10140649963E+02  0.16826804118E+02  0.38573181928E+02  0.43324614384E+02  0.17770000000E+01 0. -1.
</event>
<event>
 6    1  0.1860328E-003  0.5011127E+03  0.7546771E-02  0.9397323E-01
        -11   -1    0    0    0    0  0.00000000000E+00  0.00000000000E+00  0.50000000000E+03  0.50000000000E+03  0.00000000000E+00 0.  1.
         11   -1    0    0    0    0 -0.00000000000E+00 -0.00000000000E+00 -0.50000000000E+03  0.50000000000E+03  0.00000000000E+00 0.  1.
        -11    1    1    2    0    0 -0.68561587813E+01 -0.22983494527E+01  0.49883487681E+03  0.49888728552E+03  0.00000000000E+00 0.  1.
         11    1    1    2    0    0 -0.49743394902E+01  0.16035926784E+02 -0.34027760622E+03  0.34069156770E+03  0.00000000000E+00 0.  1.
        -15    1    1    2    0    0  0.98717378220E+01 -0.62319198015E+01 -0.43054334034E+02  0.44644388675E+02  0.17770000000E+01 0. -1.
         15    1    1    2    0    0  0.19587604494E+01 -0.75056575304E+01 -0.11550293655E+03  0.11577675811E+03  0.17770000000E+01 0.  1.
</event>
<event>
 6    1  0.1860328E-003  0.5062180E+03  0.7546771E-02  0.9386003E-01
        -11   -1    0    0    0    0  0.00000000000E+00  0.00000000000E+00  0.50000000000E+03  0.50000000000E+03  0.00000000000E+00 0. -1.
         11   -1    0    0    0    0 -0.00000000000E+00 -0.00000000000E+00 -0.50000000000E+03  0.50000000000E+03  0.00000000000E+00 0. -1.
        -11    1    1    2    0    0  0.34629401793E+01 -0.98888173005E+01  0.49367085947E+03  0.49378203507E+03  0.00000000000E+00 0. -1.
         11    1    1    2    0    0  0.10124809047E+02  0.48791465082E+00 -0.46893341596E+03  0.46904296010E+03  0.00000000000E+00 0. -1.
        -15    1    1    2    0    0 -0.15823977337E+02  0.52697935664E+00 -0.75685955926E+01  0.17638518482E+02  0.17770000000E+01 0. -1.
         15    1    1    2    0    0  0.22362281102E+01  0.88739232930E+01 -0.17168847926E+02  0.19536486349E+02  0.17770000000E+01 0.  1.
</event>
<event>
 6    1  0.1860328E-003  0.5002911E+03  0.7546771E-02  0.9399159E-01
        -11   -1    0    0    0    0  0.00000000000E+00  0.00000000000E+00  0.50000000000E+03  0.50000000000E+03  0.00000000000E+00 0.  1.
         11   -1    0    0    0    0 -0.00000000000E+00 -0.00000000000E+00 -0.50000000000E+03  0.50000000000E+03  0.00000000000E+00 0. -1.
        -11    1    1    2    0    0 -0.14651415128E+01 -0.27765532851E+01  0.15667339221E+03  0.15670484266E+03  0.00000000000E+00 0.  1.
         11    1    1    2    0    0  0.41012611200E-01 -0.12223011343E+02 -0.49955940030E+03  0.49970891338E+03  0.00000000000E+00 0. -1.
        -15    1    1    2    0    0  0.90192311654E+00  0.49954614102E+01  0.26299734112E+03  0.26305232799E+03  0.17770000000E+01 0.  1.
         15    1    1    2    0    0  0.52220578503E+00  0.10004103218E+02  0.79888666977E+02  0.80533915963E+02  0.17770000000E+01 0.  1.
</event>
<event>
 6    1  0.1860328E-003  0.5010666E+03  0.7546771E-02  0.9397426E-01
        -11   -1    0    0    0    0  0.00000000000E+00  0.00000000000E+00  0.50000000000E+03  0.50000000000E+03  0.00000000000E+00 0. -1.
         11   -1    0    0    0    0 -0.00000000000E+00 -0.00000000000E+00 -0.50000000000E+03  0.50000000000E+03  0.00000000000E+00 0. -1.
        -11    1    1    2    0    0  0.59991417196E+01 -0.36740968002E+01  0.39081466256E+03  0.39087797221E+03  0.00000000000E+00 0. -1.
         11    1    1    2    0    0  0.71063686010E+01  0.78228337249E+01 -0.49882143565E+03  0.49893338420E+03  0.00000000000E+00 0. -1.
        -15    1    1    2    0    0  0.16833110537E+01 -0.63072209000E+01  0.32680348940E+02  0.33373305312E+02  0.17770000000E+01 0. -1.
         15    1    1    2    0    0 -0.14788821374E+02  0.21584839753E+01  0.75326424151E+02  0.76815338280E+02  0.17770000000E+01 0.  1.
</event>
<event>
 6    1  0.1860328E-003  0.5266969E+03  0.7546771E-02  0.9341978E-01
        -11   -1    0    0    0    0  0.00000000000E+00  0.00000000000E+00  0.50000000000E+03  0.50000000000E+03  0.00000000000E+00 0.  1.
         11   -1    0    0    0    0 -0.00000000000E+00 -0.00000000000E+00 -0.50000000000E+03  0.50000000000E+03  0.00000000000E+00 0.  1.
        -11    1    1    2    0    0 -0.97544875014E+01 -0.33368555404E+01  0.44593605230E+03  0.44605520664E+03  0.00000000000E+00 0.  1.
         11    1    1    2    0    0  0.19742018076E+01  0.15550080638E+02 -0.47304348266E+03  0.47330311531E+03  0.00000000000E+00 0.  1.
        -15    1    1    2    0    0 -0.21068239054E+02  0.11760299617E+01  0.40801286457E+02  0.45969081445E+02  0.17770000000E+01 0.  1.
         15    1    1    2    0    0  0.28848524748E+02 -0.13389255059E+02 -0.13693856102E+02  0.34672596601E+02  0.17770000000E+01 0. -1.
</event>
<event>
 6    1  0.1860328E-003  0.5141792E+03  0.7546771E-02  0.9368630E-01
        -11   -1    0    0    0    0  0.00000000000E+00  0.00000000000E+00  0.50000000000E+03  0.50000000000E+03  0.00000000000E+00 0. -1.
         11   -1    0    0    0    0 -0.00000000000E+00 -0.00000000000E+00 -0.50000000000E+03  0.50000000000E+03  0.00000000000E+00 0. -1.
        -11    1    1    2    0    0 -0.64907376109E+01  0.42455526629E+01  0.48575886966E+03  0.48582078367E+03  0.00000000000E+00 0. -1.
         11    1    1    2    0    0 -0.17146321972E+02 -0.12216614792E+02 -0.46162541586E+03  0.46210525490E+03  0.00000000000E+00 0. -1.
        -15    1    1    2    0    0  0.23031364439E+02  0.37337398103E+01 -0.33941634577E+02  0.41225924461E+02  0.17770000000E+01 0. -1.
         15    1    1    2    0    0  0.60569514329E+00  0.42373223187E+01  0.98081807729E+01  0.10848036971E+02  0.17770000000E+01 0.  1.
</event>
<event>
 6    1  0.1860328E-003  0.5099313E+03  0.7546771E-02  0.9377858E-01
        -11   -1    0    0    0    0  0.00000000000E+00  0.00000000000E+00  0.50000000000E+03  0.50000000000E+03  0.00000000000E+00 0.  1.
         11   -1    0    0    0    0 -0.00000000000E+00 -0.00000000000E+00 -0.50000000000E+03  0.50000000000E+03  0.00000000000E+00 0. -1.
        -11    1    1    2    0    0 -0.15771964533E+02 -0.14523570500E+02  0.48959942539E+03  0.49006865469E+03  0.00000000000E+00 0.  1.
         11    1    1    2    0    0 -0.30657031853E+01 -0.65496759982E+01 -0.36993189361E+03  0.37000257121E+03  0.00000000000E+00 0. -1.
        -15    1    1    2    0    0 -0.24418005739E+01  0.35523287646E+02 -0.10356662397E+03  0.10953113569E+03  0.17770000000E+01 0. -1.
         15    1    1    2    0    0  0.21279468293E+02 -0.14450041148E+02 -0.16100907815E+02  0.30397638419E+02  0.17770000000E+01 0.  1.
</event>
<event>
 6    1  0.1860328E-003  0.5091862E+03  0.7546771E-02  0.9379486E-01
        -11   -1    0    0    0    0  0.00000000000E+00  0.00000000000E+00  0.50000000000E+03  0.50000000000E+03  0.00000000000E+00 0. -1.
         11   -1    0    0    0    0 -0.00000000000E+00 -0.00000000000E+00 -0.50000000000E+03  0.50000000000E+03  0.00000000000E+00 0. -1.
        -11    1    1    2    0    0 -0.61718979108E+01  0.38647309867E+01  0.49075981715E+03  0.49081384108E+03  0.00000000000E+00 0. -1.
         11    1    1    2    0    0  0.13279622493E+01  0.12708920474E+02 -0.45096805081E+03  0.45114904743E+03  0.00000000000E+00 0. -1.
        -15    1    1    2    0    0  0.22782294520E+01  0.18748226682E+01  0.69131997326E+01  0.77236875271E+01  0.17770000000E+01 0. -1.
         15    1    1    2    0    0  0.25657062094E+01 -0.18448474129E+02 -0.46704966073E+02  0.50313423963E+02  0.17770000000E+01 0.  1.
</event>
<event>
 6    1  0.1860328E-003  0.5009386E+03  0.7546771E-02  0.9397712E-01
        -11   -1    0    0    0    0  0.00000000000E+00  0.00000000000E+00  0.50000000000E+03  0.50000000000E+03  0.00000000000E+00 0.  1.
         11   -1    0    0    0    0 -0.00000000000E+00 -0.00000000000E+00 -0.50000000000E+03  0.50000000000E+03  0.00000000000E+00 0. -1.
        -11    1    1    2    0    0  0.11716717634E+02 -0.11771795422E+02  0.49878495612E+03  0.49906140814E+03  0.00000000000E+00 0.  1.
         11    1    1    2    0    0  0.54181459070E+01  0.60327601724E+01 -0.34923927562E+03  0.34933339682E+03  0.00000000000E+00 0. -1.
        -15    1    1    2    0    0 -0.15384324565E+02 -0.29547770681E+01 -0.10120458392E+03  0.10242525902E+03  0.17770000000E+01 0.  1.
         15    1    1    2    0    0 -0.17505389751E+01  0.86938123179E+01 -0.48341096579E+02  0.49179936019E+02  0.17770000000E+01 0. -1.
</event>
<event>
 6    1  0.1860328E-003  0.5219039E+03  0.7546771E-02  0.9352089E-01
        -11   -1    0    0    0    0  0.00000000000E+00  0.00000000000E+00  0.50000000000E+03  0.50000000000E+03  0.00000000000E+00 0.  1.
         11   -1    0    0    0    0 -0.00000000000E+00 -0.00000000000E+00 -0.50000000000E+03  0.50000000000E+03  0.00000000000E+00 0. -1.
        -11    1    1    2    0    0  0.12119833910E+02 -0.53369983696E+01  0.41922990766E+03  0.41943901750E+03  0.00000000000E+00 0.  1.
         11    1    1    2    0    0  0.11759164313E+02  0.30781846869E+02 -0.47695922744E+03  0.47809612494E+03  0.00000000000E+00 0. -1.
        -15    1    1    2    0    0 -0.30352379035E+02 -0.46383162292E+01  0.70660762070E+02  0.77064141569E+02  0.17770000000E+01 0.  1.
         15    1    1    2    0    0  0.64733808117E+01 -0.20806532270E+02 -0.12931442286E+02  0.25400715991E+02  0.17770000000E+01 0. -1.
</event>
<event>
 6    1  0.1860328E-003  0.5024913E+03  0.7546771E-02  0.9394252E-01
        -11   -1    0    0    0    0  0.00000000000E+00  0.00000000000E+00  0.50000000000E+03  0.50000000000E+03  0.00000000000E+00 0.  1.
         11   -1    0    0    0    0 -0.00000000000E+00 -0.00000000000E+00 -0.50000000000E+03  0.50000000000E+03  0.00000000000E+00 0. -1.
        -11    1    1    2    0    0  0.12814275220E+02  0.19772404860E+01  0.34510161044E+03  0.34534509792E+03  0.00000000000E+00 0.  1.
         11    1    1    2    0    0  0.67898403164E+01 -0.12339086511E+01 -0.49746081011E+03  0.49750867536E+03  0.00000000000E+00 0. -1.
        -15    1    1    2    0    0 -0.15911619105E+02 -0.38493787161E+01  0.15090751487E+03  0.15180327109E+03  0.17770000000E+01 0. -1.
         15    1    1    2    0    0 -0.36924964311E+01  0.31060468812E+01  0.14516848055E+01  0.53429556331E+01  0.17770000000E+01 0.  1.
</event>
<event>
 6    1  0.1860328E-003  0.5015374E+03  0.7546771E-02  0.9396376E-01
        -11   -1    0    0    0    0  0.00000000000E+00  0.00000000000E+00  0.50000000000E+03  0.50000000000E+03  0.00000000000E+00 0.  1.
         11   -1    0    0    0    0 -0.00000000000E+00 -0.00000000000E+00 -0.50000000000E+03  0.50000000000E+03  0.00000000000E+00 0.  1.
        -11    1    1    2    0    0 -0.13403087472E+01  0.71370108446E+01  0.46121822872E+03  0.46127539264E+03  0.00000000000E+00 0.  1.
         11    1    1    2    0    0 -0.99439447261E+01 -0.65206088039E+00 -0.49836299060E+03  0.49846261406E+03  0.00000000000E+00 0.  1.
        -15    1    1    2    0    0  0.14184877754E+01  0.12431684087E+01  0.38357331887E+01  0.46290553417E+01  0.17770000000E+01 0. -1.
         15    1    1    2    0    0  0.98657656980E+01 -0.77281183729E+01  0.33309028689E+02  0.35632937959E+02  0.17770000000E+01 0.  1.
</event>
<event>
 6    1  0.1860328E-003  0.5021280E+03  0.7546771E-02  0.9395061E-01
        -11   -1    0    0    0    0  0.00000000000E+00  0.00000000000E+00  0.50000000000E+03  0.50000000000E+03  0.00000000000E+00 0.  1.
         11   -1    0    0    0    0 -0.00000000000E+00 -0.00000000000E+00 -0.50000000000E+03  0.50000000000E+03  0.00000000000E+00 0. -1.
        -11    1    1    2    0    0  0.55846234828E+01 -0.85815054361E+01  0.49776666265E+03  0.49787195211E+03  0.00000000000E+00 0.  1.
         11    1    1    2    0    0 -0.18448020075E+01  0.18159366456E+02 -0.14597763957E+03  0.14711436754E+03  0.00000000000E+00 0. -1.
        -15    1    1    2    0    0 -0.17843141930E+02 -0.49378320621E+01 -0.59425717211E+02  0.62268238248E+02  0.17770000000E+01 0.  1.
         15    1    1    2    0    0  0.14103320455E+02 -0.46400289575E+01 -0.29236330587E+03  0.29274544210E+03  0.17770000000E+01 0. -1.
</event>
<event>
 6    1  0.1860328E-003  0.4667502E+03  0.7546771E-02  0.9477445E-01
        -11   -1    0    0    0    0  0.00000000000E+00  0.00000000000E+00  0.50000000000E+03  0.50000000000E+03  0.00000000000E+00 0. -1.
         11   -1    0    0    0    0 -0.00000000000E+00 -0.00000000000E+00 -0.50000000000E+03  0.50000000000E+03  0.00000000000E+00 0.  1.
        -11    1    1    2    0    0 -0.60953871445E+01  0.13774240983E+02  0.46852920062E+03  0.46877126116E+03  0.00000000000E+00 0. -1.
         11    1    1    2    0    0 -0.30715965570E+01  0.23880113601E+02 -0.46491727832E+03  0.46554029924E+03  0.00000000000E+00 0.  1.
        -15    1    1    2    0    0  0.27437556101E+01 -0.27403789460E+02  0.23306980591E+02  0.36122969768E+02  0.17770000000E+01 0. -1.
         15    1    1    2    0    0  0.64232280914E+01 -0.10250565124E+02 -0.26918902891E+02  0.29565469832E+02  0.17770000000E+01 0.  1.
</event>
<event>
 6    1  0.1860328E-003  0.5033977E+03  0.7546771E-02  0.9392239E-01
        -11   -1    0    0    0    0  0.00000000000E+00  0.00000000000E+00  0.50000000000E+03  0.50000000000E+03  0.00000000000E+00 0. -1.
         11   -1    0    0    0    0 -0.00000000000E+00 -0.00000000000E+00 -0.50000000000E+03  0.50000000000E+03  0.00000000000E+00 0.  1.
        -11    1    1    2    0    0  0.13546044060E+02  0.51902609099E+01  0.42635726954E+03  0.42660397959E+03  0.00000000000E+00 0. -1.
         11    1    1    2    0    0  0.34471365899E+01  0.60581467023E+01 -0.49655337068E+03  0.49660228938E+03  0.00000000000E+00 0.  1.
        -15    1    1    2    0    0 -0.94011082582E+01  0.85458654954E+00  0.55107396706E+02  0.55938305796E+02  0.17770000000E+01 0. -1.
         15    1    1    2    0    0 -0.75920723918E+01 -0.12102994162E+02  0.15088704433E+02  0.20855425226E+02  0.17770000000E+01 0.  1.
</event>
<event>
 6    1  0.1860328E-003  0.5001294E+03  0.7546771E-02  0.9399520E-01
        -11   -1    0    0    0    0  0.00000000000E+00  0.00000000000E+00  0.50000000000E+03  0.50000000000E+03  0.00000000000E+00 0. -1.
         11   -1    0    0    0    0 -0.00000000000E+00 -0.00000000000E+00 -0.50000000000E+03  0.50000000000E+03  0.00000000000E+00 0.  1.
        -11    1    1    2    0    0  0.24076017588E+01  0.19285516686E+01  0.10946568278E+03  0.10950913918E+03  0.00000000000E+00 0. -1.
         11    1    1    2    0    0 -0.34254679886E+01  0.11878562572E+02 -0.49971774294E+03  0.49987063996E+03  0.00000000000E+00 0.  1.
        -15    1    1    2    0    0 -0.34326882632E+01 -0.10343745981E+02  0.25297756360E+03  0.25321844689E+03  0.17770000000E+01 0. -1.
         15    1    1    2    0    0  0.44505544930E+01 -0.34633682603E+01  0.13727449656E+03  0.13740177397E+03  0.17770000000E+01 0.  1.
</event>
<event>
 6    1  0.1860328E-003  0.4819258E+03  0.7546771E-02  0.9441186E-01
        -11   -1    0    0    0    0  0.00000000000E+00  0.00000000000E+00  0.50000000000E+03  0.50000000000E+03  0.00000000000E+00 0. -1.
         11   -1    0    0    0    0 -0.00000000000E+00 -0.00000000000E+00 -0.50000000000E+03  0.50000000000E+03  0.00000000000E+00 0.  1.
        -11    1    1    2    0    0  0.40259221467E+01 -0.73018669554E+01  0.48779777329E+03  0.48786903257E+03  0.00000000000E+00 0. -1.
         11    1    1    2    0    0 -0.21204619300E+02 -0.42778386550E+01 -0.47578857901E+03  0.47628007275E+03  0.00000000000E+00 0.  1.
        -15    1    1    2    0    0  0.15868962169E+02  0.72015304052E+01 -0.19930851252E+02  0.26534554096E+02  0.17770000000E+01 0.  1.
         15    1    1    2    0    0  0.13097349847E+01  0.43781752053E+01  0.79216569665E+01  0.93163405881E+01  0.17770000000E+01 0. -1.
</event>
<event>
 6    1  0.1860328E-003  0.5015932E+03  0.7546771E-02  0.9396252E-01
        -11   -1    0    0    0    0  0.00000000000E+00  0.00000000000E+00  0.50000000000E+03  0.50000000000E+03  0.00000000000E+00 0. -1.
         11   -1    0    0    0    0 -0.00000000000E+00 -0.00000000000E+00 -0.50000000000E+03  0.50000000000E+03  0.00000000000E+00 0.  1.
        -11    1    1    2    0    0 -0.12470312600E+01  0.76614324090E+01  0.49834632469E+03  0.49840677360E+03  0.00000000000E+00 0. -1.
         11    1    1    2    0    0 -0.69497212138E+01 -0.64448208319E+01 -0.42976329188E+03  0.42986779524E+03  0.00000000000E+00 0.  1.
        -15    1    1    2    0    0  0.13800229087E+02  0.10471178300E+01 -0.55164424217E+02  0.56901794408E+02  0.17770000000E+01 0. -1.
         15    1    1    2    0    0 -0.56034766127E+01 -0.22637294072E+01 -0.13418608596E+02  0.14823636755E+02  0.17770000000E+01 0.  1.
</event>
<event>
 6    1  0.1860328E-003  0.5036910E+03  0.7546771E-02  0.9391589E-01
        -11   -1    0    0    0    0  0.00000000000E+00  0.00000000000E+00  0.50000000000E+03  0.50000000000E+03  0.00000000000E+00 0.  1.
         11   -1    0    0    0    0 -0.00000000000E+00 -0.00000000000E+00 -0.50000000000E+03  0.50000000000E+03  0.00000000000E+00 0.  1.
        -11    1    1    2    0    0  0.58133867554E+01 -0.33630519101E+01  0.49626356239E+03  0.49630900550E+03  0.00000000000E+00 0.  1.
         11    1    1    2    0    0 -0.30940279818E+01 -0.93799722072E+01 -0.48252277461E+03  0.48262385447E+03  0.00000000000E+00 0.  1.
        -15    1    1    2    0    0 -0.50134510523E+01  0.43448219710E+01 -0.77260395800E+01  0.10337387775E+02  0.17770000000E+01 0.  1.
         15    1    1    2    0    0  0.22940922786E+01  0.83982021463E+01 -0.60147482009E+01  0.10729752262E+02  0.17770000000E+01 0. -1.
</event>
<event>
 6    1  0.1860328E-003  0.5011975E+03  0.7546771E-02  0.9397134E-01
        -11   -1    0    0    0    0  0.00000000000E+00  0.00000000000E+00  0.50000000000E+03  0.50000000000E+03  0.00000000000E+00 0.  1.
         11   -1    0    0    0    0 -0.00000000000E+00 -0.00000000000E+00 -0.50000000000E+03  0.50000000000E+03  0.00000000000E+00 0. -1.
        -11    1    1    2    0    0  0.11854106602E+02  0.17286446824E+01  0.49865867635E+03  0.49880254967E+03  0.00000000000E+00 0.  1.
         11    1    1    2    0    0  0.78354056177E+01 -0.26532327601E+01 -0.29876128777E+03  0.29887579409E+03  0.00000000000E+00 0. -1.
        -15    1    1    2    0    0 -0.26706139726E+00 -0.30976886043E+01 -0.11740619546E+03  0.11746079967E+03  0.17770000000E+01 0. -1.
         15    1    1    2    0    0 -0.19422450823E+02  0.40222766820E+01 -0.82491193124E+02  0.84860856569E+02  0.17770000000E+01 0.  1.
</event>
<event>
 6    1  0.1860328E-003  0.5070438E+03  0.7546771E-02  0.9384185E-01
        -11   -1    0    0    0    0  0.00000000000E+00  0.00000000000E+00  0.50000000000E+03  0.50000000000E+03  0.00000000000E+00 0.  1.
         11   -1    0    0    0    0 -0.00000000000E+00 -0.00000000000E+00 -0.50000000000E+03  0.50000000000E+03  0.00000000000E+00 0. -1.
        -11    1    1    2    0    0 -0.11820021371E+02  0.29055481358E+01  0.49280586985E+03  0.49295616486E+03  0.00000000000E+00 0.  1.
         11    1    1    2    0    0 -0.16474667759E+02 -0.10842264983E+02 -0.31848450865E+03  0.31909458102E+03  0.00000000000E+00 0. -1.
        -15    1    1    2    0    0 -0.91874674615E+01  0.71230463026E+01 -0.12703237888E+03  0.12757558685E+03  0.17770000000E+01 0. -1.
         15    1    1    2    0    0  0.37482156591E+02  0.81367054424E+00 -0.47288982312E+02  0.60373667269E+02  0.17770000000E+01 0.  1.
</event>
<event>
 6    1  0.1860328E-003  0.4871644E+03  0.7546771E-02  0.9428997E-01
        -11   -1    0    0    0    0  0.00000000000E+00  0.00000000000E+00  0.50000000000E+03  0.50000000000E+03  0.00000000000E+00 0.  1.
         11   -1    0    0    0    0 -0.00000000000E+00 -0.00000000000E+00 -0.50000000000E+03  0.50000000000E+03  0.00000000000E+00 0. -1.
        -11    1    1    2    0    0  0.15822911743E+02  0.59266119071E+01  0.48704823597E+03  0.48734122894E+03  0.00000000000E+00 0.  1.
         11    1    1    2    0    0 -0.59861587969E+00 -0.68878351567E+01 -0.48705783424E+03  0.48710690255E+03  0.00000000000E+00 0. -1.
        -15    1    1    2    0    0 -0.17892866164E+02 -0.28503640515E+01  0.46009759014E+01  0.18777804531E+02  0.17770000000E+01 0.  1.
         15    1    1    2    0    0  0.26685702999E+01  0.38115873011E+01 -0.45913776328E+01  0.67740639771E+01  0.17770000000E+01 0. -1.
</event>
<event>
 6    1  0.1860328E-003  0.4785400E+03  0.7546771E-02  0.9449151E-01
        -11   -1    0    0    0    0  0.00000000000E+00  0.00000000000E+00  0.50000000000E+03  0.50000000000E+03  0.00000000000E+00 0.  1.
         11   -1    0    0    0    0 -0.00000000000E+00 -0.00000000000E+00 -0.50000000000E+03  0.50000000000E+03  0.00000000000E+00 0. -1.
        -11    1    1    2    0    0 -0.62275903720E+01 -0.18257072957E+01  0.47936172276E+03  0.47940565009E+03  0.00000000000E+00 0.  1.
         11    1    1    2    0    0 -0.15418746480E+02 -0.11686062124E+02 -0.47762432056E+03  0.47801599699E+03  0.00000000000E+00 0. -1.
        -15    1    1    2    0    0  0.26104734694E+02  0.88632100703E+01 -0.12171684822E+02  0.30188098758E+02  0.17770000000E+01 0.  1.
         15    1    1    2    0    0 -0.44583978421E+01  0.46485593497E+01  0.10434282617E+02  0.12390254157E+02  0.17770000000E+01 0. -1.
</event>
<event>
 6    1  0.1860328E-003  0.5006075E+03  0.7546771E-02  0.9398451E-01
        -11   -1    0    0    0    0  0.00000000000E+00  0.00000000000E+00  0.50000000000E+03  0.50000000000E+03  0.00000000000E+00 0.  1.
         11   -1    0    0    0    0 -0.00000000000E+00 -0.00000000000E+00 -0.50000000000E+03  0.50000000000E+03  0.00000000000E+00 0. -1.
        -11    1    1    2    0    0  0.14560363254E+02 -0.20567153195E+01  0.41659206094E+03  0.41685150773E+03  0.00000000000E+00 0.  1.
         11    1    1    2    0    0 -0.77854327587E+01 -0.30702567777E+01 -0.49932235729E+03  0.49939248685E+03  0.00000000000E+00 0. -1.
        -15    1    1    2    0    0 -0.39351218137E+01  0.56510366681E+01  0.74719312850E+02  0.75056997282E+02  0.17770000000E+01 0.  1.
         15    1    1    2    0    0 -0.28398086815E+01 -0.52406457085E+00  0.80109834921E+01  0.86990081350E+01  0.17770000000E+01 0. -1.
</event>
<event>
 6    1  0.1860328E-003  0.5034743E+03  0.7546771E-02  0.9392069E-01
        -11   -1    0    0    0    0  0.00000000000E+00  0.00000000000E+00  0.50000000000E+03  0.50000000000E+03  0.00000000000E+00 0.  1.
         11   -1    0    0    0    0 -0.00000000000E+00 -0.00000000000E+00 -0.50000000000E+03  0.50000000000E+03  0.00000000000E+00 0. -1.
        -11    1    1    2    0    0  0.18301298995E+01  0.20089684506E+02  0.49611571722E+03  0.49652567877E+03  0.00000000000E+00 0.  1.
         11    1    1    2    0    0 -0.19100010041E+02  0.12554760417E+01 -0.29850564028E+03  0.29911871202E+03  0.00000000000E+00 0. -1.
        -15    1    1    2    0    0  0.31799548027E+01 -0.38899849400E+01  0.13819084575E+00  0.53311275627E+01  0.17770000000E+01 0. -1.
         15    1    1    2    0    0  0.14089925339E+02 -0.17455175608E+02 -0.19774826779E+03  0.19902448165E+03  0.17770000000E+01 0.  1.
</event>
<event>
 6    1  0.1860328E-003  0.5014539E+03  0.7546771E-02  0.9396562E-01
        -11   -1    0    0    0    0  0.00000000000E+00  0.00000000000E+00  0.50000000000E+03  0.50000000000E+03  0.00000000000E+00 0. -1.
         11   -1    0    0    0    0 -0.00000000000E+00 -0.00000000000E+00 -0.50000000000E+03  0.50000000000E+03  0.00000000000E+00 0.  1.
        -11    1    1    2    0    0  0.70434853332E+01  0.33035133185E+01  0.28781327240E+03  0.28791839756E+03  0.00000000000E+00 0. -1.
         11    1    1    2    0    0 -0.99233682378E+01  0.74071098934E+00 -0.49844682763E+03  0.49854614818E+03  0.00000000000E+00 0.  1.
        -15    1    1    2    0    0  0.10872747693E+02 -0.11266256165E+02  0.18504924023E+03  0.18571893874E+03  0.17770000000E+01 0.  1.
         15    1    1    2    0    0 -0.79928647889E+01  0.72220318576E+01  0.25584315006E+02  0.27816515508E+02  0.17770000000E+01 0. -1.
</event>
<event>
 6    1  0.1860328E-003  0.5049241E+03  0.7546771E-02  0.9388859E-01
        -11   -1    0    0    0    0  0.00000000000E+00  0.00000000000E+00  0.50000000000E+03  0.50000000000E+03  0.00000000000E+00 0. -1.
         11   -1    0    0    0    0 -0.00000000000E+00 -0.00000000000E+00 -0.50000000000E+03  0.50000000000E+03  0.00000000000E+00 0. -1.
        -11    1    1    2    0    0 -0.59546548408E+01  0.63276997225E+01  0.49499964689E+03  0.49507590137E+03  0.00000000000E+00 0. -1.
         11    1    1    2    0    0 -0.62495774736E+01  0.60378570753E+01 -0.48221816496E+03  0.48229645609E+03  0.00000000000E+00 0. -1.
        -15    1    1    2    0    0  0.11015413957E+02 -0.11038953399E+02 -0.12558732971E+02  0.20101675045E+02  0.17770000000E+01 0.  1.
         15    1    1    2    0    0  0.11888183578E+01 -0.13266033986E+01 -0.22274895706E+00  0.25259674905E+01  0.17770000000E+01 0. -1.
</event>
<event>
 6    1  0.1860328E-003  0.5008980E+03  0.7546771E-02  0.9397803E-01
        -11   -1    0    0    0    0  0.00000000000E+00  0.00000000000E+00  0.50000000000E+03  0.50000000000E+03  0.00000000000E+00 0. -1.
         11   -1    0    0    0    0 -0.00000000000E+00 -0.00000000000E+00 -0.50000000000E+03  0.50000000000E+03  0.00000000000E+00 0.  1.
        -11    1    1    2    0    0  0.66324291094E+01 -0.16223884100E+02  0.49879417980E+03  0.49910203098E+03  0.00000000000E+00 0. -1.
         11    1    1    2    0    0  0.23727412779E+01  0.14056022666E+01 -0.11572396800E+03  0.11575682437E+03  0.00000000000E+00 0.  1.
        -15    1    1    2    0    0 -0.24034545299E+01  0.15009325316E+02 -0.57580813595E+02  0.59579898148E+02  0.17770000000E+01 0. -1.
         15    1    1    2    0    0 -0.66017158574E+01 -0.19104348273E+00 -0.32548939821E+03  0.32556124650E+03  0.17770000000E+01 0.  1.
</event>
<event>
 6    1  0.1860328E-003  0.5003795E+03  0.7546771E-02  0.9398961E-01
        -11   -1    0    0    0    0  0.00000000000E+00  0.00000000000E+00  0.50000000000E+03  0.50000000000E+03  0.00000000000E+00 0. -1.
         11   -1    0    0    0    0 -0.00000000000E+00 -0.00000000000E+00 -0.50000000000E+03  0.50000000000E+03  0.00000000000E+00 0.  1.
        -11    1    1    2    0    0 -0.37757556459E+01  0.34078728643E+01  0.30779553712E+02  0.31196968681E+02  0.00000000000E+00 0. -1.
         11    1    1    2    0    0 -0.14318719178E+02  0.46569363205E+01 -0.49939353762E+03  0.49962047415E+03  0.00000000000E+00 0.  1.
        -15    1    1    2    0    0  0.18735697877E+02 -0.55270835565E+01  0.37196067701E+03  0.37247748657E+03  0.17770000000E+01 0. -1.
         15    1    1    2    0    0 -0.64122305290E+00 -0.25377256283E+01  0.96653306893E+02  0.96705070605E+02  0.17770000000E+01 0.  1.
</event>
<event>
 6    1  0.1860328E-003  0.5033784E+03  0.7546771E-02  0.9392282E-01
        -11   -1    0    0    0    0  0.00000000000E+00  0.00000000000E+00  0.50000000000E+03  0.50000000000E+03  0.00000000000E+00 0. -1.
         11   -1    0    0    0    0 -0.00000000000E+00 -0.00000000000E+00 -0.50000000000E+03  0.50000000000E+03  0.00000000000E+00 0. -1.
        -11    1    1    2    0    0 -0.89189560722E+00 -0.66144423204E+01  0.47696370534E+03  0.47701040087E+03  0.00000000000E+00 0. -1.
         11    1    1    2    0    0  0.72873886534E+01  0.22709791376E+00 -0.49656811818E+03  0.49662164029E+03  0.00000000000E+00 0. -1.
        -15    1    1    2    0    0 -0.67534114651E+01 -0.10414146337E+01  0.22611024757E+01  0.74137321412E+01  0.17770000000E+01 0.  1.
         15    1    1    2    0    0  0.35791841887E+00  0.74287590404E+01  0.17343310361E+02  0.18954226699E+02  0.17770000000E+01 0. -1.
</event>
<event>
 6    1  0.1860328E-003  0.5026577E+03  0.7546771E-02  0.9393882E-01
        -11   -1    0    0    0    0  0.00000000000E+00  0.00000000000E+00  0.50000000000E+03  0.50000000000E+03  0.00000000000E+00 0.  1.
         11   -1    0    0    0    0 -0.00000000000E+00 -0.00000000000E+00 -0.50000000000E+03  0.50000000000E+03  0.00000000000E+00 0.  1.
        -11    1    1    2    0    0 -0.55329355069E+01 -0.92330112835E+01  0.49722577807E+03  0.49734227273E+03  0.00000000000E+00 0.  1.
         11    1    1    2    0    0 -0.48864841143E+01  0.48335287506E+01 -0.43945401092E+03  0.43950775697E+03  0.00000000000E+00 0.  1.
        -15    1    1    2    0    0 -0.59559567866E+01  0.21760031469E+01 -0.65057594744E+01  0.92569458396E+01  0.17770000000E+01 0.  1.
         15    1    1    2    0    0  0.16375376408E+02  0.22234793860E+01 -0.51266007677E+02  0.53893024458E+02  0.17770000000E+01 0. -1.
</event>
<event>
 6    1  0.1860328E-003  0.5003032E+03  0.7546771E-02  0.9399132E-01
        -11   -1    0    0    0    0  0.00000000000E+00  0.00000000000E+00  0.50000000000E+03  0.50000000000E+03  0.00000000000E+00 0. -1.
         11   -1    0    0    0    0 -0.00000000000E+00 -0.00000000000E+00 -0.50000000000E+03  0.50000000000E+03  0.00000000000E+00 0.  1.
        -11    1    1    2    0    0  0.54345483549E+01  0.23781381768E+01  0.38834942553E+03  0.38839472983E+03  0.00000000000E+00 0. -1.
         11    1    1    2    0    0 -0.15678295809E+01 -0.67466859739E+01 -0.49964878578E+03  0.49969679306E+03  0.00000000000E+00 0.  1.
        -15    1    1    2    0    0 -0.90784276063E+00  0.49705745370E+01  0.26452868064E+02  0.26989678537E+02  0.17770000000E+01 0.  1.
         15    1    1    2    0    0 -0.29588760133E+01 -0.60202673983E+00  0.84846492194E+02  0.84918798567E+02  0.17770000000E+01 0. -1.
</event>
<event>
 6    1  0.1860328E-003  0.5040728E+03  0.7546771E-02  0.9390742E-01
        -11   -1    0    0    0    0  0.00000000000E+00  0.00000000000E+00  0.50000000000E+03  0.50000000000E+03  0.00000000000E+00 0.  1.
         11   -1    0    0    0    0 -0.00000000000E+00 -0.00000000000E+00 -0.50000000000E+03  0.50000000000E+03  0.00000000000E+00 0. -1.
        -11    1    1    2    0    0  0.11279574201E+02 -0.17264798531E+02  0.49549818109E+03  0.49592716152E+03  0.00000000000E+00 0.  1.
         11    1    1    2    0    0 -0.41807503506E+01 -0.76342870468E+01 -0.30331941220E+03  0.30344427302E+03  0.00000000000E+00 0. -1.
        -15    1    1    2    0    0 -0.16893958564E+02  0.22916701502E+02 -0.46198728611E+02  0.54296052324E+02  0.17770000000E+01 0.  1.
         15    1    1    2    0    0  0.97951347137E+01  0.19823840752E+01 -0.14598004028E+03  0.14633251314E+03  0.17770000000E+01 0. -1.
</event>
<event>
 6    1  0.1860328E-003  0.5000348E+03  0.7546771E-02  0.9399732E-01
        -11   -1    0    0    0    0  0.00000000000E+00  0.00000000000E+00  0.50000000000E+03  0.50000000000E+03  0.00000000000E+00 0. -1.
         11   -1    0    0    0    0 -0.00000000000E+00 -0.00000000000E+00 -0.50000000000E+03  0.50000000000E+03  0.00000000000E+00 0. -1.
        -11    1    1    2    0    0  0.43120869446E+00  0.42697552899E+00  0.11206496482E+02  0.11222914614E+02  0.00000000000E+00 0. -1.
         11    1    1    2    0    0  0.50084105691E+01  0.76161202718E+01 -0.49988211211E+03  0.49996521426E+03  0.00000000000E+00 0. -1.
        -15    1    1    2    0    0 -0.36575577305E+01 -0.30639607773E+01  0.32781784388E+03  0.32785738070E+03  0.17770000000E+01 0. -1.
         15    1    1    2    0    0 -0.17820615331E+01 -0.49791350235E+01  0.16085777175E+03  0.16095449043E+03  0.17770000000E+01 0.  1.
</event>
<event>
 6    1  0.1860328E-003  0.5446875E+03  0.7546771E-02  0.9305020E-01
        -11   -1    0    0    0    0  0.00000000000E+00  0.00000000000E+00  0.50000000000E+03  0.50000000000E+03  0.00000000000E+00 0.  1.
         11   -1    0    0    0    0 -0.00000000000E+00 -0.00000000000E+00 -0.50000000000E+03  0.50000000000E+03  0.00000000000E+00 0.  1.
        -11    1    1    2    0    0  0.23890832144E+02  0.35672977904E+02  0.45328374276E+03  0.45531251319E+03  0.00000000000E+00 0.  1.
         11    1    1    2    0    0  0.12688428988E+01 -0.45894557602E+02 -0.36171065507E+03  0.36461283353E+03  0.00000000000E+00 0.  1.
        -15    1    1    2    0    0  0.30484076491E+02  0.41939299545E+02 -0.10268406248E+03  0.11504502676E+03  0.17770000000E+01 0. -1.
         15    1    1    2    0    0 -0.55643751534E+02 -0.31717719847E+02  0.11110974787E+02  0.65029626532E+02  0.17770000000E+01 0.  1.
</event>
<event>
 6    1  0.1860328E-003  0.5027465E+03  0.7546771E-02  0.9393685E-01
        -11   -1    0    0    0    0  0.00000000000E+00  0.00000000000E+00  0.50000000000E+03  0.50000000000E+03  0.00000000000E+00 0. -1.
         11   -1    0    0    0    0 -0.00000000000E+00 -0.00000000000E+00 -0.50000000000E+03  0.50000000000E+03  0.00000000000E+00 0.  1.
        -11    1    1    2    0    0  0.78968253302E+01 -0.28746873707E+01  0.43018776915E+03  0.43026984603E+03  0.00000000000E+00 0. -1.
         11    1    1    2    0    0  0.27814260330E+01  0.10433360251E+02 -0.49713624156E+03  0.49725349069E+03  0.00000000000E+00 0.  1.
        -15    1    1    2    0    0 -0.11388853956E+02 -0.41973673756E+01  0.67467853336E+02  0.68573995436E+02  0.17770000000E+01 0.  1.
         15    1    1    2    0    0  0.71060259277E+00 -0.33613055051E+01 -0.51938092562E+00  0.39026678425E+01  0.17770000000E+01 0. -1.
</event>
<event>
 6    1  0.1860328E-003  0.5007037E+03  0.7546771E-02  0.9398237E-01
        -11   -1    0    0    0    0  0.00000000000E+00  0.00000000000E+00  0.50000000000E+03  0.50000000000E+03  0.00000000000E+00 0. -1.
         11   -1    0    0    0    0 -0.00000000000E+00 -0.00000000000E+00 -0.50000000000E+03  0.50000000000E+03  0.00000000000E+00 0. -1.
        -11    1    1    2    0    0 -0.50138960640E+00 -0.72604504954E+01  0.49924326907E+03  0.49929631207E+03  0.00000000000E+00 0. -1.
         11    1    1    2    0    0 -0.86894065086E+01 -0.20939232062E+01 -0.17950213949E+03  0.17972453472E+03  0.00000000000E+00 0. -1.
        -15    1    1    2    0    0 -0.52986104461E+01  0.13338763505E+01 -0.20028501316E+03  0.20036740934E+03  0.17770000000E+01 0. -1.
         15    1    1    2    0    0  0.14489406561E+02  0.80204973511E+01 -0.11945611642E+03  0.12061174387E+03  0.17770000000E+01 0.  1.
</event>
<event>
 6    1  0.1860328E-003  0.5004731E+03  0.7546771E-02  0.9398752E-01
        -11   -1    0    0    0    0  0.00000000000E+00  0.00000000000E+00  0.50000000000E+03  0.50000000000E+03  0.00000000000E+00 0.  1.
         11   -1    0    0    0    0 -0.00000000000E+00 -0.00000000000E+00 -0.50000000000E+03  0.50000000000E+03  0.00000000000E+00 0. -1.
        -11    1    1    2    0    0 -0.50993937737E+01 -0.35008864061E+01  0.44410736013E+03  0.44415043324E+03  0.00000000000E+00 0.  1.
         11    1    1    2    0    0  0.33981390824E+01  0.59746536698E+01 -0.49947964846E+03  0.49952693928E+03  0.00000000000E+00 0. -1.
        -15    1    1    2    0    0  0.48996264473E+00  0.31467259796E+01  0.31203838122E+02  0.31416224954E+02  0.17770000000E+01 0.  1.
         15    1    1    2    0    0  0.12112920465E+01 -0.56204932432E+01  0.24168450209E+02  0.24906402535E+02  0.17770000000E+01 0. -1.
</event>
<event>
 6    1  0.1860328E-003  0.5140882E+03  0.7546771E-02  0.9368827E-01
        -11   -1    0    0    0    0  0.00000000000E+00  0.00000000000E+00  0.50000000000E+03  0.50000000000E+03  0.00000000000E+00 0. -1.
         11   -1    0    0    0    0 -0.00000000000E+00 -0.00000000000E+00 -0.50000000000E+03  0.50000000000E+03  0.00000000000E+00 0.  1.
        -11    1    1    2    0    0  0.85827143440E+01 -0.16186270075E+02  0.42293288371E+03  0.42332951994E+03  0.00000000000E+00 0. -1.
         11    1    1    2    0    0 -0.48874770063E+01  0.90799003706E+01 -0.48580237919E+03  0.48591180645E+03  0.00000000000E+00 0.  1.
        -15    1    1    2    0    0 -0.14672775784E+02  0.10665500674E+02 -0.72929626323E+01  0.19631308841E+02  0.17770000000E+01 0.  1.
         15    1    1    2    0    0  0.10977538446E+02 -0.35591309700E+01  0.70162458106E+02  0.71127364777E+02  0.17770000000E+01 0. -1.
</event>
<event>
 6    1  0.1860328E-003  0.4740730E+03  0.7546771E-02  0.9459769E-01
        -11   -1    0    0    0    0  0.00000000000E+00  0.00000000000E+00  0.50000000000E+03  0.50000000000E+03  0.00000000000E+00 0. -1.
         11   -1    0    0    0    0 -0.00000000000E+00 -0.00000000000E+00 -0.50000000000E+03  0.50000000000E+03  0.00000000000E+00 0. -1.
        -11    1    1    2    0    0  0.14021477026E+01  0.65411358240E+01  0.47718608588E+03  0.47723297564E+03  0.00000000000E+00 0. -1.
         11    1    1    2    0    0  0.11804784997E+02  0.12333738856E+01 -0.47090806323E+03  0.47105761662E+03  0.00000000000E+00 0. -1.
        -15    1    1    2    0    0 -0.13315623961E+02  0.35090693101E+01 -0.25680724341E+02  0.29193779142E+02  0.17770000000E+01 0. -1.
         15    1    1    2    0    0  0.10869126167E+00 -0.11283579020E+02  0.19402701693E+02  0.22515628601E+02  0.17770000000E+01 0.  1.
</event>
<event>
 6    1  0.1860328E-003  0.5019855E+03  0.7546771E-02  0.9395378E-01
        -11   -1    0    0    0    0  0.00000000000E+00  0.00000000000E+00  0.50000000000E+03  0.50000000000E+03  0.00000000000E+00 0.  1.
         11   -1    0    0    0    0 -0.00000000000E+00 -0.00000000000E+00 -0.50000000000E+03  0.50000000000E+03  0.00000000000E+00 0. -1.
        -11    1    1    2    0    0 -0.55885149319E+01  0.41035913354E+01  0.49796627647E+03  0.49801454141E+03  0.00000000000E+00 0.  1.
         11    1    1    2    0    0 -0.11049223458E+01  0.12260140378E+02 -0.23730101450E+03  0.23762008202E+03  0.00000000000E+00 0. -1.
        -15    1    1    2    0    0  0.53360196714E+01 -0.28281372374E+02 -0.13108488380E+03  0.13421890187E+03  0.17770000000E+01 0.  1.
         15    1    1    2    0    0  0.13574176062E+01  0.11917640660E+02 -0.12958037817E+03  0.13014647470E+03  0.17770000000E+01 0. -1.
</event>
<event>
 6    1  0.1860328E-003  0.4836124E+03  0.7546771E-02  0.9437244E-01
        -11   -1    0    0    0    0  0.00000000000E+00  0.00000000000E+00  0.50000000000E+03  0.50000000000E+03  0.00000000000E+00 0.  1.
         11   -1    0    0    0    0 -0.00000000000E+00 -0.00000000000E+00 -0.50000000000E+03  0.50000000000E+03  0.00000000000E+00 0. -1.
        -11    1    1    2    0    0 -0.67589960147E+01  0.11283039432E+02  0.47943228206E+03  0.47961266047E+03  0.00000000000E+00 0.  1.
         11    1    1    2    0    0  0.22856716719E+02  0.29304699545E+00 -0.48731156885E+03  0.48784739470E+03  0.00000000000E+00 0. -1.
        -15    1    1    2    0    0 -0.51312024818E+01 -0.61062001146E+01 -0.86416559424E+01  0.11893311783E+02  0.17770000000E+01 0.  1.
         15    1    1    2    0    0 -0.10966518223E+02 -0.54698863132E+01  0.16520942738E+02  0.20646633047E+02  0.17770000000E+01 0. -1.
</event>
<event>
 6    1  0.1860328E-003  0.5006997E+03  0.7546771E-02  0.9398245E-01
        -11   -1    0    0    0    0  0.00000000000E+00  0.00000000000E+00  0.50000000000E+03  0.50000000000E+03  0.00000000000E+00 0. -1.
         11   -1    0    0    0    0 -0.00000000000E+00 -0.00000000000E+00 -0.50000000000E+03  0.50000000000E+03  0.00000000000E+00 0.  1.
        -11    1    1    2    0    0 -0.29354200976E+01 -0.12654114828E+01  0.21565932465E+03  0.21568301339E+03  0.00000000000E+00 0. -1.
         11    1    1    2    0    0 -0.70243480628E+01 -0.51579950045E+00 -0.49925057907E+03  0.49930025858E+03  0.00000000000E+00 0.  1.
        -15    1    1    2    0    0  0.52381335988E+01  0.51948323265E+01  0.27018467618E+03  0.27029121573E+03  0.17770000000E+01 0. -1.
         15    1    1    2    0    0  0.47216345616E+01 -0.34136213432E+01  0.13406578233E+02  0.14725512301E+02  0.17770000000E+01 0.  1.
</event>
<event>
 6    1  0.1860328E-003  0.5011167E+03  0.7546771E-02  0.9397314E-01
        -11   -1    0    0    0    0  0.00000000000E+00  0.00000000000E+00  0.50000000000E+03  0.50000000000E+03  0.00000000000E+00 0.  1.
         11   -1    0    0    0    0 -0.00000000000E+00 -0.00000000000E+00 -0.50000000000E+03  0.50000000000E+03  0.00000000000E+00 0.  1.
        -11    1    1    2    0    0 -0.72024009746E+00  0.91936013914E+01  0.43091370885E+03  0.43101237282E+03  0.00000000000E+00 0.  1.
         11    1    1    2    0    0  0.29034666197E+01 -0.11886961159E+02 -0.49873320014E+03  0.49888328784E+03  0.00000000000E+00 0.  1.
        -15    1    1    2    0    0  0.47570961243E+01 -0.30047192134E+01  0.10378782331E+02  0.11938808683E+02  0.17770000000E+01 0. -1.
         15    1    1    2    0    0 -0.69403226466E+01  0.56980789812E+01  0.57440708957E+02  0.58165530661E+02  0.17770000000E+01 0.  1.
</event>
<event>
 6    1  0.1860328E-003  0.5019941E+03  0.7546771E-02  0.9395359E-01
        -11   -1    0    0    0    0  0.00000000000E+00  0.00000000000E+00  0.50000000000E+03  0.50000000000E+03  0.00000000000E+00 0.  1.
         11   -1    0    0    0    0 -0.00000000000E+00 -0.00000000000E+00 -0.50000000000E+03  0.50000000000E+03  0.00000000000E+00 0. -1.
        -11    1    1    2    0    0  0.25055121001E+01  0.40582246806E+01  0.26965078552E+03  0.26969296044E+03  0.00000000000E+00 0.  1.
         11    1    1    2    0    0 -0.28026415128E+02  0.19898790244E+02 -0.49681827344E+03  0.49800586204E+03  0.00000000000E+00 0. -1.
        -15    1    1    2    0    0  0.11532589038E+01 -0.23925537534E+02  0.10460894565E+03  0.10733103275E+03  0.17770000000E+01 0.  1.
         15    1    1    2    0    0  0.24367644125E+02 -0.31477390835E-01  0.12255854227E+03  0.12497014477E+03  0.17770000000E+01 0. -1.
</event>
<event>
 6    1  0.1860328E-003  0.5019701E+03  0.7546771E-02  0.9395412E-01
        -11   -1    0    0    0    0  0.00000000000E+00  0.00000000000E+00  0.50000000000E+03  0.50000000000E+03  0.00000000000E+00 0.  1.
         11   -1    0    0    0    0 -0.00000000000E+00 -0.00000000000E+00 -0.50000000000E+03  0.50000000000E+03  0.00000000000E+00 0.  1.
        -11    1    1    2    0    0  0.33511336129E+01 -0.69016642386E+01  0.22139789326E+03  0.22153078839E+03  0.00000000000E+00 0.  1.
         11    1    1    2    0    0 -0.69864119640E+01  0.66131258834E+00 -0.49798048353E+03  0.49802992808E+03  0.00000000000E+00 0.  1.
        -15    1    1    2    0    0  0.94517400804E+00  0.72414375338E+01  0.27694232247E+03  0.27704429154E+03  0.17770000000E+01 0. -1.
         15    1    1    2    0    0  0.26901043431E+01 -0.10010858835E+01 -0.35973220248E+00  0.33949919853E+01  0.17770000000E+01 0.  1.
</event>
<event>
 6    1  0.1860328E-003  0.5011950E+03  0.7546771E-02  0.9397140E-01
        -11   -1    0    0    0    0  0.00000000000E+00  0.00000000000E+00  0.50000000000E+03  0.50000000000E+03  0.00000000000E+00 0. -1.
         11   -1    0    0    0    0 -0.00000000000E+00 -0.00000000000E+00 -0.50000000000E+03  0.50000000000E+03  0.00000000000E+00 0.  1.
        -11    1    1    2    0    0  0.73499059110E+01 -0.12414050271E+01  0.40564439623E+03  0.40571287680E+03  0.00000000000E+00 0. -1.
         11    1    1    2    0    0 -0.40402222931E+01  0.11617105412E+02 -0.49865329756E+03  0.49880496359E+03  0.00000000000E+00 0.  1.
        -15    1    1    2    0    0  0.37595853393E+01 -0.90251243369E+00  0.45900009075E+01  0.62589813826E+01  0.17770000000E+01 0.  1.
         15    1    1    2    0    0 -0.70692689573E+01 -0.94731879508E+01  0.88418900419E+02  0.89223178232E+02  0.17770000000E+01 0. -1.
</event>
<event>
 6    1  0.1860328E-003  0.5012706E+03  0.7546771E-02  0.9396971E-01
        -11   -1    0    0    0    0  0.00000000000E+00  0.00000000000E+00  0.50000000000E+03  0.50000000000E+03  0.00000000000E+00 0. -1.
         11   -1    0    0    0    0 -0.00000000000E+00 -0.00000000000E+00 -0.50000000000E+03  0.50000000000E+03  0.00000000000E+00 0. -1.
        -11    1    1    2    0    0  0.25137046471E+02 -0.37083882635E+02  0.49671314605E+03  0.49872942054E+03  0.00000000000E+00 0. -1.
         11    1    1    2    0    0 -0.17545218146E+00  0.62453160588E+01 -0.16138684650E+03  0.16150773659E+03  0.00000000000E+00 0. -1.
        -15    1    1    2    0    0  0.67994400437E+01 -0.29100453011E+01 -0.30806049605E+02  0.31731233348E+02  0.17770000000E+01 0. -1.
         15    1    1    2    0    0 -0.31761034333E+02  0.33748611877E+02 -0.30452024995E+03  0.30803160952E+03  0.17770000000E+01 0.  1.
</event>
<event>
 6    1  0.1860328E-003  0.5005127E+03  0.7546771E-02  0.9398663E-01
        -11   -1    0    0    0    0  0.00000000000E+00  0.00000000000E+00  0.50000000000E+03  0.50000000000E+03  0.00000000000E+00 0. -1.
         11   -1    0    0    0    0 -0.00000000000E+00 -0.00000000000E+00 -0.50000000000E+03  0.50000000000E+03  0.00000000000E+00 0. -1.
        -11    1    1    2    0    0  0.62814252281E+01 -0.43188075706E+01  0.49942909677E+03  0.49948726820E+03  0.00000000000E+00 0. -1.
         11    1    1    2    0    0  0.15214295212E+01 -0.18737062418E+01 -0.14679862665E+03  0.14681846720E+03  0.00000000000E+00 0. -1.
        -15    1    1    2    0    0 -0.21212012732E+01  0.25650493759E+01 -0.66676595941E+01  0.76612261816E+01  0.17770000000E+01 0.  1.
         15    1    1    2    0    0 -0.56816534760E+01  0.36274644365E+01 -0.34596281052E+03  0.34603303842E+03  0.17770000000E+01 0. -1.
</event>
<event>
 6    1  0.1860328E-003  0.5071651E+03  0.7546771E-02  0.9383918E-01
        -11   -1    0    0    0    0  0.00000000000E+00  0.00000000000E+00  0.50000000000E+03  0.50000000000E+03  0.00000000000E+00 0.  1.
         11   -1    0    0    0    0 -0.00000000000E+00 -0.00000000000E+00 -0.50000000000E+03  0.50000000000E+03  0.00000000000E+00 0.  1.
        -11    1    1    2    0    0  0.87249958883E+01  0.22320288626E+02  0.45228754905E+03  0.45292201079E+03  0.00000000000E+00 0.  1.
         11    1    1    2    0    0 -0.11872734737E+02 -0.48896270668E+01 -0.49266758585E+03  0.49283488151E+03  0.00000000000E+00 0.  1.
        -15    1    1    2    0    0  0.50714273698E+00 -0.85283834008E+01  0.43438663070E+02  0.44306497216E+02  0.17770000000E+01 0. -1.
         15    1    1    2    0    0  0.26405961117E+01 -0.89022781583E+01 -0.30586262661E+01  0.99366104819E+01  0.17770000000E+01 0.  1.
</event>
<event>
 6    1  0.1860328E-003  0.5015818E+03  0.7546771E-02  0.9396277E-01
        -11   -1    0    0    0    0  0.00000000000E+00  0.00000000000E+00  0.50000000000E+03  0.50000000000E+03  0.00000000000E+00 0.  1.
         11   -1    0    0    0    0 -0.00000000000E+00 -0.00000000000E+00 -0.50000000000E+03  0.50000000000E+03  0.00000000000E+00 0. -1.
        -11    1    1    2    0    0  0.87792563625E+01  0.97127071136E+01  0.37901282609E+03  0.37923888825E+03  0.00000000000E+00 0.  1.
         11    1    1    2    0    0 -0.69061731284E+01 -0.25040823589E+01 -0.49836407857E+03  0.49841821843E+03  0.00000000000E+00 0. -1.
        -15    1    1    2    0    0  0.33316777924E+01 -0.51323710455E+01  0.57287187021E+01  0.85683870378E+01  0.17770000000E+01 0. -1.
         15    1    1    2    0    0 -0.52047610264E+01 -0.20762537092E+01  0.11362253378E+03  0.11377450628E+03  0.17770000000E+01 0.  1.
</event>
<event>
 6    1  0.1860328E-003  0.5195266E+03  0.7546771E-02  0.9357147E-01
        -11   -1    0    0    0    0  0.00000000000E+00  0.00000000000E+00  0.50000000000E+03  0.50000000000E+03  0.00000000000E+00 0. -1.
         11   -1    0    0    0    0 -0.00000000000E+00 -0.00000000000E+00 -0.50000000000E+03  0.50000000000E+03  0.00000000000E+00 0.  1.
        -11    1    1    2    0    0 -0.54728918426E+01 -0.49972906385E+01  0.48041619318E+03  0.48047335423E+03  0.00000000000E+00 0. -1.
         11    1    1    2    0    0 -0.29461904634E+01 -0.26686696890E+01 -0.27098564901E+03  0.27101480366E+03  0.00000000000E+00 0.  1.
        -15    1    1    2    0    0  0.40622783648E+01 -0.44452922812E+01 -0.22676304692E+03  0.22684995020E+03  0.17770000000E+01 0.  1.
         15    1    1    2    0    0  0.43568039412E+01  0.12111252609E+02  0.17332502749E+02  0.21661891904E+02  0.17770000000E+01 0. -1.
</event>
<event>
 6    1  0.1860328E-003  0.5002904E+03  0.7546771E-02  0.9399160E-01
        -11   -1    0    0    0    0  0.00000000000E+00  0.00000000000E+00  0.50000000000E+03  0.50000000000E+03  0.00000000000E+00 0. -1.
         11   -1    0    0    0    0 -0.00000000000E+00 -0.00000000000E+00 -0.50000000000E+03  0.50000000000E+03  0.00000000000E+00 0.  1.
        -11    1    1    2    0    0 -0.74158648113E+01 -0.20397960266E+01  0.49965039996E+03  0.49970959366E+03  0.00000000000E+00 0. -1.
         11    1    1    2    0    0 -0.42793800168E+00 -0.49167932467E+01 -0.14994008863E+03  0.15002129238E+03  0.00000000000E+00 0.  1.
        -15    1    1    2    0    0  0.45362741652E+01  0.12018593922E+02 -0.19520255672E+03  0.19563287112E+03  0.17770000000E+01 0.  1.
         15    1    1    2    0    0  0.33075286478E+01 -0.50620046487E+01 -0.15450775460E+03  0.15463624284E+03  0.17770000000E+01 0. -1.
</event>
<event>
 6    1  0.1860328E-003  0.4760897E+03  0.7546771E-02  0.9454960E-01
        -11   -1    0    0    0    0  0.00000000000E+00  0.00000000000E+00  0.50000000000E+03  0.50000000000E+03  0.00000000000E+00 0. -1.
         11   -1    0    0    0    0 -0.00000000000E+00 -0.00000000000E+00 -0.50000000000E+03  0.50000000000E+03  0.00000000000E+00 0.  1.
        -11    1    1    2    0    0  0.32441992967E+02 -0.10476246309E+00  0.47113935903E+03  0.47225500475E+03  0.00000000000E+00 0. -1.
         11    1    1    2    0    0  0.63203709740E+00  0.76088388908E+01 -0.48051368182E+03  0.48057433589E+03  0.00000000000E+00 0.  1.
        -15    1    1    2    0    0 -0.19496455196E+02 -0.83454955724E-01  0.20256365548E+02  0.28170850256E+02  0.17770000000E+01 0.  1.
         15    1    1    2    0    0 -0.13577574868E+02 -0.74206214720E+01 -0.10882042762E+02  0.18999809104E+02  0.17770000000E+01 0. -1.
</event>
<event>
 6    1  0.1860328E-003  0.5047898E+03  0.7546771E-02  0.9389155E-01
        -11   -1    0    0    0    0  0.00000000000E+00  0.00000000000E+00  0.50000000000E+03  0.50000000000E+03  0.00000000000E+00 0. -1.
         11   -1    0    0    0    0 -0.00000000000E+00 -0.00000000000E+00 -0.50000000000E+03  0.50000000000E+03  0.00000000000E+00 0. -1.
        -11    1    1    2    0    0  0.43241736145E+01  0.30403056797E+01  0.38359878751E+03  0.38363520656E+03  0.00000000000E+00 0. -1.
         11    1    1    2    0    0 -0.87133964938E+01 -0.24789936489E+01 -0.49512731670E+03  0.49521018612E+03  0.00000000000E+00 0. -1.
        -15    1    1    2    0    0  0.18120464237E+02  0.17012025986E+02  0.56398916208E+02  0.61658379242E+02  0.17770000000E+01 0.  1.
         15    1    1    2    0    0 -0.13731241358E+02 -0.17573338016E+02  0.55129612985E+02  0.59496228075E+02  0.17770000000E+01 0. -1.
</event>
<event>
 6    1  0.1860328E-003  0.5011253E+03  0.7546771E-02  0.9397295E-01
        -11   -1    0    0    0    0  0.00000000000E+00  0.00000000000E+00  0.50000000000E+03  0.50000000000E+03  0.00000000000E+00 0.  1.
         11   -1    0    0    0    0 -0.00000000000E+00 -0.00000000000E+00 -0.50000000000E+03  0.50000000000E+03  0.00000000000E+00 0.  1.
        -11    1    1    2    0    0  0.34945106003E+01  0.54080574550E+01  0.38548810783E+03  0.38554187836E+03  0.00000000000E+00 0.  1.
         11    1    1    2    0    0  0.68407198749E+00  0.12268425849E+02 -0.49872339096E+03  0.49887473671E+03  0.00000000000E+00 0.  1.
        -15    1    1    2    0    0 -0.41329896114E+00 -0.12997463805E+02  0.10089046617E+03  0.10174059551E+03  0.17770000000E+01 0.  1.
         15    1    1    2    0    0 -0.37652836267E+01 -0.46790194984E+01  0.12344816964E+02  0.13842789427E+02  0.17770000000E+01 0. -1.
</event>
<event>
 6    1  0.1860328E-003  0.5039367E+03  0.7546771E-02  0.9391044E-01
        -11   -1    0    0    0    0  0.00000000000E+00  0.00000000000E+00  0.50000000000E+03  0.50000000000E+03  0.00000000000E+00 0.  1.
         11   -1    0    0    0    0 -0.00000000000E+00 -0.00000000000E+00 -0.50000000000E+03  0.50000000000E+03  0.00000000000E+00 0.  1.
        -11    1    1    2    0    0  0.14460289645E+02 -0.23143791204E+00  0.49585244082E+03  0.49606329899E+03  0.00000000000E+00 0.  1.
         11    1    1    2    0    0 -0.78852222030E+01  0.12291311188E+02 -0.47378137914E+03  0.47400637999E+03  0.00000000000E+00 0.  1.
        -15    1    1    2    0    0 -0.98261188452E+01 -0.39289543647E+01 -0.15442911363E+02  0.18805066720E+02  0.17770000000E+01 0.  1.
         15    1    1    2    0    0  0.32510514032E+01 -0.81309189109E+01 -0.66281503170E+01  0.11125254298E+02  0.17770000000E+01 0. -1.
</event>
<event>
 6    1  0.1860328E-003  0.5063239E+03  0.7546771E-02  0.9385770E-01
        -11   -1    0    0    0    0  0.00000000000E+00  0.00000000000E+00  0.50000000000E+03  0.50000000000E+03  0.00000000000E+00 0. -1.
         11   -1    0    0    0    0 -0.00000000000E+00 -0.00000000000E+00 -0.50000000000E+03  0.50000000000E+03  0.00000000000E+00 0. -1.
        -11    1    1    2    0    0  0.35048560431E+01 -0.43104753360E+01  0.38840405005E+03  0.38844378011E+03  0.00000000000E+00 0. -1.
         11    1    1    2    0    0  0.63925375403E+01  0.76023431290E+01 -0.49357618803E+03  0.49367612212E+03  0.00000000000E+00 0. -1.
        -15    1    1    2    0    0 -0.15386689206E+02 -0.12369983118E+02  0.10184965274E+02  0.22285823603E+02  0.17770000000E+01 0.  1.
         15    1    1    2    0    0  0.54892956223E+01  0.90781153245E+01  0.94987172713E+02  0.95594274165E+02  0.17770000000E+01 0. -1.
</event>
<event>
 6    1  0.1860328E-003  0.5013111E+03  0.7546771E-02  0.9396881E-01
        -11   -1    0    0    0    0  0.00000000000E+00  0.00000000000E+00  0.50000000000E+03  0.50000000000E+03  0.00000000000E+00 0.  1.
         11   -1    0    0    0    0 -0.00000000000E+00 -0.00000000000E+00 -0.50000000000E+03  0.50000000000E+03  0.00000000000E+00 0.  1.
        -11    1    1    2    0    0 -0.57596052140E+01 -0.82005160190E+01  0.49858823357E+03  0.49868892926E+03  0.00000000000E+00 0.  1.
         11    1    1    2    0    0  0.48739312688E+01 -0.55901826715E+01 -0.43643861333E+03  0.43650162491E+03  0.00000000000E+00 0.  1.
        -15    1    1    2    0    0 -0.33979037580E+01  0.12237415634E+02 -0.36235822996E+02  0.38438167081E+02  0.17770000000E+01 0.  1.
         15    1    1    2    0    0  0.42835777032E+01  0.15532830565E+01 -0.25913797244E+02  0.26371278748E+02  0.17770000000E+01 0. -1.
</event>
<event>
 6    1  0.1860328E-003  0.5012882E+03  0.7546771E-02  0.9396932E-01
        -11   -1    0    0    0    0  0.00000000000E+00  0.00000000000E+00  0.50000000000E+03  0.50000000000E+03  0.00000000000E+00 0. -1.
         11   -1    0    0    0    0 -0.00000000000E+00 -0.00000000000E+00 -0.50000000000E+03  0.50000000000E+03  0.00000000000E+00 0.  1.
        -11    1    1    2    0    0  0.98937227149E+01  0.31181296951E+01  0.49860386712E+03  0.49871176524E+03  0.00000000000E+00 0. -1.
         11    1    1    2    0    0  0.68406603646E+01 -0.34042925281E+01 -0.40805732284E+03  0.40812885535E+03  0.00000000000E+00 0.  1.
        -15    1    1    2    0    0 -0.11435615334E+02 -0.29718793881E+00 -0.82711055521E+02  0.83517291940E+02  0.17770000000E+01 0. -1.
         15    1    1    2    0    0 -0.52987677459E+01  0.58335077174E+00 -0.78354887585E+01  0.96420874727E+01  0.17770000000E+01 0.  1.
</event>
<event>
 6    1  0.1860328E-003  0.5031648E+03  0.7546771E-02  0.9392756E-01
        -11   -1    0    0    0    0  0.00000000000E+00  0.00000000000E+00  0.50000000000E+03  0.50000000000E+03  0.00000000000E+00 0. -1.
         11   -1    0    0    0    0 -0.00000000000E+00 -0.00000000000E+00 -0.50000000000E+03  0.50000000000E+03  0.00000000000E+00 0.  1.
        -11    1    1    2    0    0  0.15039029673E+02  0.25296144118E+02  0.49596284968E+03  0.49683519962E+03  0.00000000000E+00 0. -1.
         11    1    1    2    0    0  0.40809553214E+01  0.25137653904E+01 -0.19313052555E+03  0.19318999227E+03  0.00000000000E+00 0.  1.
        -15    1    1    2    0    0 -0.18236680026E+02 -0.23623395884E+02 -0.59408597652E+02  0.66506996139E+02  0.17770000000E+01 0.  1.
         15    1    1    2    0    0 -0.88330496826E+00 -0.41865136241E+01 -0.24342372648E+03  0.24346781197E+03  0.17770000000E+01 0. -1.
</event>
<event>
 6    1  0.1860328E-003  0.5058235E+03  0.7546771E-02  0.9386873E-01
        -11   -1    0    0    0    0  0.00000000000E+00  0.00000000000E+00  0.50000000000E+03  0.50000000000E+03  0.00000000000E+00 0. -1.
         11   -1    0    0    0    0 -0.00000000000E+00 -0.00000000000E+00 -0.50000000000E+03  0.50000000000E+03  0.00000000000E+00 0. -1.
        -11    1    1    2    0    0 -0.19162349400E+01 -0.69090812813E+01  0.49412444296E+03  0.49417645886E+03  0.00000000000E+00 0. -1.
         11    1    1    2    0    0 -0.84504274475E+01  0.64608662462E+01 -0.48344415867E+03  0.48356117200E+03  0.00000000000E+00 0. -1.
        -15    1    1    2    0    0  0.67023463506E+01  0.20661592836E+01  0.30484799417E+01  0.78512049867E+01  0.17770000000E+01 0. -1.
         15    1    1    2    0    0  0.36643160369E+01 -0.16179442484E+01 -0.13728764239E+02  0.14411164149E+02  0.17770000000E+01 0.  1.
</event>
<event>
 6    1  0.1860328E-003  0.5015630E+03  0.7546771E-02  0.9396319E-01
        -11   -1    0    0    0    0  0.00000000000E+00  0.00000000000E+00  0.50000000000E+03  0.50000000000E+03  0.00000000000E+00 0. -1.
         11   -1    0    0    0    0 -0.00000000000E+00 -0.00000000000E+00 -0.50000000000E+03  0.50000000000E+03  0.00000000000E+00 0.  1.
        -11    1    1    2    0    0 -0.74459897982E+01 -0.36962841340E+01  0.47745642841E+03  0.47752879108E+03  0.00000000000E+00 0. -1.
         11    1    1    2    0    0  0.66131421031E+01 -0.42641705411E+01 -0.49837492240E+03  0.49843703723E+03  0.00000000000E+00 0.  1.
        -15    1    1    2    0    0  0.28064049712E+01  0.60495498429E+01  0.73727624830E+01  0.10098926566E+02  0.17770000000E+01 0. -1.
         15    1    1    2    0    0 -0.19735572761E+01  0.19109048322E+01  0.13545731511E+02  0.13935245128E+02  0.17770000000E+01 0.  1.
</event>
<event>
 6    1  0.1860328E-003  0.5047190E+03  0.7546771E-02  0.9389312E-01
        -11   -1    0    0    0    0  0.00000000000E+00  0.00000000000E+00  0.50000000000E+03  0.50000000000E+03  0.00000000000E+00 0.  1.
         11   -1    0    0    0    0 -0.00000000000E+00 -0.00000000000E+00 -0.50000000000E+03  0.50000000000E+03  0.00000000000E+00 0. -1.
        -11    1    1    2    0    0 -0.12962154469E+02 -0.21810048803E+01  0.44769039492E+03  0.44788331509E+03  0.00000000000E+00 0.  1.
         11    1    1    2    0    0 -0.41576734880E+01 -0.82521078325E+01 -0.49519481733E+03  0.49528102189E+03  0.00000000000E+00 0. -1.
        -15    1    1    2    0    0  0.89281138007E+01 -0.58250835130E+01  0.28397328128E+02  0.30384351035E+02  0.17770000000E+01 0.  1.
         15    1    1    2    0    0  0.81917141559E+01  0.16258196226E+02  0.19107094281E+02  0.26451311994E+02  0.17770000000E+01 0. -1.
</event>
<event>
 6    1  0.1860328E-003  0.5018231E+03  0.7546771E-02  0.9395740E-01
        -11   -1    0    0    0    0  0.00000000000E+00  0.00000000000E+00  0.50000000000E+03  0.50000000000E+03  0.00000000000E+00 0. -1.
         11   -1    0    0    0    0 -0.00000000000E+00 -0.00000000000E+00 -0.50000000000E+03  0.50000000000E+03  0.00000000000E+00 0. -1.
        -11    1    1    2    0    0 -0.82398401863E+01  0.11526064495E+00  0.49810870865E+03  0.49817687009E+03  0.00000000000E+00 0. -1.
         11    1    1    2    0    0 -0.92687214716E+01  0.37773874358E+01 -0.29292116815E+03  0.29309211625E+03  0.00000000000E+00 0. -1.
        -15    1    1    2    0    0  0.15969000072E+02 -0.61419533163E+01 -0.20472277767E+03  0.20544416755E+03  0.17770000000E+01 0. -1.
         15    1    1    2    0    0  0.15395615861E+01  0.22493052356E+01 -0.46476283236E+00  0.32868461191E+01  0.17770000000E+01 0.  1.
</event>
<event>
 6    1  0.1860328E-003  0.5044610E+03  0.7546771E-02  0.9389883E-01
        -11   -1    0    0    0    0  0.00000000000E+00  0.00000000000E+00  0.50000000000E+03  0.50000000000E+03  0.00000000000E+00 0. -1.
         11   -1    0    0    0    0 -0.00000000000E+00 -0.00000000000E+00 -0.50000000000E+03  0.50000000000E+03  0.00000000000E+00 0.  1.
        -11    1    1    2    0    0 -0.86937945362E+00 -0.81983310547E+01  0.43485878392E+03  0.43493692693E+03  0.00000000000E+00 0. -1.
         11    1    1    2    0    0  0.65540245542E+01 -0.32257482138E+01 -0.49548514811E+03  0.49553899210E+03  0.00000000000E+00 0.  1.
        -15    1    1    2    0    0 -0.23681132946E+00  0.11139149979E+02  0.62483221922E+02  0.63493680730E+02  0.17770000000E+01 0. -1.
         15    1    1    2    0    0 -0.54478337712E+01  0.28492928970E+00 -0.18568577269E+01  0.60304002451E+01  0.17770000000E+01 0.  1.
</event>
<event>
 6    1  0.1860328E-003  0.5040035E+03  0.7546771E-02  0.9390896E-01
        -11   -1    0    0    0    0  0.00000000000E+00  0.00000000000E+00  0.50000000000E+03  0.50000000000E+03  0.00000000000E+00 0.  1.
         11   -1    0    0    0    0 -0.00000000000E+00 -0.00000000000E+00 -0.50000000000E+03  0.50000000000E+03  0.00000000000E+00 0.  1.
        -11    1    1    2    0    0  0.84562847608E+01  0.38250709145E+01  0.49590965081E+03  0.49599649363E+03  0.00000000000E+00 0.  1.
         11    1    1    2    0    0 -0.58131090884E+01 -0.29142091250E+01 -0.47281753847E+03  0.47286225218E+03  0.00000000000E+00 0.  1.
        -15    1    1    2    0    0 -0.73073781543E+01 -0.12944121780E+01 -0.12190997554E+00  0.76318981531E+01  0.17770000000E+01 0.  1.
         15    1    1    2    0    0  0.46642024819E+01  0.38355038844E+00 -0.22970202372E+02  0.23509356046E+02  0.17770000000E+01 0. -1.
</event>
<event>
 6    1  0.1860328E-003  0.5077548E+03  0.7546771E-02  0.9382623E-01
        -11   -1    0    0    0    0  0.00000000000E+00  0.00000000000E+00  0.50000000000E+03  0.50000000000E+03  0.00000000000E+00 0. -1.
         11   -1    0    0    0    0 -0.00000000000E+00 -0.00000000000E+00 -0.50000000000E+03  0.50000000000E+03  0.00000000000E+00 0.  1.
        -11    1    1    2    0    0  0.84917590132E+01 -0.45517247559E+01  0.44267903407E+03  0.44278386982E+03  0.00000000000E+00 0. -1.
         11    1    1    2    0    0  0.53356764439E+01 -0.10762829229E+02 -0.49209861421E+03  0.49224521739E+03  0.00000000000E+00 0.  1.
        -15    1    1    2    0    0 -0.17784974735E+00  0.25130175933E+02  0.31488293095E+02  0.40326513660E+02  0.17770000000E+01 0. -1.
         15    1    1    2    0    0 -0.13649585710E+02 -0.98156219478E+01  0.17931287044E+02  0.24644399127E+02  0.17770000000E+01 0.  1.
</event>
<event>
 6    1  0.1860328E-003  0.5010331E+03  0.7546771E-02  0.9397501E-01
        -11   -1    0    0    0    0  0.00000000000E+00  0.00000000000E+00  0.50000000000E+03  0.50000000000E+03  0.00000000000E+00 0. -1.
         11   -1    0    0    0    0 -0.00000000000E+00 -0.00000000000E+00 -0.50000000000E+03  0.50000000000E+03  0.00000000000E+00 0. -1.
        -11    1    1    2    0    0  0.30264085196E+00  0.93391788143E+01  0.40564233982E+03  0.40574994727E+03  0.00000000000E+00 0. -1.
         11    1    1    2    0    0 -0.10100279006E+02  0.49636193892E+01 -0.49883994713E+03  0.49896687867E+03  0.00000000000E+00 0. -1.
        -15    1    1    2    0    0  0.45135117756E+01 -0.43145257164E+00  0.23997605344E+02  0.24486746029E+02  0.17770000000E+01 0. -1.
         15    1    1    2    0    0  0.52841263782E+01 -0.13871345632E+02  0.69200001967E+02  0.70796428034E+02  0.17770000000E+01 0.  1.
</event>
<event>
 6    1  0.1860328E-003  0.5084036E+03  0.7546771E-02  0.9381200E-01
        -11   -1    0    0    0    0  0.00000000000E+00  0.00000000000E+00  0.50000000000E+03  0.50000000000E+03  0.00000000000E+00 0.  1.
         11   -1    0    0    0    0 -0.00000000000E+00 -0.00000000000E+00 -0.50000000000E+03  0.50000000000E+03  0.00000000000E+00 0.  1.
        -11    1    1    2    0    0  0.54226912546E+01 -0.91806768322E+01  0.47694256015E+03  0.47706173195E+03  0.00000000000E+00 0.  1.
         11    1    1    2    0    0 -0.10689210451E+02  0.66033913141E+01 -0.49143585151E+03  0.49159644033E+03  0.00000000000E+00 0.  1.
        -15    1    1    2    0    0 -0.10033319693E+01  0.86814436981E+01 -0.47671651129E+01  0.10112256521E+02  0.17770000000E+01 0. -1.
         15    1    1    2    0    0  0.62698511654E+01 -0.61041581800E+01  0.19260456474E+02  0.21229571199E+02  0.17770000000E+01 0.  1.
</event>
<event>
 6    1  0.1860328E-003  0.5001181E+03  0.7546771E-02  0.9399546E-01
        -11   -1    0    0    0    0  0.00000000000E+00  0.00000000000E+00  0.50000000000E+03  0.50000000000E+03  0.00000000000E+00 0. -1.
         11   -1    0    0    0    0 -0.00000000000E+00 -0.00000000000E+00 -0.50000000000E+03  0.50000000000E+03  0.00000000000E+00 0. -1.
        -11    1    1    2    0    0 -0.20572885369E+01 -0.30495076393E+00  0.14381628835E+03  0.14383132560E+03  0.00000000000E+00 0. -1.
         11    1    1    2    0    0 -0.71292803025E+01  0.98385548367E+01 -0.49973422567E+03  0.49988190616E+03  0.00000000000E+00 0. -1.
        -15    1    1    2    0    0  0.13907598286E+01 -0.12130185901E+01  0.16530105187E+03  0.16532090342E+03  0.17770000000E+01 0.  1.
         15    1    1    2    0    0  0.77958090107E+01 -0.83205854826E+01  0.19061688545E+03  0.19096586482E+03  0.17770000000E+01 0. -1.
</event>
<event>
 6    1  0.1860328E-003  0.5082153E+03  0.7546771E-02  0.9381613E-01
        -11   -1    0    0    0    0  0.00000000000E+00  0.00000000000E+00  0.50000000000E+03  0.50000000000E+03  0.00000000000E+00 0.  1.
         11   -1    0    0    0    0 -0.00000000000E+00 -0.00000000000E+00 -0.50000000000E+03  0.50000000000E+03  0.00000000000E+00 0. -1.
        -11    1    1    2    0    0  0.93088350494E+00  0.80031348014E+01  0.49171864492E+03  0.49178465051E+03  0.00000000000E+00 0.  1.
         11    1    1    2    0    0  0.67602045638E+01  0.16460330165E+01 -0.43659897474E+03  0.43665441087E+03  0.00000000000E+00 0. -1.
        -15    1    1    2    0    0 -0.75952253900E+01 -0.25220123271E+02 -0.20053368054E+02  0.33151732471E+02  0.17770000000E+01 0. -1.
         15    1    1    2    0    0 -0.95862678727E-01  0.15570955453E+02 -0.35066302123E+02  0.38409206149E+02  0.17770000000E+01 0.  1.
</event>
<event>
 6    1  0.1860328E-003  0.5013142E+03  0.7546771E-02  0.9396874E-01
        -11   -1    0    0    0    0  0.00000000000E+00  0.00000000000E+00  0.50000000000E+03  0.50000000000E+03  0.00000000000E+00 0.  1.
         11   -1    0    0    0    0 -0.00000000000E+00 -0.00000000000E+00 -0.50000000000E+03  0.50000000000E+03  0.00000000000E+00 0.  1.
        -11    1    1    2    0    0  0.11540954446E+02 -0.72166567289E+01  0.25940248199E+03  0.25975935291E+03  0.00000000000E+00 0.  1.
         11    1    1    2    0    0 -0.27912054190E+01 -0.12042940347E+02 -0.49853254906E+03  0.49868579859E+03  0.00000000000E+00 0.  1.
        -15    1    1    2    0    0 -0.63122707695E+01  0.61137113207E+01  0.19933026737E+03  0.19953179057E+03  0.17770000000E+01 0. -1.
         15    1    1    2    0    0 -0.24374782576E+01  0.13145885755E+02  0.39799799703E+02  0.42023057932E+02  0.17770000000E+01 0.  1.
</event>
<event>
 6    1  0.1860328E-003  0.5007203E+03  0.7546771E-02  0.9398200E-01
        -11   -1    0    0    0    0  0.00000000000E+00  0.00000000000E+00  0.50000000000E+03  0.50000000000E+03  0.00000000000E+00 0.  1.
         11   -1    0    0    0    0 -0.00000000000E+00 -0.00000000000E+00 -0.50000000000E+03  0.50000000000E+03  0.00000000000E+00 0.  1.
        -11    1    1    2    0    0  0.58744029208E+01 -0.10421290647E+01  0.43450741096E+03  0.43454836880E+03  0.00000000000E+00 0.  1.
         11    1    1    2    0    0 -0.39463896168E+01  0.65552740874E+01 -0.49922110594E+03  0.49927973945E+03  0.00000000000E+00 0.  1.
        -15    1    1    2    0    0 -0.18689946159E+01 -0.25552371105E+01  0.41659490642E+01  0.55258699017E+01  0.17770000000E+01 0. -1.
         15    1    1    2    0    0 -0.59018688043E-01 -0.29579079122E+01  0.60547745911E+02  0.60646021851E+02  0.17770000000E+01 0.  1.
</event>
<event>
 6    1  0.1860328E-003  0.5021605E+03  0.7546771E-02  0.9394988E-01
        -11   -1    0    0    0    0  0.00000000000E+00  0.00000000000E+00  0.50000000000E+03  0.50000000000E+03  0.00000000000E+00 0. -1.
         11   -1    0    0    0    0 -0.00000000000E+00 -0.00000000000E+00 -0.50000000000E+03  0.50000000000E+03  0.00000000000E+00 0.  1.
        -11    1    1    2    0    0  0.58775759972E+01  0.37879920463E+01  0.49779041901E+03  0.49783952841E+03  0.00000000000E+00 0. -1.
         11    1    1    2    0    0 -0.47044114201E+01 -0.58905961585E+01 -0.49337644224E+03  0.49343403243E+03  0.00000000000E+00 0.  1.
        -15    1    1    2    0    0 -0.33924694347E+00  0.76474588482E+00 -0.56973725587E+01  0.60264174955E+01  0.17770000000E+01 0.  1.
         15    1    1    2    0    0 -0.83391763369E+00  0.13378582274E+01  0.12833957817E+01  0.27000216645E+01  0.17770000000E+01 0. -1.
</event>
<event>
 6    1  0.1860328E-003  0.5343839E+03  0.7546771E-02  0.9325998E-01
        -11   -1    0    0    0    0  0.00000000000E+00  0.00000000000E+00  0.50000000000E+03  0.50000000000E+03  0.00000000000E+00 0. -1.
         11   -1    0    0    0    0 -0.00000000000E+00 -0.00000000000E+00 -0.50000000000E+03  0.50000000000E+03  0.00000000000E+00 0.  1.
        -11    1    1    2    0    0 -0.90270581949E+01  0.52957154940E+00  0.46552824318E+03  0.46561605795E+03  0.00000000000E+00 0. -1.
         11    1    1    2    0    0 -0.10387753079E+02  0.67552224789E+01 -0.40133516272E+03  0.40152640172E+03  0.00000000000E+00 0.  1.
        -15    1    1    2    0    0  0.11707662368E+02 -0.21716528820E+01 -0.97502124123E+02  0.98242594489E+02  0.17770000000E+01 0. -1.
         15    1    1    2    0    0  0.77071489056E+01 -0.51131411463E+01  0.33309043664E+02  0.34614945839E+02  0.17770000000E+01 0.  1.
</event>
<event>
 6    1  0.1860328E-003  0.4521530E+03  0.7546771E-02  0.9513735E-01
        -11   -1    0    0    0    0  0.00000000000E+00  0.00000000000E+00  0.50000000000E+03  0.50000000000E+03  0.00000000000E+00 0. -1.
         11   -1    0    0    0    0 -0.00000000000E+00 -0.00000000000E+00 -0.50000000000E+03  0.50000000000E+03  0.00000000000E+00 0.  1.
        -11    1    1    2    0    0 -0.12408477634E+02 -0.98455430332E+01  0.43791469655E+03  0.43820107997E+03  0.00000000000E+00 0. -1.
         11    1    1    2    0    0 -0.47331035067E+02 -0.91994985540E+01 -0.46623156840E+03  0.46871818082E+03  0.00000000000E+00 0.  1.
        -15    1    1    2    0    0  0.22224774759E+02 -0.13939018618E+02 -0.11961483920E+02  0.28887223468E+02  0.17770000000E+01 0. -1.
         15    1    1    2    0    0  0.37514737942E+02  0.32984060205E+02  0.40278355771E+02  0.64193515740E+02  0.17770000000E+01 0.  1.
</event>
<event>
 6    1  0.1860328E-003  0.5003178E+03  0.7546771E-02  0.9399099E-01
        -11   -1    0    0    0    0  0.00000000000E+00  0.00000000000E+00  0.50000000000E+03  0.50000000000E+03  0.00000000000E+00 0.  1.
         11   -1    0    0    0    0 -0.00000000000E+00 -0.00000000000E+00 -0.50000000000E+03  0.50000000000E+03  0.00000000000E+00 0. -1.
        -11    1    1    2    0    0  0.43801951238E+01 -0.16002543556E-01  0.25968372275E+03  0.25972066191E+03  0.00000000000E+00 0.  1.
         11    1    1    2    0    0  0.39999320906E+01  0.86151731818E+01 -0.49959193872E+03  0.49968222491E+03  0.00000000000E+00 0. -1.
        -15    1    1    2    0    0 -0.13923062707E+00  0.32167196382E+01  0.47324433908E+02  0.47467109077E+02  0.17770000000E+01 0.  1.
         15    1    1    2    0    0 -0.82408965873E+01 -0.11815890276E+02  0.19258378206E+03  0.19313000409E+03  0.17770000000E+01 0. -1.
</event>
<event>
 6    1  0.1860328E-003  0.5029067E+03  0.7546771E-02  0.9393329E-01
        -11   -1    0    0    0    0  0.00000000000E+00  0.00000000000E+00  0.50000000000E+03  0.50000000000E+03  0.00000000000E+00 0. -1.
         11   -1    0    0    0    0 -0.00000000000E+00 -0.00000000000E+00 -0.50000000000E+03  0.50000000000E+03  0.00000000000E+00 0.  1.
        -11    1    1    2    0    0  0.31001914280E+01  0.68011979658E+01  0.44470427715E+03  0.44476708691E+03  0.00000000000E+00 0. -1.
         11    1    1    2    0    0 -0.12641191398E+01  0.12887145754E+02 -0.49692463762E+03  0.49709332323E+03  0.00000000000E+00 0.  1.
        -15    1    1    2    0    0 -0.43206173630E+00 -0.12176030483E+02  0.12113488028E+02  0.17272426491E+02  0.17770000000E+01 0. -1.
         15    1    1    2    0    0 -0.14040105519E+01 -0.75123132369E+01  0.40106872444E+02  0.40867163371E+02  0.17770000000E+01 0.  1.
</event>
<event>
 6    1  0.1860328E-003  0.4726654E+03  0.7546771E-02  0.9463140E-01
        -11   -1    0    0    0    0  0.00000000000E+00  0.00000000000E+00  0.50000000000E+03  0.50000000000E+03  0.00000000000E+00 0. -1.
         11   -1    0    0    0    0 -0.00000000000E+00 -0.00000000000E+00 -0.50000000000E+03  0.50000000000E+03  0.00000000000E+00 0. -1.
        -11    1    1    2    0    0  0.61415462480E+01 -0.53196561298E+01  0.46828243080E+03  0.46835291430E+03  0.00000000000E+00 0. -1.
         11    1    1    2    0    0  0.76767596484E+01 -0.24437306115E+01 -0.47708360067E+03  0.47715161792E+03  0.00000000000E+00 0. -1.
        -15    1    1    2    0    0  0.19775264613E+01  0.13833191521E+02 -0.17934266303E+02  0.22804899373E+02  0.17770000000E+01 0. -1.
         15    1    1    2    0    0 -0.15795832358E+02 -0.60698047802E+01  0.26735436167E+02  0.31690568407E+02  0.17770000000E+01 0.  1.
</event>
<event>
 6    1  0.1860328E-003  0.5027553E+03  0.7546771E-02  0.9393666E-01
        -11   -1    0    0    0    0  0.00000000000E+00  0.00000000000E+00  0.50000000000E+03  0.50000000000E+03  0.00000000000E+00 0.  1.
         11   -1    0    0    0    0 -0.00000000000E+00 -0.00000000000E+00 -0.50000000000E+03  0.50000000000E+03  0.00000000000E+00 0.  1.
        -11    1    1    2    0    0 -0.15740803988E+02 -0.92570817448E+01  0.49690925625E+03  0.49724468365E+03  0.00000000000E+00 0.  1.
         11    1    1    2    0    0  0.29141400718E+02 -0.11910082070E+02 -0.14086838207E+03  0.14434324494E+03  0.00000000000E+00 0.  1.
        -15    1    1    2    0    0 -0.14139433323E+02  0.16695517870E+02 -0.10247899255E+03  0.10480346147E+03  0.17770000000E+01 0.  1.
         15    1    1    2    0    0  0.73883659350E+00  0.44716459448E+01 -0.25356188162E+03  0.25360860994E+03  0.17770000000E+01 0. -1.
</event>
<event>
 6    1  0.4935855E-003  0.5158253E+03  0.7546771E-02  0.9365079E-01
        -11   -1    0    0    0    0  0.00000000000E+00  0.00000000000E+00  0.50000000000E+03  0.50000000000E+03  0.00000000000E+00 0.  1.
         11   -1    0    0    0    0 -0.00000000000E+00 -0.00000000000E+00 -0.50000000000E+03  0.50000000000E+03  0.00000000000E+00 0.  1.
        -11    1    1    2    0    0 -0.14232620884E+02 -0.25110574340E+01  0.48395899249E+03  0.48417474048E+03  0.00000000000E+00 0.  1.
         11    1    1    2    0    0  0.20502644869E+01 -0.29933152381E+01 -0.20376461535E+03  0.20379691359E+03  0.00000000000E+00 0.  1.
        -15    1    1    2    0    0  0.17589211836E+01  0.46850471538E+01 -0.29431812670E+03  0.29436603219E+03  0.17770000000E+01 0.  1.
         15    1    1    2    0    0  0.10423435214E+02  0.81932551837E+00  0.14123749568E+02  0.17662313745E+02  0.17770000000E+01 0. -1.
</event>
<event>
 6    1  0.1860328E-003  0.5081206E+03  0.7546771E-02  0.9381820E-01
        -11   -1    0    0    0    0  0.00000000000E+00  0.00000000000E+00  0.50000000000E+03  0.50000000000E+03  0.00000000000E+00 0.  1.
         11   -1    0    0    0    0 -0.00000000000E+00 -0.00000000000E+00 -0.50000000000E+03  0.50000000000E+03  0.00000000000E+00 0. -1.
        -11    1    1    2    0    0 -0.23066368829E+01 -0.82272000179E+01  0.48089824657E+03  0.48097414790E+03  0.00000000000E+00 0.  1.
         11    1    1    2    0    0 -0.26908503771E+01  0.87846404052E+01 -0.49179361681E+03  0.49187942844E+03  0.00000000000E+00 0. -1.
        -15    1    1    2    0    0 -0.15755882911E+01  0.50380930197E+01  0.16013743833E+02  0.16954721475E+02  0.17770000000E+01 0.  1.
         15    1    1    2    0    0  0.65730755511E+01 -0.55955334071E+01 -0.51183735900E+01  0.10191702189E+02  0.17770000000E+01 0. -1.
</event>
<event>
 6    1  0.1860328E-003  0.5017853E+03  0.7546771E-02  0.9395824E-01
        -11   -1    0    0    0    0  0.00000000000E+00  0.00000000000E+00  0.50000000000E+03  0.50000000000E+03  0.00000000000E+00 0. -1.
         11   -1    0    0    0    0 -0.00000000000E+00 -0.00000000000E+00 -0.50000000000E+03  0.50000000000E+03  0.00000000000E+00 0. -1.
        -11    1    1    2    0    0  0.10446802465E+02  0.10235154507E+01  0.31167023085E+03  0.31184694333E+03  0.00000000000E+00 0. -1.
         11    1    1    2    0    0 -0.12542682843E+02  0.52891836453E+01 -0.49802866317E+03  0.49821465625E+03  0.00000000000E+00 0. -1.
        -15    1    1    2    0    0 -0.70631600904E+01  0.41493219304E+01  0.15878704410E+03  0.15900813880E+03  0.17770000000E+01 0.  1.
         15    1    1    2    0    0  0.91590404680E+01 -0.10462021026E+02  0.27571388229E+02  0.30930261624E+02  0.17770000000E+01 0. -1.
</event>
<event>
 6    1  0.1860328E-003  0.4863633E+03  0.7546771E-02  0.9430851E-01
        -11   -1    0    0    0    0  0.00000000000E+00  0.00000000000E+00  0.50000000000E+03  0.50000000000E+03  0.00000000000E+00 0. -1.
         11   -1    0    0    0    0 -0.00000000000E+00 -0.00000000000E+00 -0.50000000000E+03  0.50000000000E+03  0.00000000000E+00 0. -1.
        -11    1    1    2    0    0  0.44860880133E+01 -0.76256889540E+01  0.48800271983E+03  0.48808291374E+03  0.00000000000E+00 0. -1.
         11    1    1    2    0    0  0.75080232365E-01 -0.69181212755E+01 -0.48471932951E+03  0.48476870200E+03  0.00000000000E+00 0. -1.
        -15    1    1    2    0    0 -0.12138824441E+01  0.45266354878E+01  0.93362774113E+01  0.10596591165E+02  0.17770000000E+01 0.  1.
         15    1    1    2    0    0 -0.33472858015E+01  0.10017174742E+02 -0.12619667734E+02  0.16551793098E+02  0.17770000000E+01 0. -1.
</event>
<event>
 6    1  0.1860328E-003  0.5034846E+03  0.7546771E-02  0.9392046E-01
        -11   -1    0    0    0    0  0.00000000000E+00  0.00000000000E+00  0.50000000000E+03  0.50000000000E+03  0.00000000000E+00 0.  1.
         11   -1    0    0    0    0 -0.00000000000E+00 -0.00000000000E+00 -0.50000000000E+03  0.50000000000E+03  0.00000000000E+00 0. -1.
        -11    1    1    2    0    0  0.10825327425E+02  0.11506505286E+02  0.49626401047E+03  0.49651541312E+03  0.00000000000E+00 0.  1.
         11    1    1    2    0    0 -0.64484764748E+01 -0.25195224558E+01 -0.45809287489E+03  0.45814518754E+03  0.00000000000E+00 0. -1.
        -15    1    1    2    0    0  0.15813275616E+01 -0.19665105427E+01 -0.35436901123E+02  0.35571047929E+02  0.17770000000E+01 0. -1.
         15    1    1    2    0    0 -0.59581785122E+01 -0.70204722879E+01 -0.27342344544E+01  0.97683514157E+01  0.17770000000E+01 0.  1.
</event>
<event>
 6    1  0.1860328E-003  0.4797848E+03  0.7546771E-02  0.9446215E-01
        -11   -1    0    0    0    0  0.00000000000E+00  0.00000000000E+00  0.50000000000E+03  0.50000000000E+03  0.00000000000E+00 0. -1.
         11   -1    0    0    0    0 -0.00000000000E+00 -0.00000000000E+00 -0.50000000000E+03  0.50000000000E+03  0.00000000000E+00 0.  1.
        -11    1    1    2    0    0 -0.35010803289E+00  0.79308411099E+01  0.47784442871E+03  0.47791036698E+03  0.00000000000E+00 0. -1.
         11    1    1    2    0    0 -0.30429180968E+02 -0.67285995206E+01 -0.48115091530E+03  0.48215911523E+03  0.00000000000E+00 0.  1.
        -15    1    1    2    0    0  0.54198085490E+01 -0.80234983005E+01  0.86127496584E+01  0.13080062514E+02  0.17770000000E+01 0. -1.
         15    1    1    2    0    0  0.25359480452E+02  0.68212567112E+01 -0.53062630692E+01  0.26850455279E+02  0.17770000000E+01 0.  1.
</event>
<event>
 6    1  0.1860328E-003  0.5047507E+03  0.7546771E-02  0.9389242E-01
        -11   -1    0    0    0    0  0.00000000000E+00  0.00000000000E+00  0.50000000000E+03  0.50000000000E+03  0.00000000000E+00 0. -1.
         11   -1    0    0    0    0 -0.00000000000E+00 -0.00000000000E+00 -0.50000000000E+03  0.50000000000E+03  0.00000000000E+00 0. -1.
        -11    1    1    2    0    0  0.48578305284E+01  0.58617687943E+01  0.49091418094E+03  0.49097320895E+03  0.00000000000E+00 0. -1.
         11    1    1    2    0    0  0.24783251218E+00 -0.74246074680E+01 -0.49519357042E+03  0.49524928915E+03  0.00000000000E+00 0. -1.
        -15    1    1    2    0    0 -0.37180777717E+01 -0.45212953466E+01  0.39475258878E+01  0.72805840124E+01  0.17770000000E+01 0.  1.
         15    1    1    2    0    0 -0.13875852689E+01  0.60841340203E+01  0.33186358705E+00  0.64969178920E+01  0.17770000000E+01 0. -1.
</event>
<event>
 6    1  0.1860328E-003  0.5004836E+03  0.7546771E-02  0.9398728E-01
        -11   -1    0    0    0    0  0.00000000000E+00  0.00000000000E+00  0.50000000000E+03  0.50000000000E+03  0.00000000000E+00 0.  1.
         11   -1    0    0    0    0 -0.00000000000E+00 -0.00000000000E+00 -0.50000000000E+03  0.50000000000E+03  0.00000000000E+00 0. -1.
        -11    1    1    2    0    0 -0.89748506194E+01 -0.81514632031E+01  0.49936924807E+03  0.49951640635E+03  0.00000000000E+00 0.  1.
         11    1    1    2    0    0 -0.31249037851E+01  0.91965028864E+01 -0.30763605389E+03  0.30778934735E+03  0.00000000000E+00 0. -1.
        -15    1    1    2    0    0  0.60463491251E+01  0.18809339185E+01 -0.26125361637E+02  0.26940462131E+02  0.17770000000E+01 0.  1.
         15    1    1    2    0    0  0.60534052794E+01 -0.29259736018E+01 -0.16560783255E+03  0.16575378417E+03  0.17770000000E+01 0. -1.
</event>
<event>
 6    1  0.1860328E-003  0.5251334E+03  0.7546771E-02  0.9345264E-01
        -11   -1    0    0    0    0  0.00000000000E+00  0.00000000000E+00  0.50000000000E+03  0.50000000000E+03  0.00000000000E+00 0.  1.
         11   -1    0    0    0    0 -0.00000000000E+00 -0.00000000000E+00 -0.50000000000E+03  0.50000000000E+03  0.00000000000E+00 0. -1.
        -11    1    1    2    0    0 -0.10211540799E+02 -0.15853889203E+02  0.47449205014E+03  0.47486664129E+03  0.00000000000E+00 0.  1.
         11    1    1    2    0    0  0.18842844979E+02  0.63050967484E+01 -0.27954322266E+03  0.28024849756E+03  0.00000000000E+00 0. -1.
        -15    1    1    2    0    0  0.60658450445E+02 -0.23796806835E+02 -0.55414289383E+02  0.85554876090E+02  0.17770000000E+01 0. -1.
         15    1    1    2    0    0 -0.69289754625E+02  0.33345599289E+02 -0.13953453809E+03  0.15932998506E+03  0.17770000000E+01 0.  1.
</event>
<event>
 6    1  0.1860328E-003  0.5116134E+03  0.7546771E-02  0.9374192E-01
        -11   -1    0    0    0    0  0.00000000000E+00  0.00000000000E+00  0.50000000000E+03  0.50000000000E+03  0.00000000000E+00 0. -1.
         11   -1    0    0    0    0 -0.00000000000E+00 -0.00000000000E+00 -0.50000000000E+03  0.50000000000E+03  0.00000000000E+00 0.  1.
        -11    1    1    2    0    0 -0.12147849831E+02 -0.54613122679E+01  0.48820497446E+03  0.48838662275E+03  0.00000000000E+00 0. -1.
         11    1    1    2    0    0 -0.12599510089E+02  0.25395999660E+02 -0.43821471708E+03  0.43913078088E+03  0.00000000000E+00 0.  1.
        -15    1    1    2    0    0  0.17118579641E+02 -0.52433726272E+00  0.11174246932E+01  0.17254769353E+02  0.17770000000E+01 0. -1.
         15    1    1    2    0    0  0.76287802793E+01 -0.19410350130E+02 -0.51107682075E+02  0.55227827015E+02  0.17770000000E+01 0.  1.
</event>
<event>
 6    1  0.1860328E-003  0.5080141E+03  0.7546771E-02  0.9382054E-01
        -11   -1    0    0    0    0  0.00000000000E+00  0.00000000000E+00  0.50000000000E+03  0.50000000000E+03  0.00000000000E+00 0.  1.
         11   -1    0    0    0    0 -0.00000000000E+00 -0.00000000000E+00 -0.50000000000E+03  0.50000000000E+03  0.00000000000E+00 0. -1.
        -11    1    1    2    0    0 -0.89218569811E+01 -0.17245655458E+01  0.49190193333E+03  0.49198585922E+03  0.00000000000E+00 0.  1.
         11    1    1    2    0    0  0.20700997698E+01 -0.13946881002E+02 -0.43139020135E+03  0.43162055862E+03  0.00000000000E+00 0. -1.
        -15    1    1    2    0    0 -0.12626926606E+01  0.21865234216E+01  0.66807492147E+01  0.73597157892E+01  0.17770000000E+01 0.  1.
         15    1    1    2    0    0  0.81144498719E+01  0.13484923126E+02 -0.67192481192E+02  0.69033866371E+02  0.17770000000E+01 0. -1.
</event>
<event>
 6    1  0.1860328E-003  0.5101704E+03  0.7546771E-02  0.9377336E-01
        -11   -1    0    0    0    0  0.00000000000E+00  0.00000000000E+00  0.50000000000E+03  0.50000000000E+03  0.00000000000E+00 0. -1.
         11   -1    0    0    0    0 -0.00000000000E+00 -0.00000000000E+00 -0.50000000000E+03  0.50000000000E+03  0.00000000000E+00 0. -1.
        -11    1    1    2    0    0 -0.62297350752E+01 -0.19763117692E+01  0.47638959660E+03  0.47643442692E+03  0.00000000000E+00 0. -1.
         11    1    1    2    0    0  0.39333931278E+01 -0.10041326175E+02 -0.48971089164E+03  0.48982962058E+03  0.00000000000E+00 0. -1.
        -15    1    1    2    0    0 -0.91384520098E+00  0.13809756046E+01  0.20333473697E+02  0.20478039171E+02  0.17770000000E+01 0.  1.
         15    1    1    2    0    0  0.32101871484E+01  0.10636662340E+02 -0.70121786594E+01  0.13257913328E+02  0.17770000000E+01 0. -1.
</event>
<event>
 6    1  0.1860328E-003  0.5048705E+03  0.7546771E-02  0.9388977E-01
        -11   -1    0    0    0    0  0.00000000000E+00  0.00000000000E+00  0.50000000000E+03  0.50000000000E+03  0.00000000000E+00 0. -1.
         11   -1    0    0    0    0 -0.00000000000E+00 -0.00000000000E+00 -0.50000000000E+03  0.50000000000E+03  0.00000000000E+00 0. -1.
        -11    1    1    2    0    0  0.19670904272E+02  0.79485309308E+01  0.49467473964E+03  0.49512949989E+03  0.00000000000E+00 0. -1.
         11    1    1    2    0    0  0.65967044156E+01 -0.31253220346E+00 -0.45440620557E+03  0.45445419334E+03  0.00000000000E+00 0. -1.
        -15    1    1    2    0    0 -0.26071487032E+02 -0.84854520404E+01 -0.39833076598E+02  0.48389637864E+02  0.17770000000E+01 0.  1.
         15    1    1    2    0    0 -0.19612165620E+00  0.84945331301E+00 -0.43545747293E+00  0.20266689038E+01  0.17770000000E+01 0.  1.
</event>
<event>
 6    1  0.1860328E-003  0.5070192E+03  0.7546771E-02  0.9384239E-01
        -11   -1    0    0    0    0  0.00000000000E+00  0.00000000000E+00  0.50000000000E+03  0.50000000000E+03  0.00000000000E+00 0. -1.
         11   -1    0    0    0    0 -0.00000000000E+00 -0.00000000000E+00 -0.50000000000E+03  0.50000000000E+03  0.00000000000E+00 0. -1.
        -11    1    1    2    0    0  0.65292863700E+01  0.43259079140E+00  0.41206380117E+03  0.41211575431E+03  0.00000000000E+00 0. -1.
         11    1    1    2    0    0  0.74458130962E+01 -0.25551014089E+01 -0.49291797049E+03  0.49298082550E+03  0.00000000000E+00 0. -1.
        -15    1    1    2    0    0 -0.41914640120E+01  0.79886417902E+01 -0.34437819739E+01  0.98185605615E+01  0.17770000000E+01 0.  1.
         15    1    1    2    0    0 -0.97836354541E+01 -0.58661311727E+01  0.84297951296E+02  0.85084859636E+02  0.17770000000E+01 0. -1.
</event>
<event>
 6    1  0.1860328E-003  0.5005931E+03  0.7546771E-02  0.9398484E-01
        -11   -1    0    0    0    0  0.00000000000E+00  0.00000000000E+00  0.50000000000E+03  0.50000000000E+03  0.00000000000E+00 0. -1.
         11   -1    0    0    0    0 -0.00000000000E+00 -0.00000000000E+00 -0.50000000000E+03  0.50000000000E+03  0.00000000000E+00 0.  1.
        -11    1    1    2    0    0 -0.65938976733E+00 -0.77529820030E+01  0.49934629396E+03  0.49940691306E+03  0.00000000000E+00 0. -1.
         11    1    1    2    0    0  0.75156275048E+01 -0.20787439756E+01 -0.42634178694E+03  0.42641309212E+03  0.00000000000E+00 0.  1.
        -15    1    1    2    0    0 -0.50052930106E+01  0.44791889683E+01 -0.31802608842E+02  0.32552722622E+02  0.17770000000E+01 0. -1.
         15    1    1    2    0    0 -0.18509447269E+01  0.53525370102E+01 -0.41201898172E+02  0.41627272200E+02  0.17770000000E+01 0.  1.
</event>
<event>
 6    1  0.1860328E-003  0.5036231E+03  0.7546771E-02  0.9391739E-01
        -11   -1    0    0    0    0  0.00000000000E+00  0.00000000000E+00  0.50000000000E+03  0.50000000000E+03  0.00000000000E+00 0. -1.
         11   -1    0    0    0    0 -0.00000000000E+00 -0.00000000000E+00 -0.50000000000E+03  0.50000000000E+03  0.00000000000E+00 0.  1.
        -11    1    1    2    0    0  0.15936478321E+02  0.69825933354E+01  0.37768954345E+03  0.37809009400E+03  0.00000000000E+00 0. -1.
         11    1    1    2    0    0 -0.40778917640E+00 -0.96877519800E+01 -0.49628214899E+03  0.49637686312E+03  0.00000000000E+00 0.  1.
        -15    1    1    2    0    0  0.69401120860E+01  0.45376212944E+00  0.83223333059E+02  0.83532340744E+02  0.17770000000E+01 0.  1.
         15    1    1    2    0    0 -0.22468801231E+02  0.22513965151E+01  0.35369272485E+02  0.42000702139E+02  0.17770000000E+01 0. -1.
</event>
<event>
 6    1  0.1860328E-003  0.5077904E+03  0.7546771E-02  0.9382545E-01
        -11   -1    0    0    0    0  0.00000000000E+00  0.00000000000E+00  0.50000000000E+03  0.50000000000E+03  0.00000000000E+00 0. -1.
         11   -1    0    0    0    0 -0.00000000000E+00 -0.00000000000E+00 -0.50000000000E+03  0.50000000000E+03  0.00000000000E+00 0. -1.
        -11    1    1    2    0    0  0.58996994693E+01  0.32858920099E+01  0.47196489342E+03  0.47201320338E+03  0.00000000000E+00 0. -1.
         11    1    1    2    0    0 -0.26551545702E+01  0.14744272900E+02 -0.49198152573E+03  0.49220957436E+03  0.00000000000E+00 0. -1.
        -15    1    1    2    0    0  0.35554408368E+01 -0.39223707274E+01  0.19198794398E+02  0.19994438902E+02  0.17770000000E+01 0.  1.
         15    1    1    2    0    0 -0.67999857359E+01 -0.14107794183E+02  0.81783791383E+00  0.15782783359E+02  0.17770000000E+01 0. -1.
</event>
<event>
 6    1  0.1860328E-003  0.5093138E+03  0.7546771E-02  0.9379207E-01
        -11   -1    0    0    0    0  0.00000000000E+00  0.00000000000E+00  0.50000000000E+03  0.50000000000E+03  0.00000000000E+00 0.  1.
         11   -1    0    0    0    0 -0.00000000000E+00 -0.00000000000E+00 -0.50000000000E+03  0.50000000000E+03  0.00000000000E+00 0. -1.
        -11    1    1    2    0    0  0.43470398037E+01 -0.10200057699E+02  0.49056094961E+03  0.49068623703E+03  0.00000000000E+00 0.  1.
         11    1    1    2    0    0 -0.16104404303E+02  0.31602209206E+01 -0.47646329963E+03  0.47674585968E+03  0.00000000000E+00 0. -1.
        -15    1    1    2    0    0  0.10852662220E+02 -0.24698273635E+01 -0.18686330281E+02  0.21822396588E+02  0.17770000000E+01 0. -1.
         15    1    1    2    0    0  0.90470227987E+00  0.95096641419E+01  0.45886803016E+01  0.10745506699E+02  0.17770000000E+01 0.  1.
</event>
<event>
 6    1  0.1860328E-003  0.5016833E+03  0.7546771E-02  0.9396051E-01
        -11   -1    0    0    0    0  0.00000000000E+00  0.00000000000E+00  0.50000000000E+03  0.50000000000E+03  0.00000000000E+00 0. -1.
         11   -1    0    0    0    0 -0.00000000000E+00 -0.00000000000E+00 -0.50000000000E+03  0.50000000000E+03  0.00000000000E+00 0. -1.
        -11    1    1    2    0    0  0.67858467449E+01 -0.31088778315E+01  0.48035639858E+03  0.48041438623E+03  0.00000000000E+00 0. -1.
         11    1    1    2    0    0 -0.55518642054E+01  0.45661732187E+01 -0.49826483835E+03  0.49831668874E+03  0.00000000000E+00 0. -1.
        -15    1    1    2    0    0 -0.18249781080E+01  0.68922800590E-01  0.18585994151E+02  0.18759856156E+02  0.17770000000E+01 0. -1.
         15    1    1    2    0    0  0.59099556848E+00 -0.15262181878E+01 -0.67755437588E+00  0.25090688813E+01  0.17770000000E+01 0.  1.
</event>
<event>
 6    1  0.1860328E-003  0.5050067E+03  0.7546771E-02  0.9388676E-01
        -11   -1    0    0    0    0  0.00000000000E+00  0.00000000000E+00  0.50000000000E+03  0.50000000000E+03  0.00000000000E+00 0.  1.
         11   -1    0    0    0    0 -0.00000000000E+00 -0.00000000000E+00 -0.50000000000E+03  0.50000000000E+03  0.00000000000E+00 0. -1.
        -11    1    1    2    0    0 -0.83169663981E+01 -0.10498189139E+02  0.23813634361E+03  0.23851268740E+03  0.00000000000E+00 0.  1.
         11    1    1    2    0    0  0.13752093579E+02 -0.10106737496E+02 -0.49469897623E+03  0.49499327602E+03  0.00000000000E+00 0. -1.
        -15    1    1    2    0    0 -0.15616866255E+02  0.26117464707E+02  0.43541026731E+02  0.53150608765E+02  0.17770000000E+01 0. -1.
         15    1    1    2    0    0  0.10181739074E+02 -0.55125380709E+01  0.21302160589E+03  0.21334342781E+03  0.17770000000E+01 0. -1.
</event>
<event>
 6    1  0.1860328E-003  0.5041144E+03  0.7546771E-02  0.9390650E-01
        -11   -1    0    0    0    0  0.00000000000E+00  0.00000000000E+00  0.50000000000E+03  0.50000000000E+03  0.00000000000E+00 0. -1.
         11   -1    0    0    0    0 -0.00000000000E+00 -0.00000000000E+00 -0.50000000000E+03  0.50000000000E+03  0.00000000000E+00 0. -1.
        -11    1    1    2    0    0  0.14405772511E+02 -0.89918798833E+01  0.49559471856E+03  0.49588557677E+03  0.00000000000E+00 0. -1.
         11    1    1    2    0    0 -0.68330625707E+01  0.13723706942E+02 -0.44075949226E+03  0.44102603199E+03  0.00000000000E+00 0. -1.
        -15    1    1    2    0    0  0.41824902212E+01 -0.48904459679E+01 -0.49684268545E+02  0.50130768557E+02  0.17770000000E+01 0.  1.
         15    1    1    2    0    0 -0.11755200162E+02  0.15861890903E+00 -0.51509577581E+01  0.12957622684E+02  0.17770000000E+01 0. -1.
</event>
<event>
 6    1  0.1860328E-003  0.5006749E+03  0.7546771E-02  0.9398301E-01
        -11   -1    0    0    0    0  0.00000000000E+00  0.00000000000E+00  0.50000000000E+03  0.50000000000E+03  0.00000000000E+00 0.  1.
         11   -1    0    0    0    0 -0.00000000000E+00 -0.00000000000E+00 -0.50000000000E+03  0.50000000000E+03  0.00000000000E+00 0.  1.
        -11    1    1    2    0    0  0.39359480893E+01  0.19171747505E+01  0.12542656464E+03  0.12550294962E+03  0.00000000000E+00 0.  1.
         11    1    1    2    0    0  0.10287438725E+02  0.12722291666E+02 -0.49905697252E+03  0.49932509443E+03  0.00000000000E+00 0.  1.
        -15    1    1    2    0    0 -0.12903343628E+02 -0.13890601287E+02  0.37156657413E+03  0.37205419204E+03  0.17770000000E+01 0. -1.
         15    1    1    2    0    0 -0.13200431857E+01 -0.74886512990E+00  0.20638337609E+01  0.31177639082E+01  0.17770000000E+01 0. -1.
</event>
<event>
 6    1  0.1860328E-003  0.5189247E+03  0.7546771E-02  0.9358432E-01
        -11   -1    0    0    0    0  0.00000000000E+00  0.00000000000E+00  0.50000000000E+03  0.50000000000E+03  0.00000000000E+00 0.  1.
         11   -1    0    0    0    0 -0.00000000000E+00 -0.00000000000E+00 -0.50000000000E+03  0.50000000000E+03  0.00000000000E+00 0.  1.
        -11    1    1    2    0    0  0.53399279477E+01 -0.90184787453E+01  0.48096108242E+03  0.48107526500E+03  0.00000000000E+00 0.  1.
         11    1    1    2    0    0 -0.15291938075E+02 -0.11604558294E+02 -0.43653461850E+03  0.43695649932E+03  0.00000000000E+00 0.  1.
        -15    1    1    2    0    0  0.48652842581E+01  0.15291630375E+02  0.15013475805E+02  0.22046930289E+02  0.17770000000E+01 0.  1.
         15    1    1    2    0    0  0.50867258696E+01  0.53314066648E+01 -0.59439939723E+02  0.59921305396E+02  0.17770000000E+01 0. -1.
</event>
<event>
 6    1  0.1860328E-003  0.4815382E+03  0.7546771E-02  0.9442094E-01
        -11   -1    0    0    0    0  0.00000000000E+00  0.00000000000E+00  0.50000000000E+03  0.50000000000E+03  0.00000000000E+00 0.  1.
         11   -1    0    0    0    0 -0.00000000000E+00 -0.00000000000E+00 -0.50000000000E+03  0.50000000000E+03  0.00000000000E+00 0. -1.
        -11    1    1    2    0    0  0.14904665728E+02  0.27643164701E+01  0.48564346964E+03  0.48587999558E+03  0.00000000000E+00 0.  1.
         11    1    1    2    0    0  0.59172696500E+01 -0.12942135066E+02 -0.47729919572E+03  0.47751129324E+03  0.00000000000E+00 0. -1.
        -15    1    1    2    0    0 -0.17748268048E+02  0.45873369833E+01  0.71514138596E+01  0.19757153856E+02  0.17770000000E+01 0. -1.
         15    1    1    2    0    0 -0.30736673300E+01  0.55904816123E+01 -0.15495687776E+02  0.16851557322E+02  0.17770000000E+01 0.  1.
</event>
<event>
 6    1  0.2480078E-003  0.5039844E+03  0.7546771E-02  0.9390938E-01
        -11   -1    0    0    0    0  0.00000000000E+00  0.00000000000E+00  0.50000000000E+03  0.50000000000E+03  0.00000000000E+00 0. -1.
         11   -1    0    0    0    0 -0.00000000000E+00 -0.00000000000E+00 -0.50000000000E+03  0.50000000000E+03  0.00000000000E+00 0. -1.
        -11    1    1    2    0    0  0.52996629332E+01 -0.13841564213E+00  0.38762358927E+03  0.38765984128E+03  0.00000000000E+00 0. -1.
         11    1    1    2    0    0 -0.17109595886E+01  0.10579936339E+02 -0.49589979437E+03  0.49601559300E+03  0.00000000000E+00 0. -1.
        -15    1    1    2    0    0 -0.75490001611E+01 -0.31420292306E+01  0.10746836373E+03  0.10779363006E+03  0.17770000000E+01 0. -1.
         15    1    1    2    0    0  0.39602968165E+01 -0.72994914667E+01  0.80784138124E+00  0.85309356605E+01  0.17770000000E+01 0.  1.
</event>
<event>
 6    1  0.1860328E-003  0.5030467E+03  0.7546771E-02  0.9393018E-01
        -11   -1    0    0    0    0  0.00000000000E+00  0.00000000000E+00  0.50000000000E+03  0.50000000000E+03  0.00000000000E+00 0.  1.
         11   -1    0    0    0    0 -0.00000000000E+00 -0.00000000000E+00 -0.50000000000E+03  0.50000000000E+03  0.00000000000E+00 0.  1.
        -11    1    1    2    0    0  0.67590885656E+01 -0.21900526254E+01  0.49690246607E+03  0.49695325977E+03  0.00000000000E+00 0.  1.
         11    1    1    2    0    0 -0.76196715037E+01 -0.46830334467E+00 -0.47263739334E+03  0.47269904197E+03  0.00000000000E+00 0.  1.
        -15    1    1    2    0    0  0.68568724753E+01 -0.46632257793E+01 -0.96639756643E+01  0.12857392016E+02  0.17770000000E+01 0.  1.
         15    1    1    2    0    0 -0.59962895372E+01  0.73215817494E+01 -0.14601097074E+02  0.17490306238E+02  0.17770000000E+01 0. -1.
</event>
<event>
 6    1  0.1860328E-003  0.4465143E+03  0.7546771E-02  0.9528145E-01
        -11   -1    0    0    0    0  0.00000000000E+00  0.00000000000E+00  0.50000000000E+03  0.50000000000E+03  0.00000000000E+00 0. -1.
         11   -1    0    0    0    0 -0.00000000000E+00 -0.00000000000E+00 -0.50000000000E+03  0.50000000000E+03  0.00000000000E+00 0.  1.
        -11    1    1    2    0    0  0.49017237462E+02  0.31637665270E+02  0.45133622641E+03  0.45509122240E+03  0.00000000000E+00 0. -1.
         11    1    1    2    0    0  0.79576148013E+01  0.55137293782E+01 -0.44048333082E+03  0.44058970661E+03  0.00000000000E+00 0.  1.
        -15    1    1    2    0    0 -0.54383374809E+02 -0.34290644102E+02  0.24416364236E+02  0.68794740352E+02  0.17770000000E+01 0.  1.
         15    1    1    2    0    0 -0.25914774538E+01 -0.28607505464E+01 -0.35269259834E+02  0.35524330638E+02  0.17770000000E+01 0. -1.
</event>
<event>
 6    1  0.1860328E-003  0.5501735E+03  0.7546771E-02  0.9294050E-01
        -11   -1    0    0    0    0  0.00000000000E+00  0.00000000000E+00  0.50000000000E+03  0.50000000000E+03  0.00000000000E+00 0.  1.
         11   -1    0    0    0    0 -0.00000000000E+00 -0.00000000000E+00 -0.50000000000E+03  0.50000000000E+03  0.00000000000E+00 0.  1.
        -11    1    1    2    0    0 -0.48199886979E+02  0.33517763678E+02  0.37197880499E+03  0.37658319260E+03  0.00000000000E+00 0.  1.
         11    1    1    2    0    0 -0.53316718470E+01  0.11934984288E+02 -0.44963652709E+03  0.44982649663E+03  0.00000000000E+00 0.  1.
        -15    1    1    2    0    0  0.44400206418E+02  0.43744790024E+02  0.14838981580E+02  0.64096318830E+02  0.17770000000E+01 0.  1.
         15    1    1    2    0    0  0.91313524081E+01 -0.89197537990E+02  0.62818740521E+02  0.10949399194E+03  0.17770000000E+01 0. -1.
</event>
<event>
 6    1  0.1860328E-003  0.5020866E+03  0.7546771E-02  0.9395153E-01
        -11   -1    0    0    0    0  0.00000000000E+00  0.00000000000E+00  0.50000000000E+03  0.50000000000E+03  0.00000000000E+00 0. -1.
         11   -1    0    0    0    0 -0.00000000000E+00 -0.00000000000E+00 -0.50000000000E+03  0.50000000000E+03  0.00000000000E+00 0.  1.
        -11    1    1    2    0    0 -0.70582516860E+01  0.22115307748E+01  0.38182437283E+03  0.38189600871E+03  0.00000000000E+00 0. -1.
         11    1    1    2    0    0 -0.67857906875E+01 -0.28076508666E+01 -0.49785925119E+03  0.49791340999E+03  0.00000000000E+00 0.  1.
        -15    1    1    2    0    0 -0.10296836324E+00 -0.11309376178E+02  0.63379694246E+02  0.64405403219E+02  0.17770000000E+01 0.  1.
         15    1    1    2    0    0  0.13947010737E+02  0.11905496270E+02  0.52655184112E+02  0.55785178074E+02  0.17770000000E+01 0. -1.
</event>
<event>
 6    1  0.1860328E-003  0.3949925E+03  0.7546771E-02  0.9671313E-01
        -11   -1    0    0    0    0  0.00000000000E+00  0.00000000000E+00  0.50000000000E+03  0.50000000000E+03  0.00000000000E+00 0.  1.
         11   -1    0    0    0    0 -0.00000000000E+00 -0.00000000000E+00 -0.50000000000E+03  0.50000000000E+03  0.00000000000E+00 0.  1.
        -11    1    1    2    0    0  0.52153318377E+02  0.37691118664E+02  0.37546050252E+03  0.38093461118E+03  0.00000000000E+00 0.  1.
         11    1    1    2    0    0  0.76548902898E+01 -0.84489515335E+00 -0.41298278077E+03  0.41305458284E+03  0.00000000000E+00 0.  1.
        -15    1    1    2    0    0  0.30055995833E+01  0.27298620653E+02 -0.64484232803E+02  0.70111499254E+02  0.17770000000E+01 0. -1.
         15    1    1    2    0    0 -0.62813808250E+02 -0.64144844164E+02  0.10200651106E+03  0.13589930672E+03  0.17770000000E+01 0.  1.
</event>
<event>
 6    1  0.1860328E-003  0.5137994E+03  0.7546771E-02  0.9369451E-01
        -11   -1    0    0    0    0  0.00000000000E+00  0.00000000000E+00  0.50000000000E+03  0.50000000000E+03  0.00000000000E+00 0. -1.
         11   -1    0    0    0    0 -0.00000000000E+00 -0.00000000000E+00 -0.50000000000E+03  0.50000000000E+03  0.00000000000E+00 0. -1.
        -11    1    1    2    0    0  0.22989861919E+01  0.10085493988E+02  0.48609054139E+03  0.48620059333E+03  0.00000000000E+00 0. -1.
         11    1    1    2    0    0  0.39539044983E+01 -0.92084779762E+01 -0.43235771989E+03  0.43247384589E+03  0.00000000000E+00 0. -1.
        -15    1    1    2    0    0  0.93245640986E+01  0.59701833030E+01  0.10190499669E+02  0.15152379246E+02  0.17770000000E+01 0.  1.
         15    1    1    2    0    0 -0.15577454789E+02 -0.68471993147E+01 -0.63923321166E+02  0.66173181532E+02  0.17770000000E+01 0. -1.
</event>
<event>
 6    1  0.1860328E-003  0.5113257E+03  0.7546771E-02  0.9374818E-01
        -11   -1    0    0    0    0  0.00000000000E+00  0.00000000000E+00  0.50000000000E+03  0.50000000000E+03  0.00000000000E+00 0. -1.
         11   -1    0    0    0    0 -0.00000000000E+00 -0.00000000000E+00 -0.50000000000E+03  0.50000000000E+03  0.00000000000E+00 0. -1.
        -11    1    1    2    0    0 -0.11573279649E+02 -0.16179303399E+02  0.45481862837E+03  0.45525344081E+03  0.00000000000E+00 0. -1.
         11    1    1    2    0    0  0.26880181163E+02 -0.10455461907E+02 -0.48782241681E+03  0.48867429968E+03  0.00000000000E+00 0. -1.
        -15    1    1    2    0    0 -0.19578049732E+02  0.67282209406E+01  0.49428041677E+01  0.21357856408E+02  0.17770000000E+01 0. -1.
         15    1    1    2    0    0  0.42711482180E+01  0.19906544366E+02  0.28060984275E+02  0.34714403108E+02  0.17770000000E+01 0.  1.
</event>
<event>
 6    1  0.1860328E-003  0.4845128E+03  0.7546771E-02  0.9435146E-01
        -11   -1    0    0    0    0  0.00000000000E+00  0.00000000000E+00  0.50000000000E+03  0.50000000000E+03  0.00000000000E+00 0. -1.
         11   -1    0    0    0    0 -0.00000000000E+00 -0.00000000000E+00 -0.50000000000E+03  0.50000000000E+03  0.00000000000E+00 0.  1.
        -11    1    1    2    0    0  0.29220863779E+01  0.17554056140E+02  0.48733023787E+03  0.48765504634E+03  0.00000000000E+00 0. -1.
         11    1    1    2    0    0  0.87330597361E+01  0.54521901967E+01 -0.48162040625E+03  0.48173043128E+03  0.00000000000E+00 0.  1.
        -15    1    1    2    0    0  0.12333523392E+01 -0.42689318459E+01  0.35877092315E+01  0.59811640696E+01  0.17770000000E+01 0.  1.
         15    1    1    2    0    0 -0.12888498453E+02 -0.18737314490E+02 -0.92975408568E+01  0.24633358311E+02  0.17770000000E+01 0. -1.
</event>
<event>
 6    1  0.1860328E-003  0.5015303E+03  0.7546771E-02  0.9396392E-01
        -11   -1    0    0    0    0  0.00000000000E+00  0.00000000000E+00  0.50000000000E+03  0.50000000000E+03  0.00000000000E+00 0.  1.
         11   -1    0    0    0    0 -0.00000000000E+00 -0.00000000000E+00 -0.50000000000E+03  0.50000000000E+03  0.00000000000E+00 0.  1.
        -11    1    1    2    0    0  0.12426167475E+02  0.44041668436E+01  0.49829528564E+03  0.49846965606E+03  0.00000000000E+00 0.  1.
         11    1    1    2    0    0 -0.11077723385E+01 -0.15850731183E+02 -0.20455038734E+03  0.20516660011E+03  0.00000000000E+00 0.  1.
        -15    1    1    2    0    0  0.12589044781E+01  0.99413237834E+01 -0.26115985410E+03  0.26135807216E+03  0.17770000000E+01 0.  1.
         15    1    1    2    0    0 -0.12577299615E+02  0.15052405562E+01 -0.32585044196E+02  0.35005671669E+02  0.17770000000E+01 0. -1.
</event>
<event>
 6    1  0.1860328E-003  0.5092119E+03  0.7546771E-02  0.9379430E-01
        -11   -1    0    0    0    0  0.00000000000E+00  0.00000000000E+00  0.50000000000E+03  0.50000000000E+03  0.00000000000E+00 0.  1.
         11   -1    0    0    0    0 -0.00000000000E+00 -0.00000000000E+00 -0.50000000000E+03  0.50000000000E+03  0.00000000000E+00 0. -1.
        -11    1    1    2    0    0 -0.54689750628E+01  0.62169950774E+01  0.49071824066E+03  0.49078809321E+03  0.00000000000E+00 0.  1.
         11    1    1    2    0    0 -0.75827094826E+00 -0.67236214289E+01 -0.48375228473E+03  0.48379960215E+03  0.00000000000E+00 0. -1.
        -15    1    1    2    0    0 -0.45841964855E+01 -0.67505246593E+01 -0.88128590321E+01  0.12141196560E+02  0.17770000000E+01 0.  1.
         15    1    1    2    0    0  0.10811442497E+02  0.72571510108E+01  0.18469030988E+01  0.13271108081E+02  0.17770000000E+01 0. -1.
</event>
<event>
 6    1  0.1860328E-003  0.5023212E+03  0.7546771E-02  0.9394631E-01
        -11   -1    0    0    0    0  0.00000000000E+00  0.00000000000E+00  0.50000000000E+03  0.50000000000E+03  0.00000000000E+00 0. -1.
         11   -1    0    0    0    0 -0.00000000000E+00 -0.00000000000E+00 -0.50000000000E+03  0.50000000000E+03  0.00000000000E+00 0.  1.
        -11    1    1    2    0    0 -0.21912685033E+02 -0.11736378480E+01  0.49719476716E+03  0.49767879167E+03  0.00000000000E+00 0. -1.
         11    1    1    2    0    0  0.15649610998E+01 -0.83514029118E+01 -0.43674111489E+03  0.43682375905E+03  0.00000000000E+00 0.  1.
        -15    1    1    2    0    0  0.32995384092E+01 -0.73954454686E+00 -0.36526616576E+01  0.52852195825E+01  0.17770000000E+01 0.  1.
         15    1    1    2    0    0  0.17048185524E+02  0.10264585307E+02 -0.56800990612E+02  0.60212229694E+02  0.17770000000E+01 0. -1.
</event>
<event>
 6    1  0.1860328E-003  0.5009072E+03  0.7546771E-02  0.9397782E-01
        -11   -1    0    0    0    0  0.00000000000E+00  0.00000000000E+00  0.50000000000E+03  0.50000000000E+03  0.00000000000E+00 0.  1.
         11   -1    0    0    0    0 -0.00000000000E+00 -0.00000000000E+00 -0.50000000000E+03  0.50000000000E+03  0.00000000000E+00 0.  1.
        -11    1    1    2    0    0  0.23930186182E+01  0.49312431616E+01  0.40417310562E+03  0.40421027078E+03  0.00000000000E+00 0.  1.
         11    1    1    2    0    0 -0.94896341409E+01 -0.19276834687E+01 -0.49899888225E+03  0.49909283065E+03  0.00000000000E+00 0.  1.
        -15    1    1    2    0    0  0.32260782950E-01 -0.76223861167E+01  0.21779949173E+02  0.23143589304E+02  0.17770000000E+01 0. -1.
         15    1    1    2    0    0  0.70643547397E+01  0.46188264238E+01  0.73045827459E+02  0.73553309264E+02  0.17770000000E+01 0.  1.
</event>
<event>
 6    1  0.1860328E-003  0.5034315E+03  0.7546771E-02  0.9392164E-01
        -11   -1    0    0    0    0  0.00000000000E+00  0.00000000000E+00  0.50000000000E+03  0.50000000000E+03  0.00000000000E+00 0.  1.
         11   -1    0    0    0    0 -0.00000000000E+00 -0.00000000000E+00 -0.50000000000E+03  0.50000000000E+03  0.00000000000E+00 0. -1.
        -11    1    1    2    0    0 -0.61355606975E+01  0.13744402950E+02  0.49634034892E+03  0.49656852063E+03  0.00000000000E+00 0.  1.
         11    1    1    2    0    0  0.33145179417E+01  0.64890793800E+01 -0.46058532422E+03  0.46064295834E+03  0.00000000000E+00 0. -1.
        -15    1    1    2    0    0  0.33083435525E+01 -0.30248543705E+01 -0.28281768738E+01  0.55902767779E+01  0.17770000000E+01 0. -1.
         15    1    1    2    0    0 -0.48730079663E+00 -0.17208627960E+02 -0.32926847824E+02  0.37198244245E+02  0.17770000000E+01 0.  1.
</event>
<event>
 6    1  0.1860328E-003  0.5041166E+03  0.7546771E-02  0.9390645E-01
        -11   -1    0    0    0    0  0.00000000000E+00  0.00000000000E+00  0.50000000000E+03  0.50000000000E+03  0.00000000000E+00 0.  1.
         11   -1    0    0    0    0 -0.00000000000E+00 -0.00000000000E+00 -0.50000000000E+03  0.50000000000E+03  0.00000000000E+00 0.  1.
        -11    1    1    2    0    0  0.45620385353E+01 -0.66634223391E+01  0.49581765153E+03  0.49588341066E+03  0.00000000000E+00 0.  1.
         11    1    1    2    0    0 -0.23944345697E+01  0.63683368045E+01 -0.41797113427E+03  0.41802650408E+03  0.00000000000E+00 0.  1.
        -15    1    1    2    0    0  0.18864782734E+01 -0.69060925830E+01  0.40107410090E+00  0.73872528369E+01  0.17770000000E+01 0. -1.
         15    1    1    2    0    0 -0.40540822390E+01  0.72011781176E+01 -0.78247591360E+02  0.78702832425E+02  0.17770000000E+01 0.  1.
</event>
<event>
 6    1  0.1860328E-003  0.5003412E+03  0.7546771E-02  0.9399047E-01
        -11   -1    0    0    0    0  0.00000000000E+00  0.00000000000E+00  0.50000000000E+03  0.50000000000E+03  0.00000000000E+00 0. -1.
         11   -1    0    0    0    0 -0.00000000000E+00 -0.00000000000E+00 -0.50000000000E+03  0.50000000000E+03  0.00000000000E+00 0.  1.
        -11    1    1    2    0    0  0.93327914396E-02  0.60368088867E+00  0.42393976988E+02  0.42398275939E+02  0.00000000000E+00 0. -1.
         11    1    1    2    0    0  0.38543829444E+01  0.12363875436E+02 -0.49949097625E+03  0.49965884065E+03  0.00000000000E+00 0.  1.
        -15    1    1    2    0    0  0.90333549913E+00 -0.14080236514E+02  0.12519954282E+03  0.12600457264E+03  0.17770000000E+01 0.  1.
         15    1    1    2    0    0 -0.47670512349E+01  0.11126801899E+01  0.33189745644E+03  0.33193831077E+03  0.17770000000E+01 0. -1.
</event>
<event>
 6    1  0.1860328E-003  0.4874236E+03  0.7546771E-02  0.9428399E-01
        -11   -1    0    0    0    0  0.00000000000E+00  0.00000000000E+00  0.50000000000E+03  0.50000000000E+03  0.00000000000E+00 0. -1.
         11   -1    0    0    0    0 -0.00000000000E+00 -0.00000000000E+00 -0.50000000000E+03  0.50000000000E+03  0.00000000000E+00 0. -1.
        -11    1    1    2    0    0  0.66340711751E+01  0.31152826722E+01  0.49247189571E+03  0.49252642970E+03  0.00000000000E+00 0. -1.
         11    1    1    2    0    0  0.69871013423E+01  0.70721071757E+01 -0.48241857852E+03  0.48252100388E+03  0.00000000000E+00 0. -1.
        -15    1    1    2    0    0 -0.13816790123E+02 -0.84109806564E+01 -0.13177013456E+02  0.20938951681E+02  0.17770000000E+01 0. -1.
         15    1    1    2    0    0  0.19561760556E+00 -0.17764091916E+01  0.31236962671E+01  0.40136147339E+01  0.17770000000E+01 0.  1.
</event>
<event>
 6    1  0.1860328E-003  0.5019943E+03  0.7546771E-02  0.9395358E-01
        -11   -1    0    0    0    0  0.00000000000E+00  0.00000000000E+00  0.50000000000E+03  0.50000000000E+03  0.00000000000E+00 0.  1.
         11   -1    0    0    0    0 -0.00000000000E+00 -0.00000000000E+00 -0.50000000000E+03  0.50000000000E+03  0.00000000000E+00 0. -1.
        -11    1    1    2    0    0  0.17629958697E+01  0.15292258285E+02  0.29676858947E+03  0.29716755713E+03  0.00000000000E+00 0.  1.
         11    1    1    2    0    0 -0.78957986717E+01 -0.15443019147E+01 -0.49794068278E+03  0.49800567474E+03  0.00000000000E+00 0. -1.
        -15    1    1    2    0    0  0.21708928082E+01 -0.18503413781E+02  0.19503584744E+03  0.19593169374E+03  0.17770000000E+01 0.  1.
         15    1    1    2    0    0  0.39619099938E+01  0.47554574105E+01  0.61362458747E+01  0.88950743908E+01  0.17770000000E+01 0. -1.
</event>
<event>
 6    1  0.1860328E-003  0.5127553E+03  0.7546771E-02  0.9371713E-01
        -11   -1    0    0    0    0  0.00000000000E+00  0.00000000000E+00  0.50000000000E+03  0.50000000000E+03  0.00000000000E+00 0.  1.
         11   -1    0    0    0    0 -0.00000000000E+00 -0.00000000000E+00 -0.50000000000E+03  0.50000000000E+03  0.00000000000E+00 0.  1.
        -11    1    1    2    0    0  0.14550860557E+02  0.66093725447E+01  0.40067782094E+03  0.40099641836E+03  0.00000000000E+00 0.  1.
         11    1    1    2    0    0 -0.10851795164E+02  0.14843972883E+01 -0.48712157892E+03  0.48724469986E+03  0.00000000000E+00 0.  1.
        -15    1    1    2    0    0  0.13114811465E+02 -0.25001093569E+02  0.82891871902E+02  0.87585804306E+02  0.17770000000E+01 0.  1.
         15    1    1    2    0    0 -0.16813876858E+02  0.16907323735E+02  0.35518860750E+01  0.24173077474E+02  0.17770000000E+01 0. -1.
</event>
<event>
 6    1  0.1860328E-003  0.5064949E+03  0.7546771E-02  0.9385393E-01
        -11   -1    0    0    0    0  0.00000000000E+00  0.00000000000E+00  0.50000000000E+03  0.50000000000E+03  0.00000000000E+00 0.  1.
         11   -1    0    0    0    0 -0.00000000000E+00 -0.00000000000E+00 -0.50000000000E+03  0.50000000000E+03  0.00000000000E+00 0. -1.
        -11    1    1    2    0    0  0.74917710769E+01  0.55216575737E-01  0.35585149001E+03  0.35593034799E+03  0.00000000000E+00 0.  1.
         11    1    1    2    0    0  0.13909563609E+02 -0.38176648605E+01 -0.49329430950E+03  0.49350514314E+03  0.00000000000E+00 0. -1.
        -15    1    1    2    0    0  0.13270920260E+02 -0.14999509915E+02  0.65405376091E+02  0.68426044550E+02  0.17770000000E+01 0. -1.
         15    1    1    2    0    0 -0.34672254946E+02  0.18761958199E+02  0.72037443403E+02  0.82138464313E+02  0.17770000000E+01 0.  1.
</event>
<event>
 6    1  0.1860328E-003  0.5014385E+03  0.7546771E-02  0.9396597E-01
        -11   -1    0    0    0    0  0.00000000000E+00  0.00000000000E+00  0.50000000000E+03  0.50000000000E+03  0.00000000000E+00 0.  1.
         11   -1    0    0    0    0 -0.00000000000E+00 -0.00000000000E+00 -0.50000000000E+03  0.50000000000E+03  0.00000000000E+00 0.  1.
        -11    1    1    2    0    0 -0.45275647874E+01 -0.44096563787E+01  0.25870766587E+03  0.25878485329E+03  0.00000000000E+00 0.  1.
         11    1    1    2    0    0  0.17747850876E+02  0.15400246903E+01 -0.49824310691E+03  0.49856148213E+03  0.00000000000E+00 0.  1.
        -15    1    1    2    0    0 -0.13191477033E+02  0.50947345266E+01  0.31226501633E+02  0.34325260661E+02  0.17770000000E+01 0. -1.
         15    1    1    2    0    0 -0.28809055291E-01 -0.22251028382E+01  0.20830893941E+03  0.20832840392E+03  0.17770000000E+01 0.  1.
</event>
<event>
 6    1  0.1860328E-003  0.5040484E+03  0.7546771E-02  0.9390796E-01
        -11   -1    0    0    0    0  0.00000000000E+00  0.00000000000E+00  0.50000000000E+03  0.50000000000E+03  0.00000000000E+00 0. -1.
         11   -1    0    0    0    0 -0.00000000000E+00 -0.00000000000E+00 -0.50000000000E+03  0.50000000000E+03  0.00000000000E+00 0.  1.
        -11    1    1    2    0    0 -0.12007439073E+02 -0.60925784033E+01  0.43546948547E+03  0.43567759970E+03  0.00000000000E+00 0. -1.
         11    1    1    2    0    0 -0.83052237217E+01  0.53267570425E+01 -0.49585342289E+03  0.49595157836E+03  0.00000000000E+00 0.  1.
        -15    1    1    2    0    0  0.12450632345E+02 -0.21104354807E+01  0.58141653561E+02  0.59523791811E+02  0.17770000000E+01 0. -1.
         15    1    1    2    0    0  0.78620304491E+01  0.28762568416E+01  0.22422838648E+01  0.88470301306E+01  0.17770000000E+01 0.  1.
</event>
<event>
 6    1  0.1860328E-003  0.5068388E+03  0.7546771E-02  0.9384636E-01
        -11   -1    0    0    0    0  0.00000000000E+00  0.00000000000E+00  0.50000000000E+03  0.50000000000E+03  0.00000000000E+00 0. -1.
         11   -1    0    0    0    0 -0.00000000000E+00 -0.00000000000E+00 -0.50000000000E+03  0.50000000000E+03  0.00000000000E+00 0. -1.
        -11    1    1    2    0    0 -0.45737543539E+01  0.51141939092E+01  0.48725470362E+03  0.48730300677E+03  0.00000000000E+00 0. -1.
         11    1    1    2    0    0  0.36521124407E+01 -0.65733935861E+01 -0.49310388465E+03  0.49316121957E+03  0.00000000000E+00 0. -1.
        -15    1    1    2    0    0  0.20933643504E+01 -0.31036972829E+01  0.11347453248E+02  0.12080460891E+02  0.17770000000E+01 0.  1.
         15    1    1    2    0    0 -0.11717224373E+01  0.45628969598E+01 -0.54982722190E+01  0.74553127721E+01  0.17770000000E+01 0. -1.
</event>
<event>
 6    1  0.1860328E-003  0.5026205E+03  0.7546771E-02  0.9393965E-01
        -11   -1    0    0    0    0  0.00000000000E+00  0.00000000000E+00  0.50000000000E+03  0.50000000000E+03  0.00000000000E+00 0.  1.
         11   -1    0    0    0    0 -0.00000000000E+00 -0.00000000000E+00 -0.50000000000E+03  0.50000000000E+03  0.00000000000E+00 0. -1.
        -11    1    1    2    0    0 -0.72893339967E+01 -0.14046802853E+02  0.30750784660E+02  0.34584068843E+02  0.00000000000E+00 0.  1.
         11    1    1    2    0    0 -0.54962778655E+01  0.76947782905E+01 -0.49728963796E+03  0.49737953587E+03  0.00000000000E+00 0. -1.
        -15    1    1    2    0    0  0.20006582179E+01 -0.97085950330E+01  0.32662741059E+03  0.32678262275E+03  0.17770000000E+01 0.  1.
         15    1    1    2    0    0  0.10784953644E+02  0.16060619596E+02  0.13991144271E+03  0.14125377254E+03  0.17770000000E+01 0. -1.
</event>
<event>
 6    1  0.1860328E-003  0.5007704E+03  0.7546771E-02  0.9398088E-01
        -11   -1    0    0    0    0  0.00000000000E+00  0.00000000000E+00  0.50000000000E+03  0.50000000000E+03  0.00000000000E+00 0. -1.
         11   -1    0    0    0    0 -0.00000000000E+00 -0.00000000000E+00 -0.50000000000E+03  0.50000000000E+03  0.00000000000E+00 0.  1.
        -11    1    1    2    0    0 -0.34673006442E+01 -0.26340884163E+01  0.24094679227E+03  0.24098613508E+03  0.00000000000E+00 0. -1.
         11    1    1    2    0    0  0.50949167501E+01 -0.89022438802E+01 -0.49912426728E+03  0.49922964887E+03  0.00000000000E+00 0.  1.
        -15    1    1    2    0    0  0.53999484971E+00  0.34026054784E+01  0.23546597839E+03  0.23549788540E+03  0.17770000000E+01 0. -1.
         15    1    1    2    0    0 -0.21676109557E+01  0.81337268182E+01  0.22711496611E+02  0.24286330651E+02  0.17770000000E+01 0.  1.
</event>
<event>
 6    1  0.1860328E-003  0.5223482E+03  0.7546771E-02  0.9351147E-01
        -11   -1    0    0    0    0  0.00000000000E+00  0.00000000000E+00  0.50000000000E+03  0.50000000000E+03  0.00000000000E+00 0. -1.
         11   -1    0    0    0    0 -0.00000000000E+00 -0.00000000000E+00 -0.50000000000E+03  0.50000000000E+03  0.00000000000E+00 0.  1.
        -11    1    1    2    0    0 -0.17631602596E+02  0.17183765288E+02  0.47701689590E+03  0.47765183363E+03  0.00000000000E+00 0. -1.
         11    1    1    2    0    0 -0.18867313884E+01  0.68914853597E+01 -0.18905011912E+03  0.18918509420E+03  0.00000000000E+00 0.  1.
        -15    1    1    2    0    0  0.58573780301E+01 -0.11864637858E+02 -0.30664646797E+03  0.30693695209E+03  0.17770000000E+01 0. -1.
         15    1    1    2    0    0  0.13660955955E+02 -0.12210612790E+02  0.18679691195E+02  0.26226120079E+02  0.17770000000E+01 0.  1.
</event>
<event>
 6    1  0.1860328E-003  0.5056582E+03  0.7546771E-02  0.9387237E-01
        -11   -1    0    0    0    0  0.00000000000E+00  0.00000000000E+00  0.50000000000E+03  0.50000000000E+03  0.00000000000E+00 0. -1.
         11   -1    0    0    0    0 -0.00000000000E+00 -0.00000000000E+00 -0.50000000000E+03  0.50000000000E+03  0.00000000000E+00 0. -1.
        -11    1    1    2    0    0  0.56076148775E+01  0.72943335092E+01  0.48105787278E+03  0.48114585066E+03  0.00000000000E+00 0. -1.
         11    1    1    2    0    0 -0.40183641775E+00  0.96035717456E+01 -0.49424830642E+03  0.49434176281E+03  0.00000000000E+00 0. -1.
        -15    1    1    2    0    0  0.29860647654E+01 -0.46237629014E+01  0.32995770665E+01  0.66588815855E+01  0.17770000000E+01 0. -1.
         15    1    1    2    0    0 -0.81918432252E+01 -0.12274142353E+02  0.98908565752E+01  0.17853504942E+02  0.17770000000E+01 0.  1.
</event>
<event>
 6    1  0.1860328E-003  0.4809176E+03  0.7546771E-02  0.9443550E-01
        -11   -1    0    0    0    0  0.00000000000E+00  0.00000000000E+00  0.50000000000E+03  0.50000000000E+03  0.00000000000E+00 0. -1.
         11   -1    0    0    0    0 -0.00000000000E+00 -0.00000000000E+00 -0.50000000000E+03  0.50000000000E+03  0.00000000000E+00 0.  1.
        -11    1    1    2    0    0 -0.17645233742E+01  0.98345438230E+01  0.47825688969E+03  0.47836124877E+03  0.00000000000E+00 0. -1.
         11    1    1    2    0    0  0.11944492807E+02 -0.94557311562E+01 -0.48330106607E+03  0.48354110707E+03  0.00000000000E+00 0.  1.
        -15    1    1    2    0    0 -0.75656700353E+01 -0.24209650133E+00 -0.15484263459E+02  0.17326803446E+02  0.17770000000E+01 0.  1.
         15    1    1    2    0    0 -0.26142993980E+01 -0.13671616552E+00  0.20528439842E+02  0.20770840715E+02  0.17770000000E+01 0. -1.
</event>
<event>
 6    1  0.1860328E-003  0.5003867E+03  0.7546771E-02  0.9398945E-01
        -11   -1    0    0    0    0  0.00000000000E+00  0.00000000000E+00  0.50000000000E+03  0.50000000000E+03  0.00000000000E+00 0.  1.
         11   -1    0    0    0    0 -0.00000000000E+00 -0.00000000000E+00 -0.50000000000E+03  0.50000000000E+03  0.00000000000E+00 0.  1.
        -11    1    1    2    0    0 -0.48656289724E+01  0.88187710230E+01  0.49951175137E+03  0.49961328527E+03  0.00000000000E+00 0.  1.
         11    1    1    2    0    0 -0.41773843610E+01  0.13459545712E+01 -0.19202547860E+03  0.19207562720E+03  0.00000000000E+00 0.  1.
        -15    1    1    2    0    0  0.10450966730E+02 -0.72584323254E+01 -0.10388431646E+03  0.10467576836E+03  0.17770000000E+01 0.  1.
         15    1    1    2    0    0 -0.14079533966E+01 -0.29062932688E+01 -0.20360195630E+03  0.20363531916E+03  0.17770000000E+01 0. -1.
</event>
<event>
 6    1  0.1860328E-003  0.5258536E+03  0.7546771E-02  0.9343749E-01
        -11   -1    0    0    0    0  0.00000000000E+00  0.00000000000E+00  0.50000000000E+03  0.50000000000E+03  0.00000000000E+00 0.  1.
         11   -1    0    0    0    0 -0.00000000000E+00 -0.00000000000E+00 -0.50000000000E+03  0.50000000000E+03  0.00000000000E+00 0. -1.
        -11    1    1    2    0    0  0.54660665734E+01 -0.38156103408E+02  0.47257704030E+03  0.47414641739E+03  0.00000000000E+00 0.  1.
         11    1    1    2    0    0  0.59613974515E+00 -0.58651146778E+01 -0.75098880076E+02  0.75329919298E+02  0.00000000000E+00 0. -1.
        -15    1    1    2    0    0 -0.15987912762E+01  0.35634962136E+02  0.14417008561E+02  0.38515120729E+02  0.17770000000E+01 0.  1.
         15    1    1    2    0    0 -0.44634150423E+01  0.83862559501E+01 -0.41189516878E+03  0.41200854258E+03  0.17770000000E+01 0. -1.
</event>
<event>
 6    1  0.1860328E-003  0.4642504E+03  0.7546771E-02  0.9483559E-01
        -11   -1    0    0    0    0  0.00000000000E+00  0.00000000000E+00  0.50000000000E+03  0.50000000000E+03  0.00000000000E+00 0. -1.
         11   -1    0    0    0    0 -0.00000000000E+00 -0.00000000000E+00 -0.50000000000E+03  0.50000000000E+03  0.00000000000E+00 0.  1.
        -11    1    1    2    0    0  0.49270215056E+01 -0.11828009159E+02  0.47088077660E+03  0.47105507439E+03  0.00000000000E+00 0. -1.
         11    1    1    2    0    0  0.29115379106E+02  0.20754300568E+02 -0.45682173282E+03  0.45821887987E+03  0.00000000000E+00 0.  1.
        -15    1    1    2    0    0 -0.27028271032E+02  0.21540610245E+02 -0.18262944322E+02  0.39130783138E+02  0.17770000000E+01 0.  1.
         15    1    1    2    0    0 -0.70141295800E+01 -0.30466901654E+02  0.42039005418E+01  0.31595262602E+02  0.17770000000E+01 0. -1.
</event>
<event>
 6    1  0.1860328E-003  0.5106826E+03  0.7546771E-02  0.9376219E-01
        -11   -1    0    0    0    0  0.00000000000E+00  0.00000000000E+00  0.50000000000E+03  0.50000000000E+03  0.00000000000E+00 0. -1.
         11   -1    0    0    0    0 -0.00000000000E+00 -0.00000000000E+00 -0.50000000000E+03  0.50000000000E+03  0.00000000000E+00 0.  1.
        -11    1    1    2    0    0  0.17644722659E+02 -0.23908946147E+02  0.42785786363E+03  0.42888847666E+03  0.00000000000E+00 0. -1.
         11    1    1    2    0    0  0.64717516515E+01 -0.20500567497E+01 -0.48927028366E+03  0.48931737837E+03  0.00000000000E+00 0.  1.
        -15    1    1    2    0    0 -0.80400991624E+00  0.28754623791E+02  0.43619422246E+02  0.52280843025E+02  0.17770000000E+01 0.  1.
         15    1    1    2    0    0 -0.23312464394E+02 -0.27956208950E+01  0.17792997783E+02  0.29513301941E+02  0.17770000000E+01 0.  1.
</event>
<event>
 6    1  0.1860328E-003  0.5020202E+03  0.7546771E-02  0.9395301E-01
        -11   -1    0    0    0    0  0.00000000000E+00  0.00000000000E+00  0.50000000000E+03  0.50000000000E+03  0.00000000000E+00 0. -1.
         11   -1    0    0    0    0 -0.00000000000E+00 -0.00000000000E+00 -0.50000000000E+03  0.50000000000E+03  0.00000000000E+00 0.  1.
        -11    1    1    2    0    0 -0.13985121308E+02  0.66191714858E+01  0.49773938540E+03  0.49797981167E+03  0.00000000000E+00 0. -1.
         11    1    1    2    0    0  0.39626708706E+00 -0.10674656700E+02 -0.43151805284E+03  0.43165024643E+03  0.00000000000E+00 0.  1.
        -15    1    1    2    0    0  0.10503880087E+02  0.11401745608E+02 -0.41578958485E+02  0.44410571011E+02  0.17770000000E+01 0. -1.
         15    1    1    2    0    0  0.30849741340E+01 -0.73462603948E+01 -0.24642374084E+02  0.25959370884E+02  0.17770000000E+01 0.  1.
</event>
<event>
 6    1  0.1860328E-003  0.5035352E+03  0.7546771E-02  0.9391934E-01
        -11   -1    0    0    0    0  0.00000000000E+00  0.00000000000E+00  0.50000000000E+03  0.50000000000E+03  0.00000000000E+00 0. -1.
         11   -1    0    0    0    0 -0.00000000000E+00 -0.00000000000E+00 -0.50000000000E+03  0.50000000000E+03  0.00000000000E+00 0. -1.
        -11    1    1    2    0    0 -0.48042673164E+01 -0.13840913998E+02  0.49624860392E+03  0.49646483136E+03  0.00000000000E+00 0. -1.
         11    1    1    2    0    0 -0.16408387405E+02  0.21470847173E+01 -0.38855072816E+03  0.38890296155E+03  0.00000000000E+00 0. -1.
        -15    1    1    2    0    0  0.13460256058E+02  0.22197641770E+02 -0.74638674702E+02  0.79044312152E+02  0.17770000000E+01 0.  1.
         15    1    1    2    0    0  0.77523986643E+01 -0.10503812489E+02 -0.33059201064E+02  0.35587894934E+02  0.17770000000E+01 0. -1.
</event>
<event>
 6    1  0.1860328E-003  0.5160971E+03  0.7546771E-02  0.9364495E-01
        -11   -1    0    0    0    0  0.00000000000E+00  0.00000000000E+00  0.50000000000E+03  0.50000000000E+03  0.00000000000E+00 0. -1.
         11   -1    0    0    0    0 -0.00000000000E+00 -0.00000000000E+00 -0.50000000000E+03  0.50000000000E+03  0.00000000000E+00 0. -1.
        -11    1    1    2    0    0 -0.19298353491E+02  0.32034693361E+02  0.38459782880E+03  0.38641187603E+03  0.00000000000E+00 0. -1.
         11    1    1    2    0    0  0.69518815024E+01  0.10364580511E+02 -0.48374196490E+03  0.48390292600E+03  0.00000000000E+00 0. -1.
        -15    1    1    2    0    0  0.17529693390E+02 -0.35201933342E+02  0.10924792909E+03  0.11612378740E+03  0.17770000000E+01 0. -1.
         15    1    1    2    0    0 -0.51832214017E+01 -0.71973405299E+01 -0.10103792990E+02  0.13561410568E+02  0.17770000000E+01 0.  1.
</event>
<event>
 6    1  0.1860328E-003  0.5008161E+03  0.7546771E-02  0.9397985E-01
        -11   -1    0    0    0    0  0.00000000000E+00  0.00000000000E+00  0.50000000000E+03  0.50000000000E+03  0.00000000000E+00 0.  1.
         11   -1    0    0    0    0 -0.00000000000E+00 -0.00000000000E+00 -0.50000000000E+03  0.50000000000E+03  0.00000000000E+00 0.  1.
        -11    1    1    2    0    0 -0.26719147012E+01 -0.13385913601E+01  0.12989981253E+03  0.12993418430E+03  0.00000000000E+00 0.  1.
         11    1    1    2    0    0 -0.53478992588E+01  0.11755555267E+02 -0.49901678513E+03  0.49918387890E+03  0.00000000000E+00 0.  1.
        -15    1    1    2    0    0  0.13085309961E+02 -0.16062144617E+02  0.34295518248E+03  0.34358497165E+03  0.17770000000E+01 0.  1.
         15    1    1    2    0    0 -0.50654960011E+01  0.56451807097E+01  0.26161790124E+02  0.27296965152E+02  0.17770000000E+01 0. -1.
</event>
<event>
 6    1  0.1860328E-003  0.5022251E+03  0.7546771E-02  0.9394845E-01
        -11   -1    0    0    0    0  0.00000000000E+00  0.00000000000E+00  0.50000000000E+03  0.50000000000E+03  0.00000000000E+00 0. -1.
         11   -1    0    0    0    0 -0.00000000000E+00 -0.00000000000E+00 -0.50000000000E+03  0.50000000000E+03  0.00000000000E+00 0. -1.
        -11    1    1    2    0    0 -0.72257660980E+01  0.80333741073E+00  0.49772179611E+03  0.49777489227E+03  0.00000000000E+00 0. -1.
         11    1    1    2    0    0  0.14865041892E+00 -0.74438858923E+01 -0.42396684196E+03  0.42403221177E+03  0.00000000000E+00 0. -1.
        -15    1    1    2    0    0  0.14877985024E+02  0.18396032020E+01 -0.31642384124E+02  0.35059047054E+02  0.17770000000E+01 0.  1.
         15    1    1    2    0    0 -0.78008693449E+01  0.48009452795E+01 -0.42112570030E+02  0.43133848908E+02  0.17770000000E+01 0. -1.
</event>
<event>
 6    1  0.1860328E-003  0.5008811E+03  0.7546771E-02  0.9397840E-01
        -11   -1    0    0    0    0  0.00000000000E+00  0.00000000000E+00  0.50000000000E+03  0.50000000000E+03  0.00000000000E+00 0. -1.
         11   -1    0    0    0    0 -0.00000000000E+00 -0.00000000000E+00 -0.50000000000E+03  0.50000000000E+03  0.00000000000E+00 0. -1.
        -11    1    1    2    0    0 -0.63578283323E+01  0.19103349678E+01  0.43275460352E+03  0.43280552010E+03  0.00000000000E+00 0. -1.
         11    1    1    2    0    0  0.69788878600E+01 -0.82323568574E+01 -0.49900221089E+03  0.49911890673E+03  0.00000000000E+00 0. -1.
        -15    1    1    2    0    0  0.61845838486E+01  0.50404591467E+00  0.23974693326E+02  0.24828346477E+02  0.17770000000E+01 0. -1.
         15    1    1    2    0    0 -0.68056433763E+01  0.58179759750E+01  0.42272914046E+02  0.43247226699E+02  0.17770000000E+01 0.  1.
</event>
<event>
 6    1  0.1860328E-003  0.5051674E+03  0.7546771E-02  0.9388321E-01
        -11   -1    0    0    0    0  0.00000000000E+00  0.00000000000E+00  0.50000000000E+03  0.50000000000E+03  0.00000000000E+00 0. -1.
         11   -1    0    0    0    0 -0.00000000000E+00 -0.00000000000E+00 -0.50000000000E+03  0.50000000000E+03  0.00000000000E+00 0. -1.
        -11    1    1    2    0    0  0.69937170197E+01 -0.71781374325E+01  0.49473112307E+03  0.49483262006E+03  0.00000000000E+00 0. -1.
         11    1    1    2    0    0  0.27737751447E+01  0.58732111734E+01 -0.44846600803E+03  0.44851304195E+03  0.00000000000E+00 0. -1.
        -15    1    1    2    0    0 -0.66087708322E+01 -0.19216361677E+01  0.25851368668E+01  0.75636762948E+01  0.17770000000E+01 0.  1.
         15    1    1    2    0    0 -0.31587213323E+01  0.32265624268E+01 -0.48850251911E+02  0.49090661702E+02  0.17770000000E+01 0. -1.
</event>
<event>
 6    1  0.1860328E-003  0.4848198E+03  0.7546771E-02  0.9434432E-01
        -11   -1    0    0    0    0  0.00000000000E+00  0.00000000000E+00  0.50000000000E+03  0.50000000000E+03  0.00000000000E+00 0. -1.
         11   -1    0    0    0    0 -0.00000000000E+00 -0.00000000000E+00 -0.50000000000E+03  0.50000000000E+03  0.00000000000E+00 0. -1.
        -11    1    1    2    0    0  0.84392111868E+00  0.78582192004E+00  0.51255484870E+02  0.51268454708E+02  0.00000000000E+00 0. -1.
         11    1    1    2    0    0  0.13231627396E+02 -0.14023387389E+02 -0.48782347317E+03  0.48820433461E+03  0.00000000000E+00 0. -1.
        -15    1    1    2    0    0 -0.57908696606E+02 -0.42554071587E+02  0.27134680872E+03  0.28070716857E+03  0.17770000000E+01 0. -1.
         15    1    1    2    0    0  0.43833148091E+02  0.55791637056E+02  0.16522117957E+03  0.17982004211E+03  0.17770000000E+01 0.  1.
</event>
<event>
 6    1  0.1860328E-003  0.5073217E+03  0.7546771E-02  0.9383574E-01
        -11   -1    0    0    0    0  0.00000000000E+00  0.00000000000E+00  0.50000000000E+03  0.50000000000E+03  0.00000000000E+00 0.  1.
         11   -1    0    0    0    0 -0.00000000000E+00 -0.00000000000E+00 -0.50000000000E+03  0.50000000000E+03  0.00000000000E+00 0. -1.
        -11    1    1    2    0    0  0.45640558537E+02  0.35369801148E+02  0.48928300616E+03  0.49267833678E+03  0.00000000000E+00 0.  1.
         11    1    1    2    0    0 -0.53488855314E+01 -0.16315007926E+01 -0.33560176583E+03  0.33564835408E+03  0.00000000000E+00 0. -1.
        -15    1    1    2    0    0 -0.35552007930E+02 -0.33538263829E+02 -0.58041483935E+02  0.75899486130E+02  0.17770000000E+01 0.  1.
         15    1    1    2    0    0 -0.47396650760E+01 -0.20003652683E+00 -0.95639756400E+02  0.95773823004E+02  0.17770000000E+01 0. -1.
</event>
<event>
 6    1  0.1860328E-003  0.5002928E+03  0.7546771E-02  0.9399155E-01
        -11   -1    0    0    0    0  0.00000000000E+00  0.00000000000E+00  0.50000000000E+03  0.50000000000E+03  0.00000000000E+00 0. -1.
         11   -1    0    0    0    0 -0.00000000000E+00 -0.00000000000E+00 -0.50000000000E+03  0.50000000000E+03  0.00000000000E+00 0.  1.
        -11    1    1    2    0    0  0.12420922573E+01 -0.26522901458E+01  0.16465119975E+03  0.16467724498E+03  0.00000000000E+00 0. -1.
         11    1    1    2    0    0 -0.66562107745E+01 -0.71737344583E+01 -0.49961136509E+03  0.49970719800E+03  0.00000000000E+00 0.  1.
        -15    1    1    2    0    0 -0.47738090966E+01 -0.40720501254E+00  0.44727448375E+02  0.45018412193E+02  0.17770000000E+01 0.  1.
         15    1    1    2    0    0  0.10187927614E+02  0.10233229617E+02  0.29023271696E+03  0.29059714482E+03  0.17770000000E+01 0. -1.
</event>
<event>
 6    1  0.1860328E-003  0.5049549E+03  0.7546771E-02  0.9388790E-01
        -11   -1    0    0    0    0  0.00000000000E+00  0.00000000000E+00  0.50000000000E+03  0.50000000000E+03  0.00000000000E+00 0. -1.
         11   -1    0    0    0    0 -0.00000000000E+00 -0.00000000000E+00 -0.50000000000E+03  0.50000000000E+03  0.00000000000E+00 0. -1.
        -11    1    1    2    0    0  0.47129608267E+01  0.55469259511E+01  0.46212696604E+03  0.46218428481E+03  0.00000000000E+00 0. -1.
         11    1    1    2    0    0  0.40741692699E+01 -0.53277660871E+01 -0.49499965341E+03  0.49504508968E+03  0.00000000000E+00 0. -1.
        -15    1    1    2    0    0 -0.10456599158E+02  0.54942838567E+01  0.34365082148E+02  0.36381921625E+02  0.17770000000E+01 0.  1.
         15    1    1    2    0    0  0.16694690619E+01 -0.57134437207E+01 -0.14923947786E+01  0.63887038806E+01  0.17770000000E+01 0. -1.
</event>
<event>
 6    1  0.1860328E-003  0.5019560E+03  0.7546771E-02  0.9395444E-01
        -11   -1    0    0    0    0  0.00000000000E+00  0.00000000000E+00  0.50000000000E+03  0.50000000000E+03  0.00000000000E+00 0. -1.
         11   -1    0    0    0    0 -0.00000000000E+00 -0.00000000000E+00 -0.50000000000E+03  0.50000000000E+03  0.00000000000E+00 0. -1.
        -11    1    1    2    0    0  0.24734091046E+01  0.11393036164E+02  0.49790753009E+03  0.49804400162E+03  0.00000000000E+00 0. -1.
         11    1    1    2    0    0  0.47719962801E+01 -0.65065528056E+01 -0.40042385072E+03  0.40050514030E+03  0.00000000000E+00 0. -1.
        -15    1    1    2    0    0 -0.43215210414E+01  0.26094553700E+01 -0.90475694260E+02  0.90633844574E+02  0.17770000000E+01 0. -1.
         15    1    1    2    0    0 -0.29238843433E+01 -0.74959387282E+01 -0.70079851090E+01  0.10817013514E+02  0.17770000000E+01 0.  1.
</event>
<event>
 6    1  0.1860328E-003  0.5002775E+03  0.7546771E-02  0.9399189E-01
        -11   -1    0    0    0    0  0.00000000000E+00  0.00000000000E+00  0.50000000000E+03  0.50000000000E+03  0.00000000000E+00 0. -1.
         11   -1    0    0    0    0 -0.00000000000E+00 -0.00000000000E+00 -0.50000000000E+03  0.50000000000E+03  0.00000000000E+00 0. -1.
        -11    1    1    2    0    0  0.85053787481E+01  0.44254001505E+01  0.49963049298E+03  0.49972247813E+03  0.00000000000E+00 0. -1.
         11    1    1    2    0    0 -0.12570823066E+02 -0.29506935127E+01 -0.38751467387E+03  0.38772974435E+03  0.00000000000E+00 0. -1.
        -15    1    1    2    0    0  0.60800158652E+01  0.60825065893E+00 -0.65601699184E+02  0.65909614068E+02  0.17770000000E+01 0. -1.
         15    1    1    2    0    0 -0.20145715470E+01 -0.20829572967E+01 -0.46514119921E+02  0.46638163457E+02  0.17770000000E+01 0.  1.
</event>
<event>
 6    1  0.1860328E-003  0.5000759E+03  0.7546771E-02  0.9399640E-01
        -11   -1    0    0    0    0  0.00000000000E+00  0.00000000000E+00  0.50000000000E+03  0.50000000000E+03  0.00000000000E+00 0. -1.
         11   -1    0    0    0    0 -0.00000000000E+00 -0.00000000000E+00 -0.50000000000E+03  0.50000000000E+03  0.00000000000E+00 0.  1.
        -11    1    1    2    0    0 -0.40851559626E+00  0.17565897110E+01  0.94362834644E+02  0.94380067040E+02  0.00000000000E+00 0. -1.
         11    1    1    2    0    0 -0.85671848594E+01 -0.33707099679E+01 -0.49983930914E+03  0.49992408754E+03  0.00000000000E+00 0.  1.
        -15    1    1    2    0    0  0.46634556144E+01 -0.21390834257E+00  0.33674880064E+03  0.33678584596E+03  0.17770000000E+01 0.  1.
         15    1    1    2    0    0  0.43122448412E+01  0.18280285995E+01  0.68727673849E+02  0.68909999462E+02  0.17770000000E+01 0. -1.
</event>
<event>
 6    1  0.1860328E-003  0.5456897E+03  0.7546771E-02  0.9303006E-01
        -11   -1    0    0    0    0  0.00000000000E+00  0.00000000000E+00  0.50000000000E+03  0.50000000000E+03  0.00000000000E+00 0.  1.
         11   -1    0    0    0    0 -0.00000000000E+00 -0.00000000000E+00 -0.50000000000E+03  0.50000000000E+03  0.00000000000E+00 0.  1.
        -11    1    1    2    0    0 -0.63662900991E+01 -0.11730710346E+01  0.27993989858E+03  0.28001473633E+03  0.00000000000E+00 0.  1.
         11    1    1    2    0    0 -0.16032812294E+01 -0.20081278204E+02 -0.45386343668E+03  0.45431029859E+03  0.00000000000E+00 0.  1.
        -15    1    1    2    0    0  0.24437143198E+01 -0.77407879662E+00  0.21695935949E+03  0.21698177882E+03  0.17770000000E+01 0. -1.
         15    1    1    2    0    0  0.55258570088E+01  0.22028428035E+02 -0.43035821388E+02  0.48693186268E+02  0.17770000000E+01 0.  1.
</event>
<event>
 6    1  0.1860328E-003  0.5093405E+03  0.7546771E-02  0.9379149E-01
        -11   -1    0    0    0    0  0.00000000000E+00  0.00000000000E+00  0.50000000000E+03  0.50000000000E+03  0.00000000000E+00 0.  1.
         11   -1    0    0    0    0 -0.00000000000E+00 -0.00000000000E+00 -0.50000000000E+03  0.50000000000E+03  0.00000000000E+00 0. -1.
        -11    1    1    2    0    0  0.68059322952E+01  0.49888248510E+01  0.49058690948E+03  0.49065947952E+03  0.00000000000E+00 0.  1.
         11    1    1    2    0    0  0.61203106003E+00  0.85547724623E+01 -0.47785779462E+03  0.47793475558E+03  0.00000000000E+00 0. -1.
        -15    1    1    2    0    0 -0.16218041076E+02 -0.89576907450E+01 -0.77404224778E+01  0.20157801194E+02  0.17770000000E+01 0.  1.
         15    1    1    2    0    0  0.88000777208E+01 -0.45859065683E+01 -0.49886923848E+01  0.11247963712E+02  0.17770000000E+01 0.  1.
</event>
<event>
 6    1  0.1860328E-003  0.5002360E+03  0.7546771E-02  0.9399282E-01
        -11   -1    0    0    0    0  0.00000000000E+00  0.00000000000E+00  0.50000000000E+03  0.50000000000E+03  0.00000000000E+00 0.  1.
         11   -1    0    0    0    0 -0.00000000000E+00 -0.00000000000E+00 -0.50000000000E+03  0.50000000000E+03  0.00000000000E+00 0.  1.
        -11    1    1    2    0    0  0.20440628380E+01 -0.14792682763E+01  0.17764488004E+03  0.17766279811E+03  0.00000000000E+00 0.  1.
         11    1    1    2    0    0 -0.68814859135E+01 -0.26655619284E+00 -0.49971654874E+03  0.49976399929E+03  0.00000000000E+00 0.  1.
        -15    1    1    2    0    0  0.85165383690E+01  0.57805139268E+01  0.13118283399E+03  0.13159802214E+03  0.17770000000E+01 0. -1.
         15    1    1    2    0    0 -0.36791152935E+01 -0.40346894577E+01  0.19088883471E+03  0.19097518047E+03  0.17770000000E+01 0.  1.
</event>
<event>
 6    1  0.1860328E-003  0.4858323E+03  0.7546771E-02  0.9432081E-01
        -11   -1    0    0    0    0  0.00000000000E+00  0.00000000000E+00  0.50000000000E+03  0.50000000000E+03  0.00000000000E+00 0. -1.
         11   -1    0    0    0    0 -0.00000000000E+00 -0.00000000000E+00 -0.50000000000E+03  0.50000000000E+03  0.00000000000E+00 0.  1.
        -11    1    1    2    0    0 -0.43748335744E+01  0.11959559154E+02  0.48783397172E+03  0.48800015798E+03  0.00000000000E+00 0. -1.
         11    1    1    2    0    0 -0.32210838561E+01  0.82772684207E+01 -0.48383150778E+03  0.48391302573E+03  0.00000000000E+00 0.  1.
        -15    1    1    2    0    0 -0.48889280582E+01 -0.19300933714E+01 -0.35502912506E+00  0.55597349451E+01  0.17770000000E+01 0.  1.
         15    1    1    2    0    0  0.12484845489E+02 -0.18306734203E+02 -0.36474348227E+01  0.22527081343E+02  0.17770000000E+01 0. -1.
</event>
<event>
 6    1  0.1860328E-003  0.4825777E+03  0.7546771E-02  0.9439660E-01
        -11   -1    0    0    0    0  0.00000000000E+00  0.00000000000E+00  0.50000000000E+03  0.50000000000E+03  0.00000000000E+00 0.  1.
         11   -1    0    0    0    0 -0.00000000000E+00 -0.00000000000E+00 -0.50000000000E+03  0.50000000000E+03  0.00000000000E+00 0. -1.
        -11    1    1    2    0    0 -0.93952480249E+01  0.11574061068E+02  0.48130402604E+03  0.48153483266E+03  0.00000000000E+00 0.  1.
         11    1    1    2    0    0 -0.57039020305E+01 -0.31802984858E+01 -0.48373416799E+03  0.48377824887E+03  0.00000000000E+00 0. -1.
        -15    1    1    2    0    0  0.12643099449E+02 -0.75030897016E+01  0.15383909865E+02  0.21353377496E+02  0.17770000000E+01 0.  1.
         15    1    1    2    0    0  0.24560506061E+01 -0.89067288096E+00 -0.12953767919E+02  0.13333540980E+02  0.17770000000E+01 0. -1.
</event>
<event>
 6    1  0.1860328E-003  0.5002189E+03  0.7546771E-02  0.9399320E-01
        -11   -1    0    0    0    0  0.00000000000E+00  0.00000000000E+00  0.50000000000E+03  0.50000000000E+03  0.00000000000E+00 0.  1.
         11   -1    0    0    0    0 -0.00000000000E+00 -0.00000000000E+00 -0.50000000000E+03  0.50000000000E+03  0.00000000000E+00 0.  1.
        -11    1    1    2    0    0  0.73934335917E+01 -0.16891280588E+01  0.31953350226E+03  0.31962348956E+03  0.00000000000E+00 0.  1.
         11    1    1    2    0    0 -0.24172969424E+01  0.65942853991E+01 -0.49973171437E+03  0.49978106634E+03  0.00000000000E+00 0.  1.
        -15    1    1    2    0    0 -0.33534573322E+01  0.18183062659E+01  0.41317796583E+02  0.41531553754E+02  0.17770000000E+01 0. -1.
         15    1    1    2    0    0 -0.16226793171E+01 -0.67234636062E+01  0.13888041553E+03  0.13906389035E+03  0.17770000000E+01 0.  1.
</event>
<event>
 6    1  0.1860328E-003  0.5010503E+03  0.7546771E-02  0.9397463E-01
        -11   -1    0    0    0    0  0.00000000000E+00  0.00000000000E+00  0.50000000000E+03  0.50000000000E+03  0.00000000000E+00 0. -1.
         11   -1    0    0    0    0 -0.00000000000E+00 -0.00000000000E+00 -0.50000000000E+03  0.50000000000E+03  0.00000000000E+00 0.  1.
        -11    1    1    2    0    0 -0.99670828778E+01 -0.58375939141E+01  0.49881598399E+03  0.49894970300E+03  0.00000000000E+00 0. -1.
         11    1    1    2    0    0 -0.55504907270E+01  0.20214819952E+01 -0.39864509331E+03  0.39868885707E+03  0.00000000000E+00 0.  1.
        -15    1    1    2    0    0  0.91851243776E+01 -0.42650250987E+01 -0.40315196946E+02  0.41605646044E+02  0.17770000000E+01 0. -1.
         15    1    1    2    0    0  0.63324492271E+01  0.80811370176E+01 -0.59855693733E+02  0.60755793880E+02  0.17770000000E+01 0.  1.
</event>
<event>
 6    1  0.1860328E-003  0.5048167E+03  0.7546771E-02  0.9389096E-01
        -11   -1    0    0    0    0  0.00000000000E+00  0.00000000000E+00  0.50000000000E+03  0.50000000000E+03  0.00000000000E+00 0. -1.
         11   -1    0    0    0    0 -0.00000000000E+00 -0.00000000000E+00 -0.50000000000E+03  0.50000000000E+03  0.00000000000E+00 0.  1.
        -11    1    1    2    0    0 -0.98673629117E+01 -0.19872826445E+00  0.42937651891E+03  0.42948992926E+03  0.00000000000E+00 0. -1.
         11    1    1    2    0    0 -0.10396039100E+02 -0.18755005467E+01 -0.49507056429E+03  0.49518325775E+03  0.00000000000E+00 0.  1.
        -15    1    1    2    0    0  0.15356121297E+02  0.63662661370E+01  0.10546439531E+02  0.19766763053E+02  0.17770000000E+01 0.  1.
         15    1    1    2    0    0  0.49072807153E+01 -0.42920373258E+01  0.55147605855E+02  0.55560049936E+02  0.17770000000E+01 0. -1.
</event>
<event>
 6    1  0.1860328E-003  0.5023672E+03  0.7546771E-02  0.9394529E-01
        -11   -1    0    0    0    0  0.00000000000E+00  0.00000000000E+00  0.50000000000E+03  0.50000000000E+03  0.00000000000E+00 0.  1.
         11   -1    0    0    0    0 -0.00000000000E+00 -0.00000000000E+00 -0.50000000000E+03  0.50000000000E+03  0.00000000000E+00 0.  1.
        -11    1    1    2    0    0 -0.49798447588E+01  0.47651134838E+01  0.21022926640E+03  0.21034222023E+03  0.00000000000E+00 0.  1.
         11    1    1    2    0    0 -0.14760550547E+02  0.36719680032E+01 -0.49740033442E+03  0.49763284647E+03  0.00000000000E+00 0.  1.
        -15    1    1    2    0    0 -0.13792939945E+02 -0.13117123989E+02  0.10376052906E+03  0.10550691567E+03  0.17770000000E+01 0.  1.
         15    1    1    2    0    0  0.33533335250E+02  0.46800425015E+01  0.18341053896E+03  0.18651801763E+03  0.17770000000E+01 0. -1.
</event>
<event>
 6    1  0.1860328E-003  0.5062876E+03  0.7546771E-02  0.9385850E-01
        -11   -1    0    0    0    0  0.00000000000E+00  0.00000000000E+00  0.50000000000E+03  0.50000000000E+03  0.00000000000E+00 0.  1.
         11   -1    0    0    0    0 -0.00000000000E+00 -0.00000000000E+00 -0.50000000000E+03  0.50000000000E+03  0.00000000000E+00 0.  1.
        -11    1    1    2    0    0 -0.29197241658E+01 -0.10775847737E+02  0.49358614862E+03  0.49371239582E+03  0.00000000000E+00 0.  1.
         11    1    1    2    0    0  0.96906509977E+01  0.88210471824E+01 -0.45408005669E+03  0.45426910248E+03  0.00000000000E+00 0.  1.
        -15    1    1    2    0    0 -0.39909692515E+01  0.51413462379E+01  0.42819442791E+01  0.79908730758E+01  0.17770000000E+01 0. -1.
         15    1    1    2    0    0 -0.27799575804E+01 -0.31865456836E+01 -0.43788036209E+02  0.44027628616E+02  0.17770000000E+01 0.  1.
</event>
<event>
 6    1  0.1860328E-003  0.4839653E+03  0.7546771E-02  0.9436421E-01
        -11   -1    0    0    0    0  0.00000000000E+00  0.00000000000E+00  0.50000000000E+03  0.50000000000E+03  0.00000000000E+00 0. -1.
         11   -1    0    0    0    0 -0.00000000000E+00 -0.00000000000E+00 -0.50000000000E+03  0.50000000000E+03  0.00000000000E+00 0. -1.
        -11    1    1    2    0    0  0.10778574142E+02  0.53930791117E+01  0.48942095396E+03  0.48956933435E+03  0.00000000000E+00 0. -1.
         11    1    1    2    0    0  0.94499433884E+01 -0.10904984575E+02 -0.47843313732E+03  0.47865069414E+03  0.00000000000E+00 0. -1.
        -15    1    1    2    0    0 -0.61716051484E+01 -0.23947906879E+01  0.53944365049E+01  0.87224656349E+01  0.17770000000E+01 0. -1.
         15    1    1    2    0    0 -0.14056912382E+02  0.79066961513E+01 -0.16382253147E+02  0.23057505869E+02  0.17770000000E+01 0.  1.
</event>
<event>
 6    1  0.1860328E-003  0.5092056E+03  0.7546771E-02  0.9379444E-01
        -11   -1    0    0    0    0  0.00000000000E+00  0.00000000000E+00  0.50000000000E+03  0.50000000000E+03  0.00000000000E+00 0. -1.
         11   -1    0    0    0    0 -0.00000000000E+00 -0.00000000000E+00 -0.50000000000E+03  0.50000000000E+03  0.00000000000E+00 0.  1.
        -11    1    1    2    0    0  0.19649749588E+02  0.19253107845E+01  0.49039710207E+03  0.49079439402E+03  0.00000000000E+00 0. -1.
         11    1    1    2    0    0  0.76106524332E+01  0.15193462861E+01 -0.32808303747E+03  0.32817481610E+03  0.00000000000E+00 0.  1.
        -15    1    1    2    0    0 -0.23890035304E+02 -0.50573091676E+00 -0.60774421424E+01  0.24720084599E+02  0.17770000000E+01 0.  1.
         15    1    1    2    0    0 -0.33703667169E+01 -0.29389261537E+01 -0.15623662246E+03  0.15631070528E+03  0.17770000000E+01 0. -1.
</event>
<event>
 6    1  0.1860328E-003  0.5020288E+03  0.7546771E-02  0.9395282E-01
        -11   -1    0    0    0    0  0.00000000000E+00  0.00000000000E+00  0.50000000000E+03  0.50000000000E+03  0.00000000000E+00 0. -1.
         11   -1    0    0    0    0 -0.00000000000E+00 -0.00000000000E+00 -0.50000000000E+03  0.50000000000E+03  0.00000000000E+00 0.  1.
        -11    1    1    2    0    0  0.71148339581E+01  0.16447115514E+01  0.49791769986E+03  0.49797124593E+03  0.00000000000E+00 0. -1.
         11    1    1    2    0    0  0.13773478543E+02 -0.56884479535E+01 -0.40058751503E+03  0.40086459603E+03  0.00000000000E+00 0.  1.
        -15    1    1    2    0    0 -0.18168525479E+02  0.38875857059E+01 -0.95742368376E+02  0.97544694740E+02  0.17770000000E+01 0. -1.
         15    1    1    2    0    0 -0.27197870224E+01  0.15615069630E+00 -0.15878164520E+01  0.36194632989E+01  0.17770000000E+01 0.  1.
</event>
<event>
 6    1  0.1860328E-003  0.5030904E+03  0.7546771E-02  0.9392921E-01
        -11   -1    0    0    0    0  0.00000000000E+00  0.00000000000E+00  0.50000000000E+03  0.50000000000E+03  0.00000000000E+00 0.  1.
         11   -1    0    0    0    0 -0.00000000000E+00 -0.00000000000E+00 -0.50000000000E+03  0.50000000000E+03  0.00000000000E+00 0.  1.
        -11    1    1    2    0    0  0.71678726348E+01 -0.93955146343E+00  0.49685702780E+03  0.49690961676E+03  0.00000000000E+00 0.  1.
         11    1    1    2    0    0  0.33622088537E+01 -0.78366486553E+01 -0.47457586964E+03  0.47465247661E+03  0.00000000000E+00 0.  1.
        -15    1    1    2    0    0  0.28612089970E+00  0.53402085180E+01 -0.10882747321E+02  0.12255268680E+02  0.17770000000E+01 0.  1.
         15    1    1    2    0    0 -0.10816202388E+02  0.34359916008E+01 -0.11398410836E+02  0.16182637948E+02  0.17770000000E+01 0.  1.
</event>
<event>
 6    1  0.1860328E-003  0.5146611E+03  0.7546771E-02  0.9367589E-01
        -11   -1    0    0    0    0  0.00000000000E+00  0.00000000000E+00  0.50000000000E+03  0.50000000000E+03  0.00000000000E+00 0. -1.
         11   -1    0    0    0    0 -0.00000000000E+00 -0.00000000000E+00 -0.50000000000E+03  0.50000000000E+03  0.00000000000E+00 0.  1.
        -11    1    1    2    0    0  0.69722158939E+01  0.53927966405E+00  0.48528849179E+03  0.48533887427E+03  0.00000000000E+00 0. -1.
         11    1    1    2    0    0  0.26738033042E+02  0.20693341818E+02 -0.42157530308E+03  0.42292892189E+03  0.00000000000E+00 0.  1.
        -15    1    1    2    0    0  0.19210657819E+01 -0.65971949351E+01  0.77626305547E+01  0.10518062411E+02  0.17770000000E+01 0. -1.
         15    1    1    2    0    0 -0.35631314718E+02 -0.14635426547E+02 -0.71475819264E+02  0.81214141423E+02  0.17770000000E+01 0.  1.
</event>
<event>
 6    1  0.1860328E-003  0.5001292E+03  0.7546771E-02  0.9399521E-01
        -11   -1    0    0    0    0  0.00000000000E+00  0.00000000000E+00  0.50000000000E+03  0.50000000000E+03  0.00000000000E+00 0. -1.
         11   -1    0    0    0    0 -0.00000000000E+00 -0.00000000000E+00 -0.50000000000E+03  0.50000000000E+03  0.00000000000E+00 0.  1.
        -11    1    1    2    0    0  0.17348810837E+01 -0.72532788369E+01  0.49981521036E+03  0.49987084769E+03  0.00000000000E+00 0. -1.
         11    1    1    2    0    0 -0.23449072968E+01  0.13651757548E+01 -0.96596985613E+02  0.96635086405E+02  0.00000000000E+00 0.  1.
        -15    1    1    2    0    0 -0.45096500245E+01  0.61602260884E+01 -0.13952052512E+03  0.13974054525E+03  0.17770000000E+01 0.  1.
         15    1    1    2    0    0  0.51196762376E+01 -0.27212300625E+00 -0.26369769963E+03  0.26375352065E+03  0.17770000000E+01 0.  1.
</event>
<event>
 6    1  0.1860328E-003  0.5167214E+03  0.7546771E-02  0.9363153E-01
        -11   -1    0    0    0    0  0.00000000000E+00  0.00000000000E+00  0.50000000000E+03  0.50000000000E+03  0.00000000000E+00 0.  1.
         11   -1    0    0    0    0 -0.00000000000E+00 -0.00000000000E+00 -0.50000000000E+03  0.50000000000E+03  0.00000000000E+00 0. -1.
        -11    1    1    2    0    0  0.15523539938E+02 -0.10735633110E+02  0.41965322192E+03  0.42007744616E+03  0.00000000000E+00 0.  1.
         11    1    1    2    0    0  0.40238744976E+01 -0.61436637862E+01 -0.48322282171E+03  0.48327862729E+03  0.00000000000E+00 0. -1.
        -15    1    1    2    0    0 -0.13196099324E+02 -0.80260211149E+01  0.68646214065E+02  0.70384760331E+02  0.17770000000E+01 0. -1.
         15    1    1    2    0    0 -0.63513151117E+01  0.24905318011E+02 -0.50766142687E+01  0.26259166215E+02  0.17770000000E+01 0.  1.
</event>
<event>
 6    1  0.1860328E-003  0.5012237E+03  0.7546771E-02  0.9397076E-01
        -11   -1    0    0    0    0  0.00000000000E+00  0.00000000000E+00  0.50000000000E+03  0.50000000000E+03  0.00000000000E+00 0. -1.
         11   -1    0    0    0    0 -0.00000000000E+00 -0.00000000000E+00 -0.50000000000E+03  0.50000000000E+03  0.00000000000E+00 0.  1.
        -11    1    1    2    0    0 -0.70131826602E+01 -0.41899467264E+01  0.13487226940E+03  0.13511946358E+03  0.00000000000E+00 0. -1.
         11    1    1    2    0    0 -0.29250854655E+01 -0.76643551969E+01 -0.49870886419E+03  0.49877633232E+03  0.00000000000E+00 0.  1.
        -15    1    1    2    0    0  0.62747722175E+01  0.74329058972E+01  0.20965154642E+02  0.23180084008E+02  0.17770000000E+01 0.  1.
         15    1    1    2    0    0  0.36634959083E+01  0.44213960261E+01  0.34287144014E+03  0.34292412009E+03  0.17770000000E+01 0. -1.
</event>
<event>
 6    1  0.1860328E-003  0.5001012E+03  0.7546771E-02  0.9399583E-01
        -11   -1    0    0    0    0  0.00000000000E+00  0.00000000000E+00  0.50000000000E+03  0.50000000000E+03  0.00000000000E+00 0.  1.
         11   -1    0    0    0    0 -0.00000000000E+00 -0.00000000000E+00 -0.50000000000E+03  0.50000000000E+03  0.00000000000E+00 0. -1.
        -11    1    1    2    0    0  0.26874519058E+01 -0.18044307424E+01  0.15954022824E+03  0.15957306413E+03  0.00000000000E+00 0.  1.
         11    1    1    2    0    0 -0.72376919513E+01  0.66656640150E+01 -0.49980194858E+03  0.49989879283E+03  0.00000000000E+00 0. -1.
        -15    1    1    2    0    0  0.82396679774E+00 -0.79124316598E+01  0.18048089260E+03  0.18066487157E+03  0.17770000000E+01 0.  1.
         15    1    1    2    0    0  0.37262732477E+01  0.30511983872E+01  0.15978082774E+03  0.15986327148E+03  0.17770000000E+01 0. -1.
</event>
<event>
 6    1  0.1860328E-003  0.5012181E+03  0.7546771E-02  0.9397088E-01
        -11   -1    0    0    0    0  0.00000000000E+00  0.00000000000E+00  0.50000000000E+03  0.50000000000E+03  0.00000000000E+00 0.  1.
         11   -1    0    0    0    0 -0.00000000000E+00 -0.00000000000E+00 -0.50000000000E+03  0.50000000000E+03  0.00000000000E+00 0.  1.
        -11    1    1    2    0    0 -0.13132638552E+02 -0.29695381493E+01  0.49860009786E+03  0.49878185807E+03  0.00000000000E+00 0.  1.
         11    1    1    2    0    0  0.16463589203E+01  0.16744080967E+01 -0.79798446152E+01  0.83181764980E+01  0.00000000000E+00 0.  1.
        -15    1    1    2    0    0 -0.30379411538E+01  0.33445169368E+01 -0.47075190439E+01  0.67626433103E+01  0.17770000000E+01 0. -1.
         15    1    1    2    0    0  0.14524220786E+02 -0.20493868842E+01 -0.48591273420E+03  0.48613732212E+03  0.17770000000E+01 0.  1.
</event>
<event>
 6    1  0.1860328E-003  0.5200923E+03  0.7546771E-02  0.9355941E-01
        -11   -1    0    0    0    0  0.00000000000E+00  0.00000000000E+00  0.50000000000E+03  0.50000000000E+03  0.00000000000E+00 0. -1.
         11   -1    0    0    0    0 -0.00000000000E+00 -0.00000000000E+00 -0.50000000000E+03  0.50000000000E+03  0.00000000000E+00 0.  1.
        -11    1    1    2    0    0 -0.10593239257E+02  0.42865728286E+01  0.46124762650E+03  0.46138916803E+03  0.00000000000E+00 0. -1.
         11    1    1    2    0    0 -0.13156894957E+02  0.10461241537E+02 -0.47961325000E+03  0.47990771096E+03  0.00000000000E+00 0.  1.
        -15    1    1    2    0    0  0.46445645251E+01 -0.50315754473E+01 -0.16378306136E+02  0.17840834397E+02  0.17770000000E+01 0.  1.
         15    1    1    2    0    0  0.19105569689E+02 -0.97162389179E+01  0.34743929641E+02  0.40862286619E+02  0.17770000000E+01 0. -1.
</event>
<event>
 6    1  0.1860328E-003  0.5004628E+03  0.7546771E-02  0.9398775E-01
        -11   -1    0    0    0    0  0.00000000000E+00  0.00000000000E+00  0.50000000000E+03  0.50000000000E+03  0.00000000000E+00 0. -1.
         11   -1    0    0    0    0 -0.00000000000E+00 -0.00000000000E+00 -0.50000000000E+03  0.50000000000E+03  0.00000000000E+00 0.  1.
        -11    1    1    2    0    0 -0.63142271593E+01  0.65091655421E+01  0.49945485224E+03  0.49953717392E+03  0.00000000000E+00 0. -1.
         11    1    1    2    0    0  0.25631626406E+01 -0.11530824283E+01 -0.19015028235E+03  0.19017105269E+03  0.00000000000E+00 0.  1.
        -15    1    1    2    0    0 -0.89257909885E+01 -0.74368343050E+01 -0.15147442333E+03  0.15192970381E+03  0.17770000000E+01 0.  1.
         15    1    1    2    0    0  0.12676855507E+02  0.20807511913E+01 -0.15783014656E+03  0.15836206958E+03  0.17770000000E+01 0. -1.
</event>
<event>
 6    1  0.1860328E-003  0.5054035E+03  0.7546771E-02  0.9387799E-01
        -11   -1    0    0    0    0  0.00000000000E+00  0.00000000000E+00  0.50000000000E+03  0.50000000000E+03  0.00000000000E+00 0.  1.
         11   -1    0    0    0    0 -0.00000000000E+00 -0.00000000000E+00 -0.50000000000E+03  0.50000000000E+03  0.00000000000E+00 0. -1.
        -11    1    1    2    0    0 -0.15676990527E+02  0.12359149731E+02  0.35808637691E+03  0.35864239842E+03  0.00000000000E+00 0.  1.
         11    1    1    2    0    0  0.54658683146E+02 -0.23984658331E+02 -0.49098152342E+03  0.49459649394E+03  0.00000000000E+00 0. -1.
        -15    1    1    2    0    0 -0.28463158312E+02  0.45819735519E+01  0.13062195530E+03  0.13377742260E+03  0.17770000000E+01 0.  1.
         15    1    1    2    0    0 -0.10518534307E+02  0.70435350488E+01  0.22731912100E+01  0.12983685040E+02  0.17770000000E+01 0. -1.
</event>
<event>
 6    1  0.1860328E-003  0.5006320E+03  0.7546771E-02  0.9398397E-01
        -11   -1    0    0    0    0  0.00000000000E+00  0.00000000000E+00  0.50000000000E+03  0.50000000000E+03  0.00000000000E+00 0. -1.
         11   -1    0    0    0    0 -0.00000000000E+00 -0.00000000000E+00 -0.50000000000E+03  0.50000000000E+03  0.00000000000E+00 0. -1.
        -11    1    1    2    0    0  0.53055598751E+00 -0.70346018754E+01  0.49931814896E+03  0.49936798154E+03  0.00000000000E+00 0. -1.
         11    1    1    2    0    0 -0.41247656495E+01 -0.36715545027E+00 -0.15130727077E+03  0.15136392795E+03  0.00000000000E+00 0. -1.
        -15    1    1    2    0    0  0.26673417594E+01  0.17250235861E+02 -0.15384301528E+03  0.15484029330E+03  0.17770000000E+01 0.  1.
         15    1    1    2    0    0  0.92686790259E+00 -0.98484785354E+01 -0.19416786290E+03  0.19442779721E+03  0.17770000000E+01 0. -1.
</event>
<event>
 6    1  0.1860328E-003  0.5020697E+03  0.7546771E-02  0.9395190E-01
        -11   -1    0    0    0    0  0.00000000000E+00  0.00000000000E+00  0.50000000000E+03  0.50000000000E+03  0.00000000000E+00 0.  1.
         11   -1    0    0    0    0 -0.00000000000E+00 -0.00000000000E+00 -0.50000000000E+03  0.50000000000E+03  0.00000000000E+00 0.  1.
        -11    1    1    2    0    0  0.20766274764E+01 -0.96299838914E+01  0.49783283716E+03  0.49793029906E+03  0.00000000000E+00 0.  1.
         11    1    1    2    0    0  0.20036520048E+02 -0.14126428012E+02 -0.21549565852E+03  0.21688567713E+03  0.00000000000E+00 0.  1.
        -15    1    1    2    0    0 -0.91526712018E+01  0.80855058715E+01 -0.37101495103E+02  0.39100197738E+02  0.17770000000E+01 0. -1.
         15    1    1    2    0    0 -0.12960476323E+02  0.15670906032E+02 -0.24523568354E+03  0.24608382607E+03  0.17770000000E+01 0.  1.
</event>
<event>
 6    1  0.1860328E-003  0.5186799E+03  0.7546771E-02  0.9358956E-01
        -11   -1    0    0    0    0  0.00000000000E+00  0.00000000000E+00  0.50000000000E+03  0.50000000000E+03  0.00000000000E+00 0. -1.
         11   -1    0    0    0    0 -0.00000000000E+00 -0.00000000000E+00 -0.50000000000E+03  0.50000000000E+03  0.00000000000E+00 0.  1.
        -11    1    1    2    0    0 -0.74895267772E+01 -0.13222305341E+02  0.42314530385E+03  0.42341808008E+03  0.00000000000E+00 0. -1.
         11    1    1    2    0    0 -0.30240903852E+02  0.17896515667E+02 -0.48003568552E+03  0.48132011895E+03  0.00000000000E+00 0.  1.
        -15    1    1    2    0    0  0.37908734835E+01  0.29197315825E+01  0.60075847380E+02  0.60292294049E+02  0.17770000000E+01 0. -1.
         15    1    1    2    0    0  0.33939557145E+02 -0.75939419091E+01 -0.31854657129E+01  0.34969506913E+02  0.17770000000E+01 0.  1.
</event>
<event>
 6    1  0.1860328E-003  0.5393980E+03  0.7546771E-02  0.9315727E-01
        -11   -1    0    0    0    0  0.00000000000E+00  0.00000000000E+00  0.50000000000E+03  0.50000000000E+03  0.00000000000E+00 0.  1.
         11   -1    0    0    0    0 -0.00000000000E+00 -0.00000000000E+00 -0.50000000000E+03  0.50000000000E+03  0.00000000000E+00 0. -1.
        -11    1    1    2    0    0  0.58304193626E+01 -0.41450882227E+01  0.46054641581E+03  0.46060197205E+03  0.00000000000E+00 0.  1.
         11    1    1    2    0    0  0.58867571786E+01 -0.35770452192E+01 -0.37064421704E+03  0.37070822056E+03  0.00000000000E+00 0. -1.
        -15    1    1    2    0    0 -0.58337819549E+02 -0.27683352360E+01 -0.10360500965E+03  0.11894587266E+03  0.17770000000E+01 0. -1.
         15    1    1    2    0    0  0.46620643007E+02  0.10490468678E+02  0.13702810881E+02  0.49743934731E+02  0.17770000000E+01 0.  1.
</event>
<event>
 6    1  0.1860328E-003  0.5133582E+03  0.7546771E-02  0.9370406E-01
        -11   -1    0    0    0    0  0.00000000000E+00  0.00000000000E+00  0.50000000000E+03  0.50000000000E+03  0.00000000000E+00 0.  1.
         11   -1    0    0    0    0 -0.00000000000E+00 -0.00000000000E+00 -0.50000000000E+03  0.50000000000E+03  0.00000000000E+00 0.  1.
        -11    1    1    2    0    0 -0.15063162619E+02  0.89386422318E+01  0.45429803023E+03  0.45463556665E+03  0.00000000000E+00 0.  1.
         11    1    1    2    0    0 -0.14493647431E+02 -0.10985690051E+01 -0.48642466548E+03  0.48664178598E+03  0.00000000000E+00 0.  1.
        -15    1    1    2    0    0  0.21423220596E+02 -0.47325713040E+01 -0.32470859890E+01  0.22249784454E+02  0.17770000000E+01 0.  1.
         15    1    1    2    0    0  0.81335894540E+01 -0.31075019227E+01  0.35373721245E+02  0.36472862916E+02  0.17770000000E+01 0. -1.
</event>
<event>
 6    1  0.1860328E-003  0.5015612E+03  0.7546771E-02  0.9396323E-01
        -11   -1    0    0    0    0  0.00000000000E+00  0.00000000000E+00  0.50000000000E+03  0.50000000000E+03  0.00000000000E+00 0.  1.
         11   -1    0    0    0    0 -0.00000000000E+00 -0.00000000000E+00 -0.50000000000E+03  0.50000000000E+03  0.00000000000E+00 0.  1.
        -11    1    1    2    0    0  0.43798379424E+01  0.93420377845E+01  0.35652982019E+03  0.35667908452E+03  0.00000000000E+00 0.  1.
         11    1    1    2    0    0 -0.16464017025E+02  0.36816945551E-02 -0.49816679976E+03  0.49843878687E+03  0.00000000000E+00 0.  1.
        -15    1    1    2    0    0 -0.12942203042E+01 -0.28107280981E+01  0.10794566712E+03  0.10800462943E+03  0.17770000000E+01 0. -1.
         15    1    1    2    0    0  0.13378399387E+02 -0.65349913809E+01  0.33691312450E+02  0.36877499185E+02  0.17770000000E+01 0.  1.
</event>
<event>
 6    1  0.1860328E-003  0.5108303E+03  0.7546771E-02  0.9375897E-01
        -11   -1    0    0    0    0  0.00000000000E+00  0.00000000000E+00  0.50000000000E+03  0.50000000000E+03  0.00000000000E+00 0. -1.
         11   -1    0    0    0    0 -0.00000000000E+00 -0.00000000000E+00 -0.50000000000E+03  0.50000000000E+03  0.00000000000E+00 0.  1.
        -11    1    1    2    0    0  0.93958299183E+01  0.41586498461E+01  0.47684577787E+03  0.47695646747E+03  0.00000000000E+00 0. -1.
         11    1    1    2    0    0 -0.54906625359E+01 -0.12842798688E+02 -0.48897028112E+03  0.48916972584E+03  0.00000000000E+00 0.  1.
        -15    1    1    2    0    0 -0.94276217959E+01 -0.21546291572E+00  0.18953816768E+02  0.21244561094E+02  0.17770000000E+01 0.  1.
         15    1    1    2    0    0  0.55224544134E+01  0.88996117577E+01 -0.68293135181E+01  0.12629245596E+02  0.17770000000E+01 0. -1.
</event>
<event>
 6    1  0.1860328E-003  0.5053533E+03  0.7546771E-02  0.9387910E-01
        -11   -1    0    0    0    0  0.00000000000E+00  0.00000000000E+00  0.50000000000E+03  0.50000000000E+03  0.00000000000E+00 0. -1.
         11   -1    0    0    0    0 -0.00000000000E+00 -0.00000000000E+00 -0.50000000000E+03  0.50000000000E+03  0.00000000000E+00 0. -1.
        -11    1    1    2    0    0  0.41857078081E+01  0.10728262160E+02  0.49451266594E+03  0.49464673509E+03  0.00000000000E+00 0. -1.
         11    1    1    2    0    0 -0.74848668099E+01  0.23670493101E+01 -0.46357871020E+03  0.46364517328E+03  0.00000000000E+00 0. -1.
        -15    1    1    2    0    0 -0.88575719216E+01  0.77356485443E+00 -0.13534488694E+02  0.16290951357E+02  0.17770000000E+01 0. -1.
         15    1    1    2    0    0  0.12156730923E+02 -0.13868876324E+02 -0.17399467043E+02  0.25417140272E+02  0.17770000000E+01 0.  1.
</event>
<event>
 6    1  0.1860328E-003  0.5042144E+03  0.7546771E-02  0.9390429E-01
        -11   -1    0    0    0    0  0.00000000000E+00  0.00000000000E+00  0.50000000000E+03  0.50000000000E+03  0.00000000000E+00 0. -1.
         11   -1    0    0    0    0 -0.00000000000E+00 -0.00000000000E+00 -0.50000000000E+03  0.50000000000E+03  0.00000000000E+00 0.  1.
        -11    1    1    2    0    0  0.65550870408E+01  0.56757223743E+01  0.49570977058E+03  0.49578559846E+03  0.00000000000E+00 0. -1.
         11    1    1    2    0    0  0.57509449924E+01 -0.65562644253E+01 -0.47276590504E+03  0.47284633756E+03  0.00000000000E+00 0.  1.
        -15    1    1    2    0    0 -0.60795601490E+01  0.38441144038E+01 -0.23085771146E+02  0.24245593941E+02  0.17770000000E+01 0. -1.
         15    1    1    2    0    0 -0.62264718843E+01 -0.29635723528E+01  0.14190560443E+00  0.71224700362E+01  0.17770000000E+01 0.  1.
</event>
<event>
 6    1  0.1860328E-003  0.5032008E+03  0.7546771E-02  0.9392676E-01
        -11   -1    0    0    0    0  0.00000000000E+00  0.00000000000E+00  0.50000000000E+03  0.50000000000E+03  0.00000000000E+00 0.  1.
         11   -1    0    0    0    0 -0.00000000000E+00 -0.00000000000E+00 -0.50000000000E+03  0.50000000000E+03  0.00000000000E+00 0.  1.
        -11    1    1    2    0    0  0.13548204271E+01 -0.69418694791E+01  0.48051744571E+03  0.48056949625E+03  0.00000000000E+00 0.  1.
         11    1    1    2    0    0  0.87575370870E+01  0.34640917615E+01 -0.49670992028E+03  0.49679919413E+03  0.00000000000E+00 0.  1.
        -15    1    1    2    0    0 -0.38593766321E+01 -0.40390572402E+01  0.56096943601E+01  0.81138875511E+01  0.17770000000E+01 0.  1.
         15    1    1    2    0    0 -0.62529808820E+01  0.75168349578E+01  0.10582780208E+02  0.14517422072E+02  0.17770000000E+01 0. -1.
</event>
<event>
 6    1  0.1860328E-003  0.5101149E+03  0.7546771E-02  0.9377457E-01
        -11   -1    0    0    0    0  0.00000000000E+00  0.00000000000E+00  0.50000000000E+03  0.50000000000E+03  0.00000000000E+00 0. -1.
         11   -1    0    0    0    0 -0.00000000000E+00 -0.00000000000E+00 -0.50000000000E+03  0.50000000000E+03  0.00000000000E+00 0.  1.
        -11    1    1    2    0    0  0.17309625112E+02  0.14564666383E+01  0.48957700235E+03  0.48988507392E+03  0.00000000000E+00 0. -1.
         11    1    1    2    0    0 -0.18286046237E+02  0.20180614309E+01 -0.48485638604E+03  0.48520528351E+03  0.00000000000E+00 0.  1.
        -15    1    1    2    0    0 -0.11394192249E+02 -0.19253184403E+01 -0.79420480585E+00  0.11718487888E+02  0.17770000000E+01 0.  1.
         15    1    1    2    0    0  0.12370613374E+02 -0.15492096289E+01 -0.39264115007E+01  0.13191154687E+02  0.17770000000E+01 0. -1.
</event>
<event>
 6    1  0.3811366E-003  0.5180124E+03  0.7546771E-02  0.9360384E-01
        -11   -1    0    0    0    0  0.00000000000E+00  0.00000000000E+00  0.50000000000E+03  0.50000000000E+03  0.00000000000E+00 0.  1.
         11   -1    0    0    0    0 -0.00000000000E+00 -0.00000000000E+00 -0.50000000000E+03  0.50000000000E+03  0.00000000000E+00 0.  1.
        -11    1    1    2    0    0  0.33357668717E+01  0.63238575028E+01  0.48193461289E+03  0.48198764467E+03  0.00000000000E+00 0.  1.
         11    1    1    2    0    0 -0.55459309860E+01 -0.54091045245E+01 -0.39696832797E+03  0.39704391341E+03  0.00000000000E+00 0.  1.
        -15    1    1    2    0    0 -0.35835276876E+01 -0.59396336618E+01  0.17131345148E+02  0.18567757924E+02  0.17770000000E+01 0.  1.
         15    1    1    2    0    0  0.57936918019E+01  0.50248806834E+01 -0.10209763006E+03  0.10240068400E+03  0.17770000000E+01 0.  1.
</event>
<event>
 6    1  0.1860328E-003  0.5301101E+03  0.7546771E-02  0.9334847E-01
        -11   -1    0    0    0    0  0.00000000000E+00  0.00000000000E+00  0.50000000000E+03  0.50000000000E+03  0.00000000000E+00 0.  1.
         11   -1    0    0    0    0 -0.00000000000E+00 -0.00000000000E+00 -0.50000000000E+03  0.50000000000E+03  0.00000000000E+00 0.  1.
        -11    1    1    2    0    0  0.95341906786E+00  0.44735122889E+01  0.24468610078E+03  0.24472884839E+03  0.00000000000E+00 0.  1.
         11    1    1    2    0    0  0.13534668513E+02 -0.29150636340E+01 -0.46968588838E+03  0.46988990049E+03  0.00000000000E+00 0.  1.
        -15    1    1    2    0    0  0.40002007804E+02 -0.14268535850E+02  0.22542584801E+03  0.22939861034E+03  0.17770000000E+01 0. -1.
         15    1    1    2    0    0 -0.54490095385E+02  0.12710087195E+02 -0.42606041981E+00  0.55982640774E+02  0.17770000000E+01 0.  1.
</event>
<event>
 6    1  0.1860328E-003  0.5004005E+03  0.7546771E-02  0.9398914E-01
        -11   -1    0    0    0    0  0.00000000000E+00  0.00000000000E+00  0.50000000000E+03  0.50000000000E+03  0.00000000000E+00 0.  1.
         11   -1    0    0    0    0 -0.00000000000E+00 -0.00000000000E+00 -0.50000000000E+03  0.50000000000E+03  0.00000000000E+00 0.  1.
        -11    1    1    2    0    0 -0.90027963151E+01 -0.20262851395E+01  0.49951427033E+03  0.49959950203E+03  0.00000000000E+00 0.  1.
         11    1    1    2    0    0  0.52224894055E+00  0.57132262441E+01 -0.38719946746E+03  0.38724196738E+03  0.00000000000E+00 0.  1.
        -15    1    1    2    0    0  0.94697278683E+01 -0.20728501991E+00 -0.71834295644E+02  0.72477875746E+02  0.17770000000E+01 0.  1.
         15    1    1    2    0    0 -0.98918049374E+00 -0.34796560847E+01 -0.40480507218E+02  0.40680654839E+02  0.17770000000E+01 0. -1.
</event>
<event>
 6    1  0.1860328E-003  0.5009534E+03  0.7546771E-02  0.9397679E-01
        -11   -1    0    0    0    0  0.00000000000E+00  0.00000000000E+00  0.50000000000E+03  0.50000000000E+03  0.00000000000E+00 0.  1.
         11   -1    0    0    0    0 -0.00000000000E+00 -0.00000000000E+00 -0.50000000000E+03  0.50000000000E+03  0.00000000000E+00 0. -1.
        -11    1    1    2    0    0 -0.73953255222E+01 -0.76587078087E+01  0.37804251724E+03  0.37819240009E+03  0.00000000000E+00 0.  1.
         11    1    1    2    0    0 -0.34960646315E+01 -0.57637010007E+01 -0.49900104060E+03  0.49904657221E+03  0.00000000000E+00 0. -1.
        -15    1    1    2    0    0  0.69645981820E+01  0.45497659275E+00  0.36432449509E+02  0.37137497731E+02  0.17770000000E+01 0.  1.
         15    1    1    2    0    0  0.39267919717E+01  0.12967432217E+02  0.84526073851E+02  0.85623529962E+02  0.17770000000E+01 0. -1.
</event>
<event>
 6    1  0.1860328E-003  0.4799855E+03  0.7546771E-02  0.9445742E-01
        -11   -1    0    0    0    0  0.00000000000E+00  0.00000000000E+00  0.50000000000E+03  0.50000000000E+03  0.00000000000E+00 0.  1.
         11   -1    0    0    0    0 -0.00000000000E+00 -0.00000000000E+00 -0.50000000000E+03  0.50000000000E+03  0.00000000000E+00 0.  1.
        -11    1    1    2    0    0 -0.83931437877E+01  0.69493631289E+01  0.47399651651E+03  0.47412175248E+03  0.00000000000E+00 0.  1.
         11    1    1    2    0    0 -0.12894523914E+02  0.59365402185E+01 -0.48603991080E+03  0.48624716570E+03  0.00000000000E+00 0.  1.
        -15    1    1    2    0    0 -0.48406053567E+01 -0.92047236323E+01 -0.50785526982E-01  0.10550768007E+02  0.17770000000E+01 0.  1.
         15    1    1    2    0    0  0.26128273059E+02 -0.36811797151E+01  0.12094179824E+02  0.29080313818E+02  0.17770000000E+01 0. -1.
</event>
<event>
 6    1  0.1860328E-003  0.5125865E+03  0.7546771E-02  0.9372079E-01
        -11   -1    0    0    0    0  0.00000000000E+00  0.00000000000E+00  0.50000000000E+03  0.50000000000E+03  0.00000000000E+00 0. -1.
         11   -1    0    0    0    0 -0.00000000000E+00 -0.00000000000E+00 -0.50000000000E+03  0.50000000000E+03  0.00000000000E+00 0. -1.
        -11    1    1    2    0    0 -0.95767159277E+01  0.35347164573E+00  0.46795936331E+03  0.46805747952E+03  0.00000000000E+00 0. -1.
         11    1    1    2    0    0  0.76195353462E+01  0.62042616712E+01 -0.48731441150E+03  0.48741346497E+03  0.00000000000E+00 0. -1.
        -15    1    1    2    0    0  0.10739194797E+02  0.52482117151E+00  0.28103354437E+02  0.30142362246E+02  0.17770000000E+01 0. -1.
         15    1    1    2    0    0 -0.87820142154E+01 -0.70825544885E+01 -0.87483062426E+01  0.14386693257E+02  0.17770000000E+01 0. -1.
</event>
<event>
 6    1  0.1860328E-003  0.5027906E+03  0.7546771E-02  0.9393587E-01
        -11   -1    0    0    0    0  0.00000000000E+00  0.00000000000E+00  0.50000000000E+03  0.50000000000E+03  0.00000000000E+00 0.  1.
         11   -1    0    0    0    0 -0.00000000000E+00 -0.00000000000E+00 -0.50000000000E+03  0.50000000000E+03  0.00000000000E+00 0. -1.
        -11    1    1    2    0    0  0.63959258669E+01 -0.10393258366E+02  0.44297211589E+03  0.44314018453E+03  0.00000000000E+00 0.  1.
         11    1    1    2    0    0 -0.38726675533E+01 -0.83800102272E+01 -0.49712367942E+03  0.49720938724E+03  0.00000000000E+00 0. -1.
        -15    1    1    2    0    0 -0.83328007928E+01  0.58567960642E+01  0.17621600111E+02  0.20430764760E+02  0.17770000000E+01 0.  1.
         15    1    1    2    0    0  0.58095424792E+01  0.12916472529E+02  0.36529963416E+02  0.39219663469E+02  0.17770000000E+01 0. -1.
</event>
<event>
 6    1  0.1860328E-003  0.5026267E+03  0.7546771E-02  0.9393951E-01
        -11   -1    0    0    0    0  0.00000000000E+00  0.00000000000E+00  0.50000000000E+03  0.50000000000E+03  0.00000000000E+00 0.  1.
         11   -1    0    0    0    0 -0.00000000000E+00 -0.00000000000E+00 -0.50000000000E+03  0.50000000000E+03  0.00000000000E+00 0. -1.
        -11    1    1    2    0    0  0.97454577668E+01 -0.90647696641E+01  0.49719522858E+03  0.49737333998E+03  0.00000000000E+00 0.  1.
         11    1    1    2    0    0 -0.88643785046E+00  0.58889931532E+01 -0.43518892771E+03  0.43522967363E+03  0.00000000000E+00 0. -1.
        -15    1    1    2    0    0  0.12466591034E+01 -0.77111505169E+01 -0.39953244115E+02  0.40748441020E+02  0.17770000000E+01 0. -1.
         15    1    1    2    0    0 -0.10105679020E+02  0.10886927028E+02 -0.22053056765E+02  0.26648545368E+02  0.17770000000E+01 0.  1.
</event>
<event>
 6    1  0.1860328E-003  0.5050334E+03  0.7546771E-02  0.9388617E-01
        -11   -1    0    0    0    0  0.00000000000E+00  0.00000000000E+00  0.50000000000E+03  0.50000000000E+03  0.00000000000E+00 0.  1.
         11   -1    0    0    0    0 -0.00000000000E+00 -0.00000000000E+00 -0.50000000000E+03  0.50000000000E+03  0.00000000000E+00 0. -1.
        -11    1    1    2    0    0 -0.82330518172E+01 -0.11694623391E+02  0.49475988969E+03  0.49496656029E+03  0.00000000000E+00 0.  1.
         11    1    1    2    0    0 -0.22043976281E+01  0.10380275963E+02 -0.47504831065E+03  0.47516682012E+03  0.00000000000E+00 0. -1.
        -15    1    1    2    0    0  0.11898219739E+02 -0.51411813675E+01 -0.18870613483E+02  0.22962080938E+02  0.17770000000E+01 0.  1.
         15    1    1    2    0    0 -0.14607702938E+01  0.64555287953E+01 -0.84096555955E+00  0.69045386486E+01  0.17770000000E+01 0. -1.
</event>
<event>
 6    1  0.1860328E-003  0.5023894E+03  0.7546771E-02  0.9394479E-01
        -11   -1    0    0    0    0  0.00000000000E+00  0.00000000000E+00  0.50000000000E+03  0.50000000000E+03  0.00000000000E+00 0. -1.
         11   -1    0    0    0    0 -0.00000000000E+00 -0.00000000000E+00 -0.50000000000E+03  0.50000000000E+03  0.00000000000E+00 0.  1.
        -11    1    1    2    0    0 -0.54663261025E+01  0.12385012413E+02  0.42526794138E+03  0.42548336186E+03  0.00000000000E+00 0. -1.
         11    1    1    2    0    0  0.34797578171E+01  0.67608553297E+01 -0.49755251883E+03  0.49761061773E+03  0.00000000000E+00 0.  1.
        -15    1    1    2    0    0 -0.14689356781E+01 -0.65651044100E+01  0.55938712115E+01  0.89279052454E+01  0.17770000000E+01 0.  1.
         15    1    1    2    0    0  0.34555039636E+01 -0.12580763333E+02  0.66690706238E+02  0.67978115163E+02  0.17770000000E+01 0. -1.
</event>
<event>
 6    1  0.1860328E-003  0.4612054E+03  0.7546771E-02  0.9491061E-01
        -11   -1    0    0    0    0  0.00000000000E+00  0.00000000000E+00  0.50000000000E+03  0.50000000000E+03  0.00000000000E+00 0.  1.
         11   -1    0    0    0    0 -0.00000000000E+00 -0.00000000000E+00 -0.50000000000E+03  0.50000000000E+03  0.00000000000E+00 0. -1.
        -11    1    1    2    0    0  0.28345320441E+02  0.27564461913E+02  0.44994574163E+03  0.45167956248E+03  0.00000000000E+00 0.  1.
         11    1    1    2    0    0  0.80127224442E+01 -0.97364270624E+00 -0.47202527524E+03  0.47209428313E+03  0.00000000000E+00 0. -1.
        -15    1    1    2    0    0 -0.31425715538E+02 -0.24255878847E+02  0.40615735146E+02  0.56821817343E+02  0.17770000000E+01 0. -1.
         15    1    1    2    0    0 -0.49323273463E+01 -0.23349403605E+01 -0.18536201541E+02  0.19404337044E+02  0.17770000000E+01 0.  1.
</event>
<event>
 6    1  0.1860328E-003  0.5051833E+03  0.7546771E-02  0.9388286E-01
        -11   -1    0    0    0    0  0.00000000000E+00  0.00000000000E+00  0.50000000000E+03  0.50000000000E+03  0.00000000000E+00 0. -1.
         11   -1    0    0    0    0 -0.00000000000E+00 -0.00000000000E+00 -0.50000000000E+03  0.50000000000E+03  0.00000000000E+00 0.  1.
        -11    1    1    2    0    0  0.40611398617E+01  0.66849682061E+01  0.49475491188E+03  0.49481673829E+03  0.00000000000E+00 0. -1.
         11    1    1    2    0    0 -0.91279621548E+01  0.52847313884E+01 -0.46506913819E+03  0.46518872663E+03  0.00000000000E+00 0.  1.
        -15    1    1    2    0    0 -0.80143108867E+01 -0.64212924510E+01 -0.20455801394E+02  0.22957781151E+02  0.17770000000E+01 0. -1.
         15    1    1    2    0    0  0.13081133180E+02 -0.55484071435E+01 -0.92299722940E+01  0.17036753935E+02  0.17770000000E+01 0.  1.
</event>
<event>
 6    1  0.1860328E-003  0.5004744E+03  0.7546771E-02  0.9398749E-01
        -11   -1    0    0    0    0  0.00000000000E+00  0.00000000000E+00  0.50000000000E+03  0.50000000000E+03  0.00000000000E+00 0.  1.
         11   -1    0    0    0    0 -0.00000000000E+00 -0.00000000000E+00 -0.50000000000E+03  0.50000000000E+03  0.00000000000E+00 0.  1.
        -11    1    1    2    0    0  0.10438897825E+02  0.19729651964E+01  0.49941262896E+03  0.49952561210E+03  0.00000000000E+00 0.  1.
         11    1    1    2    0    0 -0.30744981335E+01  0.49640588256E+01 -0.40479266641E+03  0.40483477765E+03  0.00000000000E+00 0.  1.
        -15    1    1    2    0    0  0.17786842461E+01 -0.23932911819E+01 -0.19244113001E+02  0.19554671425E+02  0.17770000000E+01 0. -1.
         15    1    1    2    0    0 -0.91430839375E+01 -0.45437328401E+01 -0.75375849548E+02  0.76084938825E+02  0.17770000000E+01 0.  1.
</event>
<event>
 6    1  0.1860328E-003  0.4802505E+03  0.7546771E-02  0.9445118E-01
        -11   -1    0    0    0    0  0.00000000000E+00  0.00000000000E+00  0.50000000000E+03  0.50000000000E+03  0.00000000000E+00 0. -1.
         11   -1    0    0    0    0 -0.00000000000E+00 -0.00000000000E+00 -0.50000000000E+03  0.50000000000E+03  0.00000000000E+00 0.  1.
        -11    1    1    2    0    0  0.10699697381E+02 -0.95475042117E+01  0.47398111802E+03  0.47419799515E+03  0.00000000000E+00 0. -1.
         11    1    1    2    0    0 -0.91113031563E+01 -0.19043622534E+02 -0.48635137434E+03  0.48680934125E+03  0.00000000000E+00 0.  1.
        -15    1    1    2    0    0 -0.11931796051E+01  0.26081439818E+02 -0.72741407374E-01  0.26169222397E+02  0.17770000000E+01 0. -1.
         15    1    1    2    0    0 -0.39521462006E+00  0.25096869274E+01  0.12442997726E+02  0.12823441210E+02  0.17770000000E+01 0.  1.
</event>
<event>
 6    1  0.1860328E-003  0.5000967E+03  0.7546771E-02  0.9399593E-01
        -11   -1    0    0    0    0  0.00000000000E+00  0.00000000000E+00  0.50000000000E+03  0.50000000000E+03  0.00000000000E+00 0.  1.
         11   -1    0    0    0    0 -0.00000000000E+00 -0.00000000000E+00 -0.50000000000E+03  0.50000000000E+03  0.00000000000E+00 0. -1.
        -11    1    1    2    0    0 -0.11133136482E+01 -0.51946334388E+00  0.57481672842E+02  0.57494799958E+02  0.00000000000E+00 0.  1.
         11    1    1    2    0    0  0.98483715625E+01 -0.30341473950E+01 -0.49979703721E+03  0.49990326552E+03  0.00000000000E+00 0. -1.
        -15    1    1    2    0    0 -0.37799518706E+01  0.13561467099E+00  0.36565930282E+02  0.36803959215E+02  0.17770000000E+01 0. -1.
         15    1    1    2    0    0 -0.49551060436E+01  0.34179960679E+01  0.40574943409E+03  0.40579797531E+03  0.17770000000E+01 0.  1.
</event>
<event>
 6    1  0.1860328E-003  0.5004070E+03  0.7546771E-02  0.9398899E-01
        -11   -1    0    0    0    0  0.00000000000E+00  0.00000000000E+00  0.50000000000E+03  0.50000000000E+03  0.00000000000E+00 0. -1.
         11   -1    0    0    0    0 -0.00000000000E+00 -0.00000000000E+00 -0.50000000000E+03  0.50000000000E+03  0.00000000000E+00 0. -1.
        -11    1    1    2    0    0  0.68863645800E+01  0.15551496528E+01  0.49954308547E+03  0.49959296908E+03  0.00000000000E+00 0. -1.
         11    1    1    2    0    0 -0.62016327998E+01  0.88144455987E+01 -0.18851226719E+03  0.18882009846E+03  0.00000000000E+00 0. -1.
        -15    1    1    2    0    0 -0.62037607807E+01 -0.90813712102E+01 -0.13606337733E+03  0.13651871055E+03  0.17770000000E+01 0.  1.
         15    1    1    2    0    0  0.55190290006E+01 -0.12882240413E+01 -0.17496744095E+03  0.17506822191E+03  0.17770000000E+01 0. -1.
</event>
<event>
 6    1  0.1860328E-003  0.5013164E+03  0.7546771E-02  0.9396869E-01
        -11   -1    0    0    0    0  0.00000000000E+00  0.00000000000E+00  0.50000000000E+03  0.50000000000E+03  0.00000000000E+00 0. -1.
         11   -1    0    0    0    0 -0.00000000000E+00 -0.00000000000E+00 -0.50000000000E+03  0.50000000000E+03  0.00000000000E+00 0.  1.
        -11    1    1    2    0    0 -0.55168621938E+01 -0.16439379540E+01  0.40943280850E+03  0.40947327505E+03  0.00000000000E+00 0. -1.
         11    1    1    2    0    0  0.39114193403E+01  0.75485880611E+01 -0.49861111538E+03  0.49868359183E+03  0.00000000000E+00 0.  1.
        -15    1    1    2    0    0  0.65409858025E+01  0.13122733397E+01  0.73344198943E+02  0.73668417956E+02  0.17770000000E+01 0.  1.
         15    1    1    2    0    0 -0.49355429491E+01 -0.72169234468E+01  0.15834107936E+02  0.18174715166E+02  0.17770000000E+01 0. -1.
</event>
<event>
 6    1  0.1860328E-003  0.5030114E+03  0.7546771E-02  0.9393097E-01
        -11   -1    0    0    0    0  0.00000000000E+00  0.00000000000E+00  0.50000000000E+03  0.50000000000E+03  0.00000000000E+00 0.  1.
         11   -1    0    0    0    0 -0.00000000000E+00 -0.00000000000E+00 -0.50000000000E+03  0.50000000000E+03  0.00000000000E+00 0. -1.
        -11    1    1    2    0    0 -0.15422939669E+02  0.76702157571E+01  0.38829613011E+03  0.38867799518E+03  0.00000000000E+00 0.  1.
         11    1    1    2    0    0  0.80419234270E+01 -0.32406589258E+01 -0.49691293183E+03  0.49698856749E+03  0.00000000000E+00 0. -1.
        -15    1    1    2    0    0 -0.30667953773E+01 -0.15073402744E+02  0.25215544482E+02  0.29590439616E+02  0.17770000000E+01 0. -1.
         15    1    1    2    0    0  0.10447811620E+02  0.10643845912E+02  0.83401257234E+02  0.84742997708E+02  0.17770000000E+01 0.  1.
</event>
<event>
 6    1  0.1860328E-003  0.5006527E+03  0.7546771E-02  0.9398350E-01
        -11   -1    0    0    0    0  0.00000000000E+00  0.00000000000E+00  0.50000000000E+03  0.50000000000E+03  0.00000000000E+00 0.  1.
         11   -1    0    0    0    0 -0.00000000000E+00 -0.00000000000E+00 -0.50000000000E+03  0.50000000000E+03  0.00000000000E+00 0.  1.
        -11    1    1    2    0    0  0.41190411291E+01 -0.35172297850E+01  0.31335234136E+03  0.31339915003E+03  0.00000000000E+00 0.  1.
         11    1    1    2    0    0  0.24632417053E+01 -0.74728085147E+01 -0.49928527456E+03  0.49934726977E+03  0.00000000000E+00 0.  1.
        -15    1    1    2    0    0 -0.34934755949E+01  0.75789257269E+01  0.28656041239E+02  0.29899346404E+02  0.17770000000E+01 0.  1.
         15    1    1    2    0    0 -0.30888072395E+01  0.34111125728E+01  0.15727689196E+03  0.15735423380E+03  0.17770000000E+01 0.  1.
</event>
<event>
 6    1  0.1860328E-003  0.5430800E+03  0.7546771E-02  0.9308260E-01
        -11   -1    0    0    0    0  0.00000000000E+00  0.00000000000E+00  0.50000000000E+03  0.50000000000E+03  0.00000000000E+00 0.  1.
         11   -1    0    0    0    0 -0.00000000000E+00 -0.00000000000E+00 -0.50000000000E+03  0.50000000000E+03  0.00000000000E+00 0.  1.
        -11    1    1    2    0    0 -0.20803310137E+01  0.38100565742E+02  0.45532390954E+03  0.45691995304E+03  0.00000000000E+00 0.  1.
         11    1    1    2    0    0 -0.59804014650E+01  0.47504436436E+01 -0.37933857014E+03  0.37941544870E+03  0.00000000000E+00 0.  1.
        -15    1    1    2    0    0  0.11562953969E+02  0.67927105135E+01 -0.10510824760E+03  0.10597520589E+03  0.17770000000E+01 0.  1.
         15    1    1    2    0    0 -0.35022214902E+01 -0.49643719900E+02  0.29122908197E+02  0.57689392367E+02  0.17770000000E+01 0. -1.
</event>
<event>
 6    1  0.1860328E-003  0.5061390E+03  0.7546771E-02  0.9386177E-01
        -11   -1    0    0    0    0  0.00000000000E+00  0.00000000000E+00  0.50000000000E+03  0.50000000000E+03  0.00000000000E+00 0.  1.
         11   -1    0    0    0    0 -0.00000000000E+00 -0.00000000000E+00 -0.50000000000E+03  0.50000000000E+03  0.00000000000E+00 0. -1.
        -11    1    1    2    0    0  0.20174913926E+02 -0.85498378569E+01  0.49337470781E+03  0.49386104238E+03  0.00000000000E+00 0.  1.
         11    1    1    2    0    0  0.14644307346E+01 -0.10899775456E+02 -0.38290693981E+03  0.38306484336E+03  0.00000000000E+00 0. -1.
        -15    1    1    2    0    0 -0.15262261886E+02  0.24633138774E+01 -0.54540122045E+01  0.16489649216E+02  0.17770000000E+01 0. -1.
         15    1    1    2    0    0 -0.63770827741E+01  0.16986299435E+02 -0.10501375579E+03  0.10658446504E+03  0.17770000000E+01 0.  1.
</event>
<event>
 6    1  0.1860328E-003  0.5048668E+03  0.7546771E-02  0.9388985E-01
        -11   -1    0    0    0    0  0.00000000000E+00  0.00000000000E+00  0.50000000000E+03  0.50000000000E+03  0.00000000000E+00 0. -1.
         11   -1    0    0    0    0 -0.00000000000E+00 -0.00000000000E+00 -0.50000000000E+03  0.50000000000E+03  0.00000000000E+00 0.  1.
        -11    1    1    2    0    0  0.39784889515E+02  0.14914206903E+02  0.49330680956E+03  0.49513319355E+03  0.00000000000E+00 0. -1.
         11    1    1    2    0    0 -0.86783329252E+01  0.36028439288E+01 -0.32319136509E+03  0.32332793325E+03  0.00000000000E+00 0.  1.
        -15    1    1    2    0    0 -0.99703320673E+01 -0.36511623665E+01 -0.14520162355E+03  0.14560016387E+03  0.17770000000E+01 0.  1.
         15    1    1    2    0    0 -0.21136224522E+02 -0.14865888465E+02 -0.24913820909E+02  0.35938709329E+02  0.17770000000E+01 0. -1.
</event>
<event>
 6    1  0.1860328E-003  0.5015173E+03  0.7546771E-02  0.9396421E-01
        -11   -1    0    0    0    0  0.00000000000E+00  0.00000000000E+00  0.50000000000E+03  0.50000000000E+03  0.00000000000E+00 0.  1.
         11   -1    0    0    0    0 -0.00000000000E+00 -0.00000000000E+00 -0.50000000000E+03  0.50000000000E+03  0.00000000000E+00 0. -1.
        -11    1    1    2    0    0 -0.75291961045E+00 -0.91038169139E+01  0.44510027201E+03  0.44519400099E+03  0.00000000000E+00 0.  1.
         11    1    1    2    0    0 -0.65382818913E+01 -0.20995878942E+01 -0.49843535874E+03  0.49848266193E+03  0.00000000000E+00 0. -1.
        -15    1    1    2    0    0  0.23245634466E+01  0.30345486095E+01  0.33037516631E+01  0.53557991497E+01  0.17770000000E+01 0. -1.
         15    1    1    2    0    0  0.49666380551E+01  0.81688561986E+01  0.50031335067E+02  0.50967537931E+02  0.17770000000E+01 0.  1.
</event>
<event>
 6    1  0.1860328E-003  0.5026827E+03  0.7546771E-02  0.9393827E-01
        -11   -1    0    0    0    0  0.00000000000E+00  0.00000000000E+00  0.50000000000E+03  0.50000000000E+03  0.00000000000E+00 0.  1.
         11   -1    0    0    0    0 -0.00000000000E+00 -0.00000000000E+00 -0.50000000000E+03  0.50000000000E+03  0.00000000000E+00 0.  1.
        -11    1    1    2    0    0 -0.83486933132E+01 -0.11999657302E+01  0.49724577940E+03  0.49731730889E+03  0.00000000000E+00 0.  1.
         11    1    1    2    0    0 -0.10905925594E+01  0.47876724845E+01 -0.92961661974E+02  0.93091255212E+02  0.00000000000E+00 0.  1.
        -15    1    1    2    0    0  0.20697527701E+02  0.12218688657E+02 -0.58654125467E+02  0.63412523753E+02  0.17770000000E+01 0. -1.
         15    1    1    2    0    0 -0.11258241828E+02 -0.15806395411E+02 -0.34562999195E+03  0.34617891214E+03  0.17770000000E+01 0.  1.
</event>
<event>
 6    1  0.1860328E-003  0.5061843E+03  0.7546771E-02  0.9386077E-01
        -11   -1    0    0    0    0  0.00000000000E+00  0.00000000000E+00  0.50000000000E+03  0.50000000000E+03  0.00000000000E+00 0. -1.
         11   -1    0    0    0    0 -0.00000000000E+00 -0.00000000000E+00 -0.50000000000E+03  0.50000000000E+03  0.00000000000E+00 0.  1.
        -11    1    1    2    0    0  0.53657893231E+01 -0.40367881858E+00  0.39864614837E+03  0.39868246295E+03  0.00000000000E+00 0. -1.
         11    1    1    2    0    0 -0.15509400499E+02 -0.10164022510E+01 -0.49357106087E+03  0.49381572140E+03  0.00000000000E+00 0.  1.
        -15    1    1    2    0    0 -0.44178984493E+01 -0.18424267600E+02  0.16172969885E+02  0.24973869288E+02  0.17770000000E+01 0. -1.
         15    1    1    2    0    0  0.14561509625E+02  0.19844348669E+02  0.78751942611E+02  0.82527946362E+02  0.17770000000E+01 0.  1.
</event>
<event>
 6    1  0.1860328E-003  0.3335572E+03  0.7546771E-02  0.9876064E-01
        -11   -1    0    0    0    0  0.00000000000E+00  0.00000000000E+00  0.50000000000E+03  0.50000000000E+03  0.00000000000E+00 0.  1.
         11   -1    0    0    0    0 -0.00000000000E+00 -0.00000000000E+00 -0.50000000000E+03  0.50000000000E+03  0.00000000000E+00 0. -1.
        -11    1    1    2    0    0 -0.50656586206E+01  0.84670283784E+02  0.18433886694E+03  0.20291755892E+03  0.00000000000E+00 0.  1.
         11    1    1    2    0    0 -0.18278932653E+02  0.33947779083E+02 -0.35987480290E+03  0.36193431013E+03  0.00000000000E+00 0. -1.
        -15    1    1    2    0    0  0.61370532858E+02 -0.10385512812E+03  0.28974552513E+03  0.31385961352E+03  0.17770000000E+01 0.  1.
         15    1    1    2    0    0 -0.38025941584E+02 -0.14762934747E+02 -0.11420958916E+03  0.12128851743E+03  0.17770000000E+01 0. -1.
</event>
<event>
 6    1  0.1860328E-003  0.5122637E+03  0.7546771E-02  0.9372779E-01
        -11   -1    0    0    0    0  0.00000000000E+00  0.00000000000E+00  0.50000000000E+03  0.50000000000E+03  0.00000000000E+00 0.  1.
         11   -1    0    0    0    0 -0.00000000000E+00 -0.00000000000E+00 -0.50000000000E+03  0.50000000000E+03  0.00000000000E+00 0. -1.
        -11    1    1    2    0    0 -0.22139251029E+01  0.62931059794E+01  0.46618733992E+03  0.46623507005E+03  0.00000000000E+00 0.  1.
         11    1    1    2    0    0 -0.78904153076E+01  0.55321142342E+00 -0.48767215062E+03  0.48773629267E+03  0.00000000000E+00 0. -1.
        -15    1    1    2    0    0  0.64971825918E+01 -0.29040791238E+01 -0.10910792264E+02  0.13147249675E+02  0.17770000000E+01 0.  1.
         15    1    1    2    0    0  0.36071578187E+01 -0.39422382791E+01  0.32395602969E+02  0.32881387606E+02  0.17770000000E+01 0.  1.
</event>
<event>
 6    1  0.1860328E-003  0.5133377E+03  0.7546771E-02  0.9370450E-01
        -11   -1    0    0    0    0  0.00000000000E+00  0.00000000000E+00  0.50000000000E+03  0.50000000000E+03  0.00000000000E+00 0. -1.
         11   -1    0    0    0    0 -0.00000000000E+00 -0.00000000000E+00 -0.50000000000E+03  0.50000000000E+03  0.00000000000E+00 0.  1.
        -11    1    1    2    0    0 -0.90757987499E+01  0.98663418034E+01  0.48647759779E+03  0.48666227301E+03  0.00000000000E+00 0. -1.
         11    1    1    2    0    0  0.33281767999E+02 -0.29913985730E+01 -0.41283894280E+03  0.41418910806E+03  0.00000000000E+00 0.  1.
        -15    1    1    2    0    0  0.15954399227E+02 -0.12200131934E+02 -0.45569056312E+02  0.49830539793E+02  0.17770000000E+01 0.  1.
         15    1    1    2    0    0 -0.40160368477E+02  0.53251887035E+01 -0.28069598675E+02  0.49318079136E+02  0.17770000000E+01 0. -1.
</event>
<event>
 6    1  0.1860328E-003  0.5010194E+03  0.7546771E-02  0.9397532E-01
        -11   -1    0    0    0    0  0.00000000000E+00  0.00000000000E+00  0.50000000000E+03  0.50000000000E+03  0.00000000000E+00 0. -1.
         11   -1    0    0    0    0 -0.00000000000E+00 -0.00000000000E+00 -0.50000000000E+03  0.50000000000E+03  0.00000000000E+00 0.  1.
        -11    1    1    2    0    0  0.49351275344E+01 -0.90602725134E+01  0.49887397184E+03  0.49898064472E+03  0.00000000000E+00 0. -1.
         11    1    1    2    0    0 -0.46552955807E+01  0.85109058667E+01 -0.40627296344E+03  0.40638876476E+03  0.00000000000E+00 0.  1.
        -15    1    1    2    0    0  0.24270608035E+01 -0.87564193274E+01 -0.54231931713E+02  0.55016594314E+02  0.17770000000E+01 0. -1.
         15    1    1    2    0    0 -0.27068927572E+01  0.93057859740E+01 -0.38369076684E+02  0.39613996209E+02  0.17770000000E+01 0.  1.
</event>
<event>
 6    1  0.1860328E-003  0.5037886E+03  0.7546771E-02  0.9391372E-01
        -11   -1    0    0    0    0  0.00000000000E+00  0.00000000000E+00  0.50000000000E+03  0.50000000000E+03  0.00000000000E+00 0.  1.
         11   -1    0    0    0    0 -0.00000000000E+00 -0.00000000000E+00 -0.50000000000E+03  0.50000000000E+03  0.00000000000E+00 0. -1.
        -11    1    1    2    0    0  0.75380802181E+01 -0.42535731216E+01  0.47417191962E+03  0.47425090922E+03  0.00000000000E+00 0.  1.
         11    1    1    2    0    0 -0.96806564588E+01  0.63870231923E+01 -0.49607581311E+03  0.49621136780E+03  0.00000000000E+00 0. -1.
        -15    1    1    2    0    0  0.89391175772E+01 -0.37741922178E+01  0.47911625083E+01  0.10966554479E+02  0.17770000000E+01 0. -1.
         15    1    1    2    0    0 -0.67965413365E+01  0.16407421470E+01  0.17112730987E+02  0.18571168508E+02  0.17770000000E+01 0.  1.
</event>
<event>
 6    1  0.1860328E-003  0.5001025E+03  0.7546771E-02  0.9399580E-01
        -11   -1    0    0    0    0  0.00000000000E+00  0.00000000000E+00  0.50000000000E+03  0.50000000000E+03  0.00000000000E+00 0.  1.
         11   -1    0    0    0    0 -0.00000000000E+00 -0.00000000000E+00 -0.50000000000E+03  0.50000000000E+03  0.00000000000E+00 0.  1.
        -11    1    1    2    0    0  0.31812586535E+00  0.19193786416E+01  0.12929629754E+03  0.12931093448E+03  0.00000000000E+00 0.  1.
         11    1    1    2    0    0  0.59416840626E+00 -0.70407873188E+01 -0.49984753567E+03  0.49989747412E+03  0.00000000000E+00 0.  1.
        -15    1    1    2    0    0 -0.56281762608E+01 -0.33302569424E+00  0.15680699141E+03  0.15691837865E+03  0.17770000000E+01 0.  1.
         15    1    1    2    0    0  0.47158819892E+01  0.54544343715E+01  0.21374424672E+03  0.21387321275E+03  0.17770000000E+01 0. -1.
</event>
<event>
 6    1  0.1860328E-003  0.5499446E+03  0.7546771E-02  0.9294505E-01
        -11   -1    0    0    0    0  0.00000000000E+00  0.00000000000E+00  0.50000000000E+03  0.50000000000E+03  0.00000000000E+00 0. -1.
         11   -1    0    0    0    0 -0.00000000000E+00 -0.00000000000E+00 -0.50000000000E+03  0.50000000000E+03  0.00000000000E+00 0.  1.
        -11    1    1    2    0    0 -0.22739089017E+02  0.45731073172E-01  0.44948060528E+03  0.45005542190E+03  0.00000000000E+00 0. -1.
         11    1    1    2    0    0  0.38006787852E+01  0.23377637716E+02 -0.38761451756E+03  0.38833744775E+03  0.00000000000E+00 0.  1.
        -15    1    1    2    0    0  0.20588220252E+02  0.21528624465E+01  0.46132330540E+02  0.50595051931E+02  0.17770000000E+01 0. -1.
         15    1    1    2    0    0 -0.16498100203E+01 -0.25576231235E+02 -0.10799841826E+03  0.11101207841E+03  0.17770000000E+01 0.  1.
</event>
<event>
 6    1  0.1860328E-003  0.5081266E+03  0.7546771E-02  0.9381807E-01
        -11   -1    0    0    0    0  0.00000000000E+00  0.00000000000E+00  0.50000000000E+03  0.50000000000E+03  0.00000000000E+00 0. -1.
         11   -1    0    0    0    0 -0.00000000000E+00 -0.00000000000E+00 -0.50000000000E+03  0.50000000000E+03  0.00000000000E+00 0.  1.
        -11    1    1    2    0    0 -0.18773564885E+02  0.31155503017E+02  0.49052654721E+03  0.49187336340E+03  0.00000000000E+00 0. -1.
         11    1    1    2    0    0  0.14623356392E+02 -0.34246935730E+02 -0.25906356035E+03  0.26172623763E+03  0.00000000000E+00 0.  1.
        -15    1    1    2    0    0  0.33722107677E+02 -0.14979445370E+02 -0.53058834180E+02  0.64652625185E+02  0.17770000000E+01 0. -1.
         15    1    1    2    0    0 -0.29571899184E+02  0.18070878084E+02 -0.17840415268E+03  0.18174777379E+03  0.17770000000E+01 0.  1.
</event>
<event>
 6    1  0.1860328E-003  0.5091835E+03  0.7546771E-02  0.9379492E-01
        -11   -1    0    0    0    0  0.00000000000E+00  0.00000000000E+00  0.50000000000E+03  0.50000000000E+03  0.00000000000E+00 0. -1.
         11   -1    0    0    0    0 -0.00000000000E+00 -0.00000000000E+00 -0.50000000000E+03  0.50000000000E+03  0.00000000000E+00 0. -1.
        -11    1    1    2    0    0  0.31710981371E+01 -0.60499908636E+01  0.49076893844E+03  0.49081647201E+03  0.00000000000E+00 0. -1.
         11    1    1    2    0    0 -0.41597342363E+01 -0.74351945592E+01 -0.46702420014E+03  0.46710190433E+03  0.00000000000E+00 0. -1.
        -15    1    1    2    0    0  0.45641964986E+01  0.14801961736E+02  0.22467251720E+01  0.15752316145E+02  0.17770000000E+01 0.  1.
         15    1    1    2    0    0 -0.35755603994E+01 -0.13167763135E+01 -0.25991463471E+02  0.26329307518E+02  0.17770000000E+01 0. -1.
</event>
<event>
 6    1  0.1860328E-003  0.5059681E+03  0.7546771E-02  0.9386554E-01
        -11   -1    0    0    0    0  0.00000000000E+00  0.00000000000E+00  0.50000000000E+03  0.50000000000E+03  0.00000000000E+00 0.  1.
         11   -1    0    0    0    0 -0.00000000000E+00 -0.00000000000E+00 -0.50000000000E+03  0.50000000000E+03  0.00000000000E+00 0.  1.
        -11    1    1    2    0    0 -0.56616979887E+01 -0.36819193310E+01  0.49398568750E+03  0.49403185202E+03  0.00000000000E+00 0.  1.
         11    1    1    2    0    0  0.17502454722E+01  0.92605475718E+01 -0.44572289693E+03  0.44582252292E+03  0.00000000000E+00 0.  1.
        -15    1    1    2    0    0 -0.29983514755E+01 -0.10293706674E+02 -0.50211798229E+02  0.51374438381E+02  0.17770000000E+01 0.  1.
         15    1    1    2    0    0  0.69098039920E+01  0.47150784331E+01  0.19490076569E+01  0.87711866749E+01  0.17770000000E+01 0.  1.
</event>
<event>
 6    1  0.1860328E-003  0.5403149E+03  0.7546771E-02  0.9313862E-01
        -11   -1    0    0    0    0  0.00000000000E+00  0.00000000000E+00  0.50000000000E+03  0.50000000000E+03  0.00000000000E+00 0.  1.
         11   -1    0    0    0    0 -0.00000000000E+00 -0.00000000000E+00 -0.50000000000E+03  0.50000000000E+03  0.00000000000E+00 0.  1.
        -11    1    1    2    0    0 -0.36797868551E+02  0.85677724184E+01  0.45812979956E+03  0.45968511298E+03  0.00000000000E+00 0.  1.
         11    1    1    2    0    0  0.24078506134E+01  0.65054497414E+01 -0.36674456035E+03  0.36681015685E+03  0.00000000000E+00 0.  1.
        -15    1    1    2    0    0  0.42532060671E+02 -0.19559941750E+01  0.29369240298E+02  0.51754343806E+02  0.17770000000E+01 0.  1.
         15    1    1    2    0    0 -0.81420427332E+01 -0.13117227985E+02 -0.12075447950E+03  0.12175038636E+03  0.17770000000E+01 0. -1.
</event>
<event>
 6    1  0.1860328E-003  0.5148384E+03  0.7546771E-02  0.9367206E-01
        -11   -1    0    0    0    0  0.00000000000E+00  0.00000000000E+00  0.50000000000E+03  0.50000000000E+03  0.00000000000E+00 0. -1.
         11   -1    0    0    0    0 -0.00000000000E+00 -0.00000000000E+00 -0.50000000000E+03  0.50000000000E+03  0.00000000000E+00 0.  1.
        -11    1    1    2    0    0  0.16243618562E+02 -0.16706157267E+02  0.37976707251E+03  0.38048124816E+03  0.00000000000E+00 0. -1.
         11    1    1    2    0    0  0.34407982069E+02  0.43472028946E+02 -0.48198350227E+03  0.48516164625E+03  0.00000000000E+00 0.  1.
        -15    1    1    2    0    0 -0.41308952401E+02 -0.13945909643E+02  0.15690251933E+02  0.46370892584E+02  0.17770000000E+01 0.  1.
         15    1    1    2    0    0 -0.93426482295E+01 -0.12819962035E+02  0.86526177820E+02  0.87986213009E+02  0.17770000000E+01 0. -1.
</event>
<event>
 6    1  0.1860328E-003  0.5000962E+03  0.7546771E-02  0.9399594E-01
        -11   -1    0    0    0    0  0.00000000000E+00  0.00000000000E+00  0.50000000000E+03  0.50000000000E+03  0.00000000000E+00 0. -1.
         11   -1    0    0    0    0 -0.00000000000E+00 -0.00000000000E+00 -0.50000000000E+03  0.50000000000E+03  0.00000000000E+00 0. -1.
        -11    1    1    2    0    0  0.10641890439E+01  0.45235951239E+01  0.12618487794E+03  0.12627041947E+03  0.00000000000E+00 0. -1.
         11    1    1    2    0    0 -0.48385110990E+01 -0.50156804934E+01 -0.49985522435E+03  0.49990380430E+03  0.00000000000E+00 0. -1.
        -15    1    1    2    0    0  0.48099391527E+01 -0.44667555443E+00  0.35203424792E+03  0.35207187401E+03  0.17770000000E+01 0. -1.
         15    1    1    2    0    0 -0.10356170977E+01  0.93876092387E+00  0.21636098491E+02  0.21753902219E+02  0.17770000000E+01 0. -1.
</event>
<event>
 6    1  0.1860328E-003  0.5010950E+03  0.7546771E-02  0.9397363E-01
        -11   -1    0    0    0    0  0.00000000000E+00  0.00000000000E+00  0.50000000000E+03  0.50000000000E+03  0.00000000000E+00 0.  1.
         11   -1    0    0    0    0 -0.00000000000E+00 -0.00000000000E+00 -0.50000000000E+03  0.50000000000E+03  0.00000000000E+00 0. -1.
        -11    1    1    2    0    0 -0.81502381242E+01 -0.17460276000E+01  0.49883533755E+03  0.49890496989E+03  0.00000000000E+00 0.  1.
         11    1    1    2    0    0  0.96615019784E+01  0.28928291434E+00 -0.24852299400E+03  0.24871089009E+03  0.00000000000E+00 0. -1.
        -15    1    1    2    0    0  0.95078726089E+01 -0.40064055206E+01 -0.20853823654E+03  0.20880087345E+03  0.17770000000E+01 0. -1.
         15    1    1    2    0    0 -0.11019136463E+02  0.54631502063E+01 -0.41774107011E+02  0.43583266561E+02  0.17770000000E+01 0.  1.
</event>
<event>
 6    1  0.1860328E-003  0.5023510E+03  0.7546771E-02  0.9394564E-01
        -11   -1    0    0    0    0  0.00000000000E+00  0.00000000000E+00  0.50000000000E+03  0.50000000000E+03  0.00000000000E+00 0. -1.
         11   -1    0    0    0    0 -0.00000000000E+00 -0.00000000000E+00 -0.50000000000E+03  0.50000000000E+03  0.00000000000E+00 0. -1.
        -11    1    1    2    0    0 -0.11787563996E+01 -0.11824464518E+02  0.49750710810E+03  0.49764900285E+03  0.00000000000E+00 0. -1.
         11    1    1    2    0    0  0.44794616971E+01 -0.10136155301E+02 -0.34287112789E+03  0.34305016771E+03  0.00000000000E+00 0. -1.
        -15    1    1    2    0    0 -0.47549365537E+00  0.67812648447E+01 -0.12988397250E+03  0.13007388550E+03  0.17770000000E+01 0. -1.
         15    1    1    2    0    0 -0.28252116422E+01  0.15179354975E+02 -0.24752007702E+02  0.29226943948E+02  0.17770000000E+01 0.  1.
</event>
<event>
 6    1  0.1860328E-003  0.5011344E+03  0.7546771E-02  0.9397275E-01
        -11   -1    0    0    0    0  0.00000000000E+00  0.00000000000E+00  0.50000000000E+03  0.50000000000E+03  0.00000000000E+00 0.  1.
         11   -1    0    0    0    0 -0.00000000000E+00 -0.00000000000E+00 -0.50000000000E+03  0.50000000000E+03  0.00000000000E+00 0.  1.
        -11    1    1    2    0    0  0.11101211990E+02 -0.81381986837E+00  0.49874144693E+03  0.49886564333E+03  0.00000000000E+00 0.  1.
         11    1    1    2    0    0  0.95305302265E+01 -0.26569645794E+01 -0.28959828153E+03  0.28976724303E+03  0.00000000000E+00 0.  1.
        -15    1    1    2    0    0 -0.10780946665E+02 -0.13308019149E+01 -0.17735201880E+03  0.17769326421E+03  0.17770000000E+01 0. -1.
         15    1    1    2    0    0 -0.98507955511E+01  0.48015863626E+01 -0.31791146597E+02  0.33673849432E+02  0.17770000000E+01 0.  1.
</event>
<event>
 6    1  0.1860328E-003  0.5008447E+03  0.7546771E-02  0.9397922E-01
        -11   -1    0    0    0    0  0.00000000000E+00  0.00000000000E+00  0.50000000000E+03  0.50000000000E+03  0.00000000000E+00 0.  1.
         11   -1    0    0    0    0 -0.00000000000E+00 -0.00000000000E+00 -0.50000000000E+03  0.50000000000E+03  0.00000000000E+00 0. -1.
        -11    1    1    2    0    0  0.10765009835E+02 -0.63328585202E+00  0.49903876633E+03  0.49915526320E+03  0.00000000000E+00 0.  1.
         11    1    1    2    0    0 -0.18522489256E+01 -0.61748151499E+01 -0.37947365253E+03  0.37952840754E+03  0.00000000000E+00 0. -1.
        -15    1    1    2    0    0 -0.13103494624E+02  0.55515243565E+01 -0.10571429639E+03  0.10668266581E+03  0.17770000000E+01 0. -1.
         15    1    1    2    0    0  0.41907337146E+01  0.12565766454E+01 -0.13850817412E+02  0.14633663448E+02  0.17770000000E+01 0.  1.
</event>
<event>
 6    1  0.1860328E-003  0.5020817E+03  0.7546771E-02  0.9395164E-01
        -11   -1    0    0    0    0  0.00000000000E+00  0.00000000000E+00  0.50000000000E+03  0.50000000000E+03  0.00000000000E+00 0. -1.
         11   -1    0    0    0    0 -0.00000000000E+00 -0.00000000000E+00 -0.50000000000E+03  0.50000000000E+03  0.00000000000E+00 0.  1.
        -11    1    1    2    0    0 -0.24113104731E+01 -0.66987373215E+01  0.28642611823E+03  0.28651458724E+03  0.00000000000E+00 0. -1.
         11    1    1    2    0    0 -0.31448417599E+01  0.10295968394E+02 -0.49780193749E+03  0.49791833262E+03  0.00000000000E+00 0.  1.
        -15    1    1    2    0    0 -0.45376791394E+01 -0.12556561088E+02  0.18825637978E+03  0.18873759566E+03  0.17770000000E+01 0. -1.
         15    1    1    2    0    0  0.10093831372E+02  0.89593300156E+01  0.23119439479E+02  0.26829484470E+02  0.17770000000E+01 0.  1.
</event>
<event>
 6    1  0.1860328E-003  0.5227362E+03  0.7546771E-02  0.9350325E-01
        -11   -1    0    0    0    0  0.00000000000E+00  0.00000000000E+00  0.50000000000E+03  0.50000000000E+03  0.00000000000E+00 0. -1.
         11   -1    0    0    0    0 -0.00000000000E+00 -0.00000000000E+00 -0.50000000000E+03  0.50000000000E+03  0.00000000000E+00 0.  1.
        -11    1    1    2    0    0 -0.10701035399E+02  0.46455721710E+00  0.45307557707E+03  0.45320216958E+03  0.00000000000E+00 0. -1.
         11    1    1    2    0    0  0.22073522653E+02 -0.11547762775E+02 -0.47661323364E+03  0.47726383239E+03  0.00000000000E+00 0.  1.
        -15    1    1    2    0    0 -0.23894592512E+02  0.21346892726E+02  0.36584769340E+02  0.48664611958E+02  0.17770000000E+01 0.  1.
         15    1    1    2    0    0  0.12522105258E+02 -0.10263687168E+02 -0.13047112772E+02  0.20869386073E+02  0.17770000000E+01 0. -1.
</event>
<event>
 6    1  0.1860328E-003  0.5013911E+03  0.7546771E-02  0.9396702E-01
        -11   -1    0    0    0    0  0.00000000000E+00  0.00000000000E+00  0.50000000000E+03  0.50000000000E+03  0.00000000000E+00 0. -1.
         11   -1    0    0    0    0 -0.00000000000E+00 -0.00000000000E+00 -0.50000000000E+03  0.50000000000E+03  0.00000000000E+00 0. -1.
        -11    1    1    2    0    0  0.41929220972E+01 -0.52661063436E+01  0.49856348859E+03  0.49860892955E+03  0.00000000000E+00 0. -1.
         11    1    1    2    0    0 -0.92118545632E+01 -0.38732373404E+01 -0.43855732930E+03  0.43867116535E+03  0.00000000000E+00 0. -1.
        -15    1    1    2    0    0  0.45650516956E+01 -0.77110276370E+00 -0.40121907880E+02  0.40427212585E+02  0.17770000000E+01 0. -1.
         15    1    1    2    0    0  0.45388077035E+00  0.99104464477E+01 -0.19884251409E+02  0.22292692517E+02  0.17770000000E+01 0.  1.
</event>
<event>
 6    1  0.1860328E-003  0.5056534E+03  0.7546771E-02  0.9387248E-01
        -11   -1    0    0    0    0  0.00000000000E+00  0.00000000000E+00  0.50000000000E+03  0.50000000000E+03  0.00000000000E+00 0.  1.
         11   -1    0    0    0    0 -0.00000000000E+00 -0.00000000000E+00 -0.50000000000E+03  0.50000000000E+03  0.00000000000E+00 0. -1.
        -11    1    1    2    0    0  0.99979308408E+01  0.18230725868E+01  0.48177872458E+03  0.48188590109E+03  0.00000000000E+00 0.  1.
         11    1    1    2    0    0 -0.16351625512E+01 -0.81697526240E+01 -0.49427635786E+03  0.49434657535E+03  0.00000000000E+00 0. -1.
        -15    1    1    2    0    0 -0.27427314610E+01  0.52367258876E+01 -0.32072386703E+01  0.69562908779E+01  0.17770000000E+01 0. -1.
         15    1    1    2    0    0 -0.56200368285E+01  0.11099541495E+01  0.15704871957E+02  0.16811232684E+02  0.17770000000E+01 0.  1.
</event>
<event>
 6    1  0.1860328E-003  0.5044155E+03  0.7546771E-02  0.9389984E-01
        -11   -1    0    0    0    0  0.00000000000E+00  0.00000000000E+00  0.50000000000E+03  0.50000000000E+03  0.00000000000E+00 0. -1.
         11   -1    0    0    0    0 -0.00000000000E+00 -0.00000000000E+00 -0.50000000000E+03  0.50000000000E+03  0.00000000000E+00 0. -1.
        -11    1    1    2    0    0  0.58702140468E+01  0.23106341248E+01  0.46115741034E+03  0.46120055893E+03  0.00000000000E+00 0. -1.
         11    1    1    2    0    0 -0.61495315861E+01 -0.69000768834E+01 -0.49549828925E+03  0.49558448568E+03  0.00000000000E+00 0. -1.
        -15    1    1    2    0    0  0.85196441393E+01  0.77266271132E+00  0.12155055831E+01  0.88213676235E+01  0.17770000000E+01 0. -1.
         15    1    1    2    0    0 -0.82403266000E+01  0.38167800473E+01  0.33125373324E+02  0.34393587764E+02  0.17770000000E+01 0.  1.
</event>
<event>
 6    1  0.1860328E-003  0.5030980E+03  0.7546771E-02  0.9392904E-01
        -11   -1    0    0    0    0  0.00000000000E+00  0.00000000000E+00  0.50000000000E+03  0.50000000000E+03  0.00000000000E+00 0. -1.
         11   -1    0    0    0    0 -0.00000000000E+00 -0.00000000000E+00 -0.50000000000E+03  0.50000000000E+03  0.00000000000E+00 0. -1.
        -11    1    1    2    0    0  0.78959064435E+01 -0.41347987371E+01  0.41170832812E+03  0.41180479519E+03  0.00000000000E+00 0. -1.
         11    1    1    2    0    0 -0.69305631940E+01  0.29883157589E+01 -0.49684468254E+03  0.49690200372E+03  0.00000000000E+00 0. -1.
        -15    1    1    2    0    0  0.21409887997E+01 -0.10130681525E+01 -0.23047225605E+01  0.37522813331E+01  0.17770000000E+01 0.  1.
         15    1    1    2    0    0 -0.31063320492E+01  0.21595511307E+01  0.87441076978E+02  0.87540919757E+02  0.17770000000E+01 0. -1.
</event>
<event>
 6    1  0.1860328E-003  0.5505875E+03  0.7546771E-02  0.9293228E-01
        -11   -1    0    0    0    0  0.00000000000E+00  0.00000000000E+00  0.50000000000E+03  0.50000000000E+03  0.00000000000E+00 0. -1.
         11   -1    0    0    0    0 -0.00000000000E+00 -0.00000000000E+00 -0.50000000000E+03  0.50000000000E+03  0.00000000000E+00 0. -1.
        -11    1    1    2    0    0 -0.11398865250E+01  0.79963492724E+01  0.38542809268E+03  0.38551271778E+03  0.00000000000E+00 0. -1.
         11    1    1    2    0    0  0.92556539100E+01  0.66622231564E+01 -0.44926776542E+03  0.44941248024E+03  0.00000000000E+00 0. -1.
        -15    1    1    2    0    0 -0.50189628456E+01 -0.71858980272E+01 -0.50071009371E+02  0.50863452763E+02  0.17770000000E+01 0. -1.
         15    1    1    2    0    0 -0.30968045393E+01 -0.74726744017E+01  0.11391068211E+03  0.11421134921E+03  0.17770000000E+01 0.  1.
</event>
<event>
 6    1  0.1860328E-003  0.5000897E+03  0.7546771E-02  0.9399609E-01
        -11   -1    0    0    0    0  0.00000000000E+00  0.00000000000E+00  0.50000000000E+03  0.50000000000E+03  0.00000000000E+00 0. -1.
         11   -1    0    0    0    0 -0.00000000000E+00 -0.00000000000E+00 -0.50000000000E+03  0.50000000000E+03  0.00000000000E+00 0.  1.
        -11    1    1    2    0    0  0.10196184646E+02  0.49207127272E+01  0.49978206829E+03  0.49991028333E+03  0.00000000000E+00 0. -1.
         11    1    1    2    0    0 -0.10717647515E+01 -0.28023603254E+01 -0.21714458444E+03  0.21716531136E+03  0.00000000000E+00 0.  1.
        -15    1    1    2    0    0 -0.34106303065E+01 -0.44718014205E+01 -0.17120504502E+03  0.17130660984E+03  0.17770000000E+01 0. -1.
         15    1    1    2    0    0 -0.57137895876E+01  0.23534490187E+01 -0.11143243883E+03  0.11161779547E+03  0.17770000000E+01 0.  1.
</event>
<event>
 6    1  0.1860328E-003  0.5022072E+03  0.7546771E-02  0.9394884E-01
        -11   -1    0    0    0    0  0.00000000000E+00  0.00000000000E+00  0.50000000000E+03  0.50000000000E+03  0.00000000000E+00 0. -1.
         11   -1    0    0    0    0 -0.00000000000E+00 -0.00000000000E+00 -0.50000000000E+03  0.50000000000E+03  0.00000000000E+00 0. -1.
        -11    1    1    2    0    0 -0.86621900315E+01 -0.12749221371E+02  0.49755411162E+03  0.49779279844E+03  0.00000000000E+00 0. -1.
         11    1    1    2    0    0 -0.14252195375E+02  0.10828140351E+02 -0.23904129877E+03  0.23971048416E+03  0.00000000000E+00 0. -1.
        -15    1    1    2    0    0  0.79308387835E+01  0.75103109907E+01 -0.22550021412E+03  0.22577158207E+03  0.17770000000E+01 0. -1.
         15    1    1    2    0    0  0.14983546623E+02 -0.55892299712E+01 -0.33012598735E+02  0.36725135335E+02  0.17770000000E+01 0.  1.
</event>
<event>
 6    1  0.1860328E-003  0.5049238E+03  0.7546771E-02  0.9388859E-01
        -11   -1    0    0    0    0  0.00000000000E+00  0.00000000000E+00  0.50000000000E+03  0.50000000000E+03  0.00000000000E+00 0.  1.
         11   -1    0    0    0    0 -0.00000000000E+00 -0.00000000000E+00 -0.50000000000E+03  0.50000000000E+03  0.00000000000E+00 0. -1.
        -11    1    1    2    0    0  0.77090146233E+01 -0.14335998311E+01  0.49501411930E+03  0.49507621880E+03  0.00000000000E+00 0.  1.
         11    1    1    2    0    0 -0.13288251930E+02  0.11742937589E+01 -0.48056180376E+03  0.48074692286E+03  0.00000000000E+00 0. -1.
        -15    1    1    2    0    0  0.30367806510E+00  0.18939803082E+01  0.40307467003E+01  0.48045842418E+01  0.17770000000E+01 0. -1.
         15    1    1    2    0    0  0.52755592419E+01 -0.16346742360E+01 -0.18483062242E+02  0.19372274105E+02  0.17770000000E+01 0.  1.
</event>
<event>
 6    1  0.1860328E-003  0.5493573E+03  0.7546771E-02  0.9295674E-01
        -11   -1    0    0    0    0  0.00000000000E+00  0.00000000000E+00  0.50000000000E+03  0.50000000000E+03  0.00000000000E+00 0.  1.
         11   -1    0    0    0    0 -0.00000000000E+00 -0.00000000000E+00 -0.50000000000E+03  0.50000000000E+03  0.00000000000E+00 0.  1.
        -11    1    1    2    0    0 -0.75127131544E+01  0.77490195904E+01  0.36990597546E+03  0.37006339841E+03  0.00000000000E+00 0.  1.
         11    1    1    2    0    0  0.26269143169E+02  0.76610124420E+01 -0.44981114488E+03  0.45064268002E+03  0.00000000000E+00 0.  1.
        -15    1    1    2    0    0 -0.31360017530E+02 -0.12402586839E+02 -0.43571633501E+02  0.55126398710E+02  0.17770000000E+01 0.  1.
         15    1    1    2    0    0  0.12603587515E+02 -0.30074451932E+01  0.12347680292E+03  0.12416752286E+03  0.17770000000E+01 0. -1.
</event>
<event>
 6    1  0.1860328E-003  0.5047953E+03  0.7546771E-02  0.9389143E-01
        -11   -1    0    0    0    0  0.00000000000E+00  0.00000000000E+00  0.50000000000E+03  0.50000000000E+03  0.00000000000E+00 0.  1.
         11   -1    0    0    0    0 -0.00000000000E+00 -0.00000000000E+00 -0.50000000000E+03  0.50000000000E+03  0.00000000000E+00 0. -1.
        -11    1    1    2    0    0 -0.75687722659E+01  0.30504270629E+01  0.45429881115E+03  0.45437209557E+03  0.00000000000E+00 0.  1.
         11    1    1    2    0    0 -0.32604904871E+01  0.88334384776E+01 -0.49511513038E+03  0.49520465746E+03  0.00000000000E+00 0. -1.
        -15    1    1    2    0    0 -0.47622410802E+01 -0.65310386118E+01  0.24553885750E+01  0.86325006522E+01  0.17770000000E+01 0.  1.
         15    1    1    2    0    0  0.15591503833E+02 -0.53528269286E+01  0.38360930663E+02  0.41790746323E+02  0.17770000000E+01 0. -1.
</event>
<event>
 6    1  0.1860328E-003  0.5040391E+03  0.7546771E-02  0.9390817E-01
        -11   -1    0    0    0    0  0.00000000000E+00  0.00000000000E+00  0.50000000000E+03  0.50000000000E+03  0.00000000000E+00 0. -1.
         11   -1    0    0    0    0 -0.00000000000E+00 -0.00000000000E+00 -0.50000000000E+03  0.50000000000E+03  0.00000000000E+00 0. -1.
        -11    1    1    2    0    0 -0.32984213545E+01  0.54927649955E+01  0.39455075471E+03  0.39460277253E+03  0.00000000000E+00 0. -1.
         11    1    1    2    0    0 -0.50866804125E+01  0.51505269927E+01 -0.49590802899E+03  0.49596086081E+03  0.00000000000E+00 0. -1.
        -15    1    1    2    0    0  0.68026608446E+01  0.37931708243E+01  0.91376577318E+02  0.91725138053E+02  0.17770000000E+01 0. -1.
         15    1    1    2    0    0  0.15824409224E+01 -0.14436462813E+02  0.99806969621E+01  0.17711228604E+02  0.17770000000E+01 0.  1.
</event>
<event>
 6    1  0.1860328E-003  0.5080410E+03  0.7546771E-02  0.9381995E-01
        -11   -1    0    0    0    0  0.00000000000E+00  0.00000000000E+00  0.50000000000E+03  0.50000000000E+03  0.00000000000E+00 0.  1.
         11   -1    0    0    0    0 -0.00000000000E+00 -0.00000000000E+00 -0.50000000000E+03  0.50000000000E+03  0.00000000000E+00 0. -1.
        -11    1    1    2    0    0  0.18111210415E+02  0.44356904270E+01  0.48417464357E+03  0.48453356619E+03  0.00000000000E+00 0.  1.
         11    1    1    2    0    0 -0.97777319990E+01  0.30770351111E+01 -0.49185221891E+03  0.49195902008E+03  0.00000000000E+00 0. -1.
        -15    1    1    2    0    0 -0.11659626654E+02 -0.96739535812E+01  0.67939033066E+00  0.15269301616E+02  0.17770000000E+01 0.  1.
         15    1    1    2    0    0  0.33261482383E+01  0.21612280430E+01  0.69981850113E+01  0.82381121144E+01  0.17770000000E+01 0. -1.
</event>
<event>
 6    1  0.1860328E-003  0.4865317E+03  0.7546771E-02  0.9430461E-01
        -11   -1    0    0    0    0  0.00000000000E+00  0.00000000000E+00  0.50000000000E+03  0.50000000000E+03  0.00000000000E+00 0.  1.
         11   -1    0    0    0    0 -0.00000000000E+00 -0.00000000000E+00 -0.50000000000E+03  0.50000000000E+03  0.00000000000E+00 0.  1.
        -11    1    1    2    0    0 -0.44428227850E+01  0.94440806388E+01  0.48833270284E+03  0.48844422199E+03  0.00000000000E+00 0.  1.
         11    1    1    2    0    0 -0.11275342980E+01 -0.14129783385E+02 -0.48444681826E+03  0.48465414662E+03  0.00000000000E+00 0.  1.
        -15    1    1    2    0    0  0.31149367632E+01  0.64900962747E+01 -0.14189949945E+02  0.16010514955E+02  0.17770000000E+01 0. -1.
         15    1    1    2    0    0  0.24554203198E+01 -0.18043935284E+01  0.10304065367E+02  0.10891116428E+02  0.17770000000E+01 0.  1.
</event>
<event>
 6    1  0.1860328E-003  0.5014497E+03  0.7546771E-02  0.9396572E-01
        -11   -1    0    0    0    0  0.00000000000E+00  0.00000000000E+00  0.50000000000E+03  0.50000000000E+03  0.00000000000E+00 0. -1.
         11   -1    0    0    0    0 -0.00000000000E+00 -0.00000000000E+00 -0.50000000000E+03  0.50000000000E+03  0.00000000000E+00 0. -1.
        -11    1    1    2    0    0 -0.17695506426E+01 -0.40876861486E+01  0.26585665402E+03  0.26589396566E+03  0.00000000000E+00 0. -1.
         11    1    1    2    0    0 -0.17167605339E+02 -0.14360805690E+02 -0.49804759885E+03  0.49855026841E+03  0.00000000000E+00 0. -1.
        -15    1    1    2    0    0  0.78147122819E+01  0.24021899746E+02  0.18479559197E+03  0.18652262580E+03  0.17770000000E+01 0. -1.
         15    1    1    2    0    0  0.11122443699E+02 -0.55734079069E+01  0.47395352861E+02  0.49033140134E+02  0.17770000000E+01 0.  1.
</event>
<event>
 6    1  0.1860328E-003  0.5012465E+03  0.7546771E-02  0.9397025E-01
        -11   -1    0    0    0    0  0.00000000000E+00  0.00000000000E+00  0.50000000000E+03  0.50000000000E+03  0.00000000000E+00 0. -1.
         11   -1    0    0    0    0 -0.00000000000E+00 -0.00000000000E+00 -0.50000000000E+03  0.50000000000E+03  0.00000000000E+00 0.  1.
        -11    1    1    2    0    0  0.38891294584E+01 -0.27905358773E+01  0.27196829202E+03  0.27201041208E+03  0.00000000000E+00 0. -1.
         11    1    1    2    0    0  0.41996028217E+01  0.54396798857E+01 -0.49870615689E+03  0.49875350395E+03  0.00000000000E+00 0.  1.
        -15    1    1    2    0    0 -0.89434212559E+01  0.33711517323E+01  0.21908845703E+03  0.21930403366E+03  0.17770000000E+01 0. -1.
         15    1    1    2    0    0  0.85468897584E+00 -0.60202957406E+01  0.76494078374E+01  0.99320503076E+01  0.17770000000E+01 0.  1.
</event>
<event>
 6    1  0.1860328E-003  0.5032274E+03  0.7546771E-02  0.9392617E-01
        -11   -1    0    0    0    0  0.00000000000E+00  0.00000000000E+00  0.50000000000E+03  0.50000000000E+03  0.00000000000E+00 0.  1.
         11   -1    0    0    0    0 -0.00000000000E+00 -0.00000000000E+00 -0.50000000000E+03  0.50000000000E+03  0.00000000000E+00 0.  1.
        -11    1    1    2    0    0 -0.13831026318E+02  0.12123051689E+02  0.34017761338E+03  0.34067444036E+03  0.00000000000E+00 0.  1.
         11    1    1    2    0    0 -0.17812445343E+02  0.71077595712E+01 -0.49640226363E+03  0.49677259465E+03  0.00000000000E+00 0.  1.
        -15    1    1    2    0    0  0.26616751028E+02 -0.65085608536E+01  0.13055914411E+03  0.13341536883E+03  0.17770000000E+01 0.  1.
         15    1    1    2    0    0  0.50267206338E+01 -0.12722250406E+02  0.25665506143E+02  0.29137596166E+02  0.17770000000E+01 0. -1.
</event>
<event>
 6    1  0.1860328E-003  0.5007148E+03  0.7546771E-02  0.9398212E-01
        -11   -1    0    0    0    0  0.00000000000E+00  0.00000000000E+00  0.50000000000E+03  0.50000000000E+03  0.00000000000E+00 0.  1.
         11   -1    0    0    0    0 -0.00000000000E+00 -0.00000000000E+00 -0.50000000000E+03  0.50000000000E+03  0.00000000000E+00 0. -1.
        -11    1    1    2    0    0  0.44838086906E+00  0.81655231595E+01  0.49921821938E+03  0.49928519643E+03  0.00000000000E+00 0.  1.
         11    1    1    2    0    0  0.38077281102E+00  0.48389205086E+01 -0.29538083477E+03  0.29542071303E+03  0.00000000000E+00 0. -1.
        -15    1    1    2    0    0  0.24237670629E-01 -0.44814714250E+01 -0.85864664284E+01  0.98472995447E+01  0.17770000000E+01 0.  1.
         15    1    1    2    0    0 -0.85339135071E+00 -0.85229722432E+01 -0.19525091818E+03  0.19544679099E+03  0.17770000000E+01 0. -1.
</event>
<event>
 6    1  0.1860328E-003  0.5004003E+03  0.7546771E-02  0.9398914E-01
        -11   -1    0    0    0    0  0.00000000000E+00  0.00000000000E+00  0.50000000000E+03  0.50000000000E+03  0.00000000000E+00 0. -1.
         11   -1    0    0    0    0 -0.00000000000E+00 -0.00000000000E+00 -0.50000000000E+03  0.50000000000E+03  0.00000000000E+00 0. -1.
        -11    1    1    2    0    0  0.19530862744E+01 -0.13342571195E+02  0.49941764425E+03  0.49959966187E+03  0.00000000000E+00 0. -1.
         11    1    1    2    0    0 -0.47662565799E+01  0.40119032528E+01 -0.36149411202E+03  0.36154779157E+03  0.00000000000E+00 0. -1.
        -15    1    1    2    0    0  0.68543668384E+01  0.29075321595E+01 -0.86990854003E+02  0.87326986076E+02  0.17770000000E+01 0.  1.
         15    1    1    2    0    0 -0.40411965329E+01  0.64231357823E+01 -0.50932678227E+02  0.51525560483E+02  0.17770000000E+01 0. -1.
</event>
<event>
 6    1  0.2697155E-003  0.5281438E+03  0.7546771E-02  0.9338948E-01
        -11   -1    0    0    0    0  0.00000000000E+00  0.00000000000E+00  0.50000000000E+03  0.50000000000E+03  0.00000000000E+00 0. -1.
         11   -1    0    0    0    0 -0.00000000000E+00 -0.00000000000E+00 -0.50000000000E+03  0.50000000000E+03  0.00000000000E+00 0. -1.
        -11    1    1    2    0    0  0.23255822738E+02 -0.57191300535E+01  0.42024939197E+03  0.42093122145E+03  0.00000000000E+00 0. -1.
         11    1    1    2    0    0  0.19509187037E+02  0.51473902030E+01 -0.47142462800E+03  0.47185621103E+03  0.00000000000E+00 0. -1.
        -15    1    1    2    0    0 -0.65064855057E+01 -0.29779091901E+01 -0.23216916918E+02  0.24359500343E+02  0.17770000000E+01 0. -1.
         15    1    1    2    0    0 -0.36258524269E+02  0.35496490406E+01  0.74392152950E+02  0.82853067173E+02  0.17770000000E+01 0.  1.
</event>
<event>
 6    1  0.1860328E-003  0.5688345E+03  0.7546771E-02  0.9257727E-01
        -11   -1    0    0    0    0  0.00000000000E+00  0.00000000000E+00  0.50000000000E+03  0.50000000000E+03  0.00000000000E+00 0. -1.
         11   -1    0    0    0    0 -0.00000000000E+00 -0.00000000000E+00 -0.50000000000E+03  0.50000000000E+03  0.00000000000E+00 0. -1.
        -11    1    1    2    0    0 -0.13752297530E+01  0.69873213662E+01  0.27593067805E+03  0.27602255888E+03  0.00000000000E+00 0. -1.
         11    1    1    2    0    0 -0.58900234939E+01 -0.96460719063E+02 -0.42019561160E+03  0.43116553052E+03  0.00000000000E+00 0. -1.
        -15    1    1    2    0    0  0.29435412027E+02  0.99170266463E+02 -0.37038814172E+02  0.10989184099E+03  0.17770000000E+01 0. -1.
         15    1    1    2    0    0 -0.22170158780E+02 -0.96968687663E+01  0.18130374772E+03  0.18292006962E+03  0.17770000000E+01 0.  1.
</event>
<event>
 6    1  0.1860328E-003  0.5038357E+03  0.7546771E-02  0.9391268E-01
        -11   -1    0    0    0    0  0.00000000000E+00  0.00000000000E+00  0.50000000000E+03  0.50000000000E+03  0.00000000000E+00 0.  1.
         11   -1    0    0    0    0 -0.00000000000E+00 -0.00000000000E+00 -0.50000000000E+03  0.50000000000E+03  0.00000000000E+00 0. -1.
        -11    1    1    2    0    0 -0.87868898803E+01  0.54136724174E+01  0.49605693448E+03  0.49616428683E+03  0.00000000000E+00 0.  1.
         11    1    1    2    0    0 -0.66367078838E+01 -0.13193557406E+01 -0.39797943207E+03  0.39803695173E+03  0.00000000000E+00 0. -1.
        -15    1    1    2    0    0  0.70959679317E+01 -0.16277793379E+01 -0.96504622282E+02  0.96795156270E+02  0.17770000000E+01 0.  1.
         15    1    1    2    0    0  0.83276298325E+01 -0.24665373390E+01 -0.15728801270E+01  0.90036051649E+01  0.17770000000E+01 0. -1.
</event>
<event>
 6    1  0.1860328E-003  0.5081684E+03  0.7546771E-02  0.9381716E-01
        -11   -1    0    0    0    0  0.00000000000E+00  0.00000000000E+00  0.50000000000E+03  0.50000000000E+03  0.00000000000E+00 0.  1.
         11   -1    0    0    0    0 -0.00000000000E+00 -0.00000000000E+00 -0.50000000000E+03  0.50000000000E+03  0.00000000000E+00 0. -1.
        -11    1    1    2    0    0 -0.64008050567E+01  0.85055728006E+01  0.46317056907E+03  0.46329287835E+03  0.00000000000E+00 0.  1.
         11    1    1    2    0    0  0.20337691631E+02  0.47034377289E+01 -0.49138845827E+03  0.49183163882E+03  0.00000000000E+00 0. -1.
        -15    1    1    2    0    0 -0.22945880470E+02 -0.10516663722E+02  0.19775455849E+02  0.32114483172E+02  0.17770000000E+01 0.  1.
         15    1    1    2    0    0  0.90089938956E+01 -0.26923468070E+01  0.84424333483E+01  0.12760999654E+02  0.17770000000E+01 0. -1.
</event>
<event>
 6    1  0.1860328E-003  0.5017578E+03  0.7546771E-02  0.9395885E-01
        -11   -1    0    0    0    0  0.00000000000E+00  0.00000000000E+00  0.50000000000E+03  0.50000000000E+03  0.00000000000E+00 0. -1.
         11   -1    0    0    0    0 -0.00000000000E+00 -0.00000000000E+00 -0.50000000000E+03  0.50000000000E+03  0.00000000000E+00 0. -1.
        -11    1    1    2    0    0  0.10542924763E+01 -0.10402109097E+02  0.49813248583E+03  0.49824219899E+03  0.00000000000E+00 0. -1.
         11    1    1    2    0    0  0.44360604880E+01 -0.57872435442E+01 -0.12689992333E+03  0.12710924971E+03  0.00000000000E+00 0. -1.
        -15    1    1    2    0    0 -0.21050357203E+01  0.19631814401E+02 -0.36808261378E+03  0.36861607074E+03  0.17770000000E+01 0. -1.
         15    1    1    2    0    0 -0.33853172441E+01 -0.34424617597E+01 -0.31499487271E+01  0.60324805672E+01  0.17770000000E+01 0.  1.
</event>
<event>
 6    1  0.1860328E-003  0.5008646E+03  0.7546771E-02  0.9397877E-01
        -11   -1    0    0    0    0  0.00000000000E+00  0.00000000000E+00  0.50000000000E+03  0.50000000000E+03  0.00000000000E+00 0.  1.
         11   -1    0    0    0    0 -0.00000000000E+00 -0.00000000000E+00 -0.50000000000E+03  0.50000000000E+03  0.00000000000E+00 0.  1.
        -11    1    1    2    0    0  0.46618119364E+01 -0.10992623264E+02  0.49899258455E+03  0.49913542220E+03  0.00000000000E+00 0.  1.
         11    1    1    2    0    0 -0.11246215889E+02 -0.58666604396E+01 -0.16144694309E+03  0.16194446736E+03  0.00000000000E+00 0.  1.
        -15    1    1    2    0    0 -0.48920497743E+01  0.14251677792E+02 -0.10734144669E+03  0.10840842392E+03  0.17770000000E+01 0. -1.
         15    1    1    2    0    0  0.11476453727E+02  0.26076059111E+01 -0.23020419478E+03  0.23051168652E+03  0.17770000000E+01 0.  1.
</event>
<event>
 6    1  0.1860328E-003  0.5005730E+03  0.7546771E-02  0.9398529E-01
        -11   -1    0    0    0    0  0.00000000000E+00  0.00000000000E+00  0.50000000000E+03  0.50000000000E+03  0.00000000000E+00 0. -1.
         11   -1    0    0    0    0 -0.00000000000E+00 -0.00000000000E+00 -0.50000000000E+03  0.50000000000E+03  0.00000000000E+00 0. -1.
        -11    1    1    2    0    0  0.21300642096E+01 -0.51138980569E+01  0.38159973445E+03  0.38163994348E+03  0.00000000000E+00 0. -1.
         11    1    1    2    0    0  0.94497107517E+01  0.60833672854E+01 -0.49930057721E+03  0.49942704251E+03  0.00000000000E+00 0. -1.
        -15    1    1    2    0    0 -0.13019834019E+02 -0.35436496490E+01  0.91417927186E+02  0.92425476308E+02  0.17770000000E+01 0.  1.
         15    1    1    2    0    0  0.14400590579E+01  0.25741804206E+01  0.26282915574E+02  0.26507537702E+02  0.17770000000E+01 0.  1.
</event>
<event>
 6    1  0.1860328E-003  0.5030824E+03  0.7546771E-02  0.9392939E-01
        -11   -1    0    0    0    0  0.00000000000E+00  0.00000000000E+00  0.50000000000E+03  0.50000000000E+03  0.00000000000E+00 0. -1.
         11   -1    0    0    0    0 -0.00000000000E+00 -0.00000000000E+00 -0.50000000000E+03  0.50000000000E+03  0.00000000000E+00 0.  1.
        -11    1    1    2    0    0 -0.31027285554E+01 -0.57083037782E+01  0.48062854852E+03  0.48067245949E+03  0.00000000000E+00 0. -1.
         11    1    1    2    0    0  0.34484753005E+01  0.59180401357E+01 -0.49687036241E+03  0.49691757085E+03  0.00000000000E+00 0.  1.
        -15    1    1    2    0    0 -0.21969232547E+01 -0.46058396911E+01  0.15029662080E-01  0.54035345783E+01  0.17770000000E+01 0. -1.
         15    1    1    2    0    0  0.18511765097E+01  0.43961033336E+01  0.16226784224E+02  0.17006435083E+02  0.17770000000E+01 0. -1.
</event>
<event>
 6    1  0.1860328E-003  0.5013143E+03  0.7546771E-02  0.9396874E-01
        -11   -1    0    0    0    0  0.00000000000E+00  0.00000000000E+00  0.50000000000E+03  0.50000000000E+03  0.00000000000E+00 0.  1.
         11   -1    0    0    0    0 -0.00000000000E+00 -0.00000000000E+00 -0.50000000000E+03  0.50000000000E+03  0.00000000000E+00 0.  1.
        -11    1    1    2    0    0  0.42048481450E+01 -0.17642718029E+02  0.49835581242E+03  0.49868573472E+03  0.00000000000E+00 0.  1.
         11    1    1    2    0    0  0.12799450344E+02  0.89389420687E+01 -0.23591553103E+03  0.23643153004E+03  0.00000000000E+00 0.  1.
        -15    1    1    2    0    0  0.67501789870E+01  0.67178013441E+01 -0.39761544079E+02  0.40924709991E+02  0.17770000000E+01 0. -1.
         15    1    1    2    0    0 -0.23754477476E+02  0.19859746158E+01 -0.22267873730E+03  0.22395802524E+03  0.17770000000E+01 0.  1.
</event>
<event>
 6    1  0.1860328E-003  0.5112969E+03  0.7546771E-02  0.9374881E-01
        -11   -1    0    0    0    0  0.00000000000E+00  0.00000000000E+00  0.50000000000E+03  0.50000000000E+03  0.00000000000E+00 0.  1.
         11   -1    0    0    0    0 -0.00000000000E+00 -0.00000000000E+00 -0.50000000000E+03  0.50000000000E+03  0.00000000000E+00 0. -1.
        -11    1    1    2    0    0  0.22224420284E+02  0.10177592708E+02  0.46062932653E+03  0.46127744874E+03  0.00000000000E+00 0.  1.
         11    1    1    2    0    0  0.22944768222E+01 -0.15148347690E+02 -0.48846287667E+03  0.48870309898E+03  0.00000000000E+00 0. -1.
        -15    1    1    2    0    0 -0.12477086701E+02  0.98865772166E+01 -0.31901432190E+01  0.16332692502E+02  0.17770000000E+01 0.  1.
         15    1    1    2    0    0 -0.12041810406E+02 -0.49158222347E+01  0.31023693359E+02  0.33686759783E+02  0.17770000000E+01 0. -1.
</event>
<event>
 6    1  0.1860328E-003  0.5008132E+03  0.7546771E-02  0.9397992E-01
        -11   -1    0    0    0    0  0.00000000000E+00  0.00000000000E+00  0.50000000000E+03  0.50000000000E+03  0.00000000000E+00 0.  1.
         11   -1    0    0    0    0 -0.00000000000E+00 -0.00000000000E+00 -0.50000000000E+03  0.50000000000E+03  0.00000000000E+00 0. -1.
        -11    1    1    2    0    0  0.20204848072E+01  0.96437475798E+01  0.41190582339E+03  0.41202365413E+03  0.00000000000E+00 0.  1.
         11    1    1    2    0    0 -0.40403639853E+01  0.57483781998E+01 -0.49913738577E+03  0.49918683704E+03  0.00000000000E+00 0. -1.
        -15    1    1    2    0    0  0.18831392965E+01 -0.12078773781E+02  0.74369692112E+02  0.75388671718E+02  0.17770000000E+01 0. -1.
         15    1    1    2    0    0  0.13673988158E+00 -0.33133519989E+01  0.12861870277E+02  0.13400837111E+02  0.17770000000E+01 0.  1.
</event>
<event>
 6    1  0.1860328E-003  0.5030550E+03  0.7546771E-02  0.9393000E-01
        -11   -1    0    0    0    0  0.00000000000E+00  0.00000000000E+00  0.50000000000E+03  0.50000000000E+03  0.00000000000E+00 0.  1.
         11   -1    0    0    0    0 -0.00000000000E+00 -0.00000000000E+00 -0.50000000000E+03  0.50000000000E+03  0.00000000000E+00 0.  1.
        -11    1    1    2    0    0  0.32028095922E+01  0.66076349834E+01  0.49689072943E+03  0.49694498269E+03  0.00000000000E+00 0.  1.
         11    1    1    2    0    0 -0.10415403346E+02  0.32924557121E+01 -0.43699896446E+03  0.43713546622E+03  0.00000000000E+00 0.  1.
        -15    1    1    2    0    0  0.13428943213E+01 -0.87306442226E+01 -0.43096757685E+01  0.99879201002E+01  0.17770000000E+01 0. -1.
         15    1    1    2    0    0  0.58696994326E+01 -0.11694464729E+01 -0.55582089199E+02  0.55931630990E+02  0.17770000000E+01 0.  1.
</event>
<event>
 6    1  0.1860328E-003  0.5053727E+03  0.7546771E-02  0.9387868E-01
        -11   -1    0    0    0    0  0.00000000000E+00  0.00000000000E+00  0.50000000000E+03  0.50000000000E+03  0.00000000000E+00 0. -1.
         11   -1    0    0    0    0 -0.00000000000E+00 -0.00000000000E+00 -0.50000000000E+03  0.50000000000E+03  0.00000000000E+00 0. -1.
        -11    1    1    2    0    0  0.36675370859E+02 -0.12662606715E+00  0.49326576592E+03  0.49462734932E+03  0.00000000000E+00 0. -1.
         11    1    1    2    0    0 -0.15194148068E+02 -0.17630324033E+02 -0.37741586865E+03  0.37813281842E+03  0.00000000000E+00 0. -1.
        -15    1    1    2    0    0 -0.36425451172E+01  0.13156851696E+02 -0.10476657540E+03  0.10566723206E+03  0.17770000000E+01 0. -1.
         15    1    1    2    0    0 -0.17838677674E+02  0.46000984039E+01 -0.11083321873E+02  0.21572600197E+02  0.17770000000E+01 0.  1.
</event>
<event>
 6    1  0.1860328E-003  0.5240931E+03  0.7546771E-02  0.9347457E-01
        -11   -1    0    0    0    0  0.00000000000E+00  0.00000000000E+00  0.50000000000E+03  0.50000000000E+03  0.00000000000E+00 0. -1.
         11   -1    0    0    0    0 -0.00000000000E+00 -0.00000000000E+00 -0.50000000000E+03  0.50000000000E+03  0.00000000000E+00 0.  1.
        -11    1    1    2    0    0  0.11440784220E+02  0.22973467130E+02  0.47521435810E+03  0.47590687942E+03  0.00000000000E+00 0. -1.
         11    1    1    2    0    0 -0.24433421759E+02 -0.12503888833E+02 -0.40312564640E+03  0.40405893892E+03  0.00000000000E+00 0.  1.
        -15    1    1    2    0    0  0.48896667684E+01 -0.12064468456E+02 -0.94850131800E+02  0.95755759470E+02  0.17770000000E+01 0.  1.
         15    1    1    2    0    0  0.81029707698E+01  0.15948901590E+01  0.22761420100E+02  0.24278422187E+02  0.17770000000E+01 0. -1.
</event>
<event>
 6    1  0.1860328E-003  0.5074035E+03  0.7546771E-02  0.9383394E-01
        -11   -1    0    0    0    0  0.00000000000E+00  0.00000000000E+00  0.50000000000E+03  0.50000000000E+03  0.00000000000E+00 0. -1.
         11   -1    0    0    0    0 -0.00000000000E+00 -0.00000000000E+00 -0.50000000000E+03  0.50000000000E+03  0.00000000000E+00 0.  1.
        -11    1    1    2    0    0  0.19625069672E+00 -0.15003338098E+02  0.49236791234E+03  0.49259648778E+03  0.00000000000E+00 0. -1.
         11    1    1    2    0    0  0.97374166193E+01  0.11923983262E+02 -0.48573644825E+03  0.48598034509E+03  0.00000000000E+00 0.  1.
        -15    1    1    2    0    0 -0.75499557198E+01  0.12257967996E+01 -0.12398067899E+02  0.14675633745E+02  0.17770000000E+01 0. -1.
         15    1    1    2    0    0 -0.23837115962E+01  0.18535580356E+01  0.57666038013E+01  0.67475333839E+01  0.17770000000E+01 0.  1.
</event>
<event>
 6    1  0.1860328E-003  0.5017799E+03  0.7546771E-02  0.9395836E-01
        -11   -1    0    0    0    0  0.00000000000E+00  0.00000000000E+00  0.50000000000E+03  0.50000000000E+03  0.00000000000E+00 0. -1.
         11   -1    0    0    0    0 -0.00000000000E+00 -0.00000000000E+00 -0.50000000000E+03  0.50000000000E+03  0.00000000000E+00 0.  1.
        -11    1    1    2    0    0 -0.55195532715E+01 -0.48264174082E+01  0.49816619119E+03  0.49822014594E+03  0.00000000000E+00 0. -1.
         11    1    1    2    0    0  0.18177590008E+00 -0.12858392091E+02 -0.37862175064E+03  0.37884007358E+03  0.00000000000E+00 0.  1.
        -15    1    1    2    0    0 -0.18068756882E+01  0.86145628898E+01 -0.98181700719E+02  0.98591478225E+02  0.17770000000E+01 0.  1.
         15    1    1    2    0    0  0.71446530596E+01  0.90702466098E+01 -0.21362739832E+02  0.24348302262E+02  0.17770000000E+01 0. -1.
</event>
<event>
 6    1  0.1860328E-003  0.5008452E+03  0.7546771E-02  0.9397921E-01
        -11   -1    0    0    0    0  0.00000000000E+00  0.00000000000E+00  0.50000000000E+03  0.50000000000E+03  0.00000000000E+00 0. -1.
         11   -1    0    0    0    0 -0.00000000000E+00 -0.00000000000E+00 -0.50000000000E+03  0.50000000000E+03  0.00000000000E+00 0.  1.
        -11    1    1    2    0    0  0.29707391869E+01 -0.17759913097E+01  0.17737930963E+03  0.17741307427E+03  0.00000000000E+00 0. -1.
         11    1    1    2    0    0 -0.67008060298E+01 -0.50666508400E+01 -0.49908414220E+03  0.49915483845E+03  0.00000000000E+00 0.  1.
        -15    1    1    2    0    0 -0.22276202604E+01  0.83814480204E+01  0.30969259467E+03  0.30981909541E+03  0.17770000000E+01 0. -1.
         15    1    1    2    0    0  0.59576871032E+01 -0.15388058706E+01  0.12012237905E+02  0.13612991868E+02  0.17770000000E+01 0.  1.
</event>
<event>
 6    1  0.1860328E-003  0.4989213E+03  0.7546771E-02  0.9402227E-01
        -11   -1    0    0    0    0  0.00000000000E+00  0.00000000000E+00  0.50000000000E+03  0.50000000000E+03  0.00000000000E+00 0. -1.
         11   -1    0    0    0    0 -0.00000000000E+00 -0.00000000000E+00 -0.50000000000E+03  0.50000000000E+03  0.00000000000E+00 0.  1.
        -11    1    1    2    0    0 -0.11812131386E+01 -0.23571326999E+01  0.19198151681E+01  0.32614458946E+01  0.00000000000E+00 0. -1.
         11    1    1    2    0    0 -0.21809252526E+01  0.11335122501E+02 -0.49866032473E+03  0.49879390624E+03  0.00000000000E+00 0.  1.
        -15    1    1    2    0    0  0.13713145892E+01  0.12549115557E+02  0.16081312029E+03  0.16131763137E+03  0.17770000000E+01 0. -1.
         15    1    1    2    0    0  0.19908238021E+01 -0.21527105359E+02  0.33592738927E+03  0.33662701650E+03  0.17770000000E+01 0.  1.
</event>
<event>
 6    1  0.1860328E-003  0.5073421E+03  0.7546771E-02  0.9383529E-01
        -11   -1    0    0    0    0  0.00000000000E+00  0.00000000000E+00  0.50000000000E+03  0.50000000000E+03  0.00000000000E+00 0. -1.
         11   -1    0    0    0    0 -0.00000000000E+00 -0.00000000000E+00 -0.50000000000E+03  0.50000000000E+03  0.00000000000E+00 0.  1.
        -11    1    1    2    0    0 -0.98176879219E+01  0.10349188659E+02  0.49245131396E+03  0.49265788263E+03  0.00000000000E+00 0. -1.
         11    1    1    2    0    0 -0.90488606996E+01 -0.43934990248E+00 -0.30877420499E+03  0.30890708081E+03  0.00000000000E+00 0.  1.
        -15    1    1    2    0    0  0.29695312856E+01 -0.39584631063E+01 -0.18109762829E+03  0.18117393920E+03  0.17770000000E+01 0.  1.
         15    1    1    2    0    0  0.15897017336E+02 -0.59513756499E+01 -0.25794806791E+01  0.17261097354E+02  0.17770000000E+01 0. -1.
</event>
<event>
 6    1  0.1860328E-003  0.5006296E+03  0.7546771E-02  0.9398402E-01
        -11   -1    0    0    0    0  0.00000000000E+00  0.00000000000E+00  0.50000000000E+03  0.50000000000E+03  0.00000000000E+00 0.  1.
         11   -1    0    0    0    0 -0.00000000000E+00 -0.00000000000E+00 -0.50000000000E+03  0.50000000000E+03  0.00000000000E+00 0.  1.
        -11    1    1    2    0    0  0.90754060106E+01 -0.18857012596E+00  0.40651291609E+03  0.40661425148E+03  0.00000000000E+00 0.  1.
         11    1    1    2    0    0 -0.69001459259E+01 -0.54648835997E+01 -0.49929279404E+03  0.49937037472E+03  0.00000000000E+00 0.  1.
        -15    1    1    2    0    0 -0.12111884914E+01  0.70520462493E+01  0.22190565484E+02  0.23383268792E+02  0.17770000000E+01 0. -1.
         15    1    1    2    0    0 -0.96407159327E+00 -0.13985925236E+01  0.70589312463E+02  0.70632105010E+02  0.17770000000E+01 0.  1.
</event>
<event>
 6    1  0.1860328E-003  0.4834534E+03  0.7546771E-02  0.9437615E-01
        -11   -1    0    0    0    0  0.00000000000E+00  0.00000000000E+00  0.50000000000E+03  0.50000000000E+03  0.00000000000E+00 0. -1.
         11   -1    0    0    0    0 -0.00000000000E+00 -0.00000000000E+00 -0.50000000000E+03  0.50000000000E+03  0.00000000000E+00 0.  1.
        -11    1    1    2    0    0 -0.12918612609E+02 -0.44938759315E+01  0.48715981009E+03  0.48735178879E+03  0.00000000000E+00 0. -1.
         11    1    1    2    0    0 -0.11097004424E+02  0.11105116271E+02 -0.47964806694E+03  0.47990492312E+03  0.00000000000E+00 0.  1.
        -15    1    1    2    0    0  0.22271308968E+02  0.19990712393E+01 -0.78730134403E+01  0.23772874428E+02  0.17770000000E+01 0.  1.
         15    1    1    2    0    0  0.17443080650E+01 -0.86103115788E+01  0.36127029048E+00  0.89704136656E+01  0.17770000000E+01 0. -1.
</event>
<event>
 6    1  0.1860328E-003  0.5050706E+03  0.7546771E-02  0.9388535E-01
        -11   -1    0    0    0    0  0.00000000000E+00  0.00000000000E+00  0.50000000000E+03  0.50000000000E+03  0.00000000000E+00 0. -1.
         11   -1    0    0    0    0 -0.00000000000E+00 -0.00000000000E+00 -0.50000000000E+03  0.50000000000E+03  0.00000000000E+00 0.  1.
        -11    1    1    2    0    0 -0.13572850715E+02 -0.26903900079E+02  0.49401123066E+03  0.49492942743E+03  0.00000000000E+00 0. -1.
         11    1    1    2    0    0  0.14286092283E+02 -0.36860729716E+01 -0.13196299879E+03  0.13278521234E+03  0.00000000000E+00 0.  1.
        -15    1    1    2    0    0  0.13474562565E+02 -0.22838315370E+02 -0.66638170835E+02  0.71742288969E+02  0.17770000000E+01 0. -1.
         15    1    1    2    0    0 -0.14187804133E+02  0.53428288420E+02 -0.29541006104E+03  0.30054307126E+03  0.17770000000E+01 0.  1.
</event>
<event>
 6    1  0.1905430E-003  0.5000529E+03  0.7546771E-02  0.9399691E-01
        -11   -1    0    0    0    0  0.00000000000E+00  0.00000000000E+00  0.50000000000E+03  0.50000000000E+03  0.00000000000E+00 0. -1.
         11   -1    0    0    0    0 -0.00000000000E+00 -0.00000000000E+00 -0.50000000000E+03  0.50000000000E+03  0.00000000000E+00 0. -1.
        -11    1    1    2    0    0  0.59653395849E+01 -0.32415118711E+01  0.49990103599E+03  0.49994713566E+03  0.00000000000E+00 0. -1.
         11    1    1    2    0    0 -0.63642736285E-01  0.18907333328E+01 -0.64732944310E+02  0.64760582162E+02  0.00000000000E+00 0. -1.
        -15    1    1    2    0    0 -0.34957972793E+01 -0.20550684476E+01 -0.10528057183E+03  0.10537362307E+03  0.17770000000E+01 0.  1.
         15    1    1    2    0    0 -0.24058995693E+01  0.34058469858E+01 -0.32988751985E+03  0.32991865911E+03  0.17770000000E+01 0. -1.
</event>
<event>
 6    1  0.1860328E-003  0.5027970E+03  0.7546771E-02  0.9393573E-01
        -11   -1    0    0    0    0  0.00000000000E+00  0.00000000000E+00  0.50000000000E+03  0.50000000000E+03  0.00000000000E+00 0.  1.
         11   -1    0    0    0    0 -0.00000000000E+00 -0.00000000000E+00 -0.50000000000E+03  0.50000000000E+03  0.00000000000E+00 0. -1.
        -11    1    1    2    0    0 -0.45488107668E+01  0.59619144455E+01  0.31171265829E+03  0.31180285028E+03  0.00000000000E+00 0.  1.
         11    1    1    2    0    0  0.62530447010E+01 -0.24267730358E+01 -0.49715780101E+03  0.49720304594E+03  0.00000000000E+00 0. -1.
        -15    1    1    2    0    0 -0.23288382146E+02  0.74659921860E+00  0.85169877678E+02  0.88317449839E+02  0.17770000000E+01 0.  1.
         15    1    1    2    0    0  0.21584148211E+02 -0.42817406283E+01  0.10027526504E+03  0.10267665394E+03  0.17770000000E+01 0. -1.
</event>
<event>
 6    1  0.1860328E-003  0.5003775E+03  0.7546771E-02  0.9398965E-01
        -11   -1    0    0    0    0  0.00000000000E+00  0.00000000000E+00  0.50000000000E+03  0.50000000000E+03  0.00000000000E+00 0. -1.
         11   -1    0    0    0    0 -0.00000000000E+00 -0.00000000000E+00 -0.50000000000E+03  0.50000000000E+03  0.00000000000E+00 0.  1.
        -11    1    1    2    0    0 -0.18520049443E+01  0.31837005406E+01  0.26058375015E+03  0.26060977863E+03  0.00000000000E+00 0. -1.
         11    1    1    2    0    0  0.13265317660E+02  0.43173973003E+01 -0.49942769053E+03  0.49962248412E+03  0.00000000000E+00 0.  1.
        -15    1    1    2    0    0 -0.60357679071E+01 -0.72685980422E+01  0.21659005702E+03  0.21680330611E+03  0.17770000000E+01 0. -1.
         15    1    1    2    0    0 -0.53775448088E+01 -0.23249979871E+00  0.22253883354E+02  0.22964431141E+02  0.17770000000E+01 0.  1.
</event>
<event>
 6    1  0.1860328E-003  0.5004819E+03  0.7546771E-02  0.9398732E-01
        -11   -1    0    0    0    0  0.00000000000E+00  0.00000000000E+00  0.50000000000E+03  0.50000000000E+03  0.00000000000E+00 0. -1.
         11   -1    0    0    0    0 -0.00000000000E+00 -0.00000000000E+00 -0.50000000000E+03  0.50000000000E+03  0.00000000000E+00 0. -1.
        -11    1    1    2    0    0 -0.12000664670E+02 -0.10524253603E+01  0.49937277637E+03  0.49951806107E+03  0.00000000000E+00 0. -1.
         11    1    1    2    0    0 -0.82050544525E+00 -0.51725335042E+01 -0.33626777129E+03  0.33630855229E+03  0.00000000000E+00 0. -1.
        -15    1    1    2    0    0  0.13459224212E+02  0.23852514701E+01 -0.13988144433E+03  0.14055894257E+03  0.17770000000E+01 0. -1.
         15    1    1    2    0    0 -0.63805409602E+00  0.38397073944E+01 -0.23223560753E+02  0.23614444075E+02  0.17770000000E+01 0.  1.
</event>
<event>
 6    1  0.1860328E-003  0.5021924E+03  0.7546771E-02  0.9394917E-01
        -11   -1    0    0    0    0  0.00000000000E+00  0.00000000000E+00  0.50000000000E+03  0.50000000000E+03  0.00000000000E+00 0.  1.
         11   -1    0    0    0    0 -0.00000000000E+00 -0.00000000000E+00 -0.50000000000E+03  0.50000000000E+03  0.00000000000E+00 0. -1.
        -11    1    1    2    0    0 -0.13046030970E+02  0.64093892860E+01  0.49759533946E+03  0.49780759440E+03  0.00000000000E+00 0.  1.
         11    1    1    2    0    0  0.79181965915E+01  0.48572360763E+01 -0.45623359135E+03  0.45632814997E+03  0.00000000000E+00 0. -1.
        -15    1    1    2    0    0  0.46702456622E+01 -0.11191281656E+00 -0.29064301137E+01  0.57817630555E+01  0.17770000000E+01 0. -1.
         15    1    1    2    0    0  0.45758871685E+00 -0.11154712546E+02 -0.38455317998E+02  0.40082492571E+02  0.17770000000E+01 0.  1.
</event>
<event>
 6    1  0.1860328E-003  0.5131293E+03  0.7546771E-02  0.9370902E-01
        -11   -1    0    0    0    0  0.00000000000E+00  0.00000000000E+00  0.50000000000E+03  0.50000000000E+03  0.00000000000E+00 0.  1.
         11   -1    0    0    0    0 -0.00000000000E+00 -0.00000000000E+00 -0.50000000000E+03  0.50000000000E+03  0.00000000000E+00 0.  1.
        -11    1    1    2    0    0 -0.52917636161E+01  0.77956706169E+01  0.45870642821E+03  0.45880318495E+03  0.00000000000E+00 0.  1.
         11    1    1    2    0    0 -0.93168008828E+01 -0.95903962951E+00 -0.48678064192E+03  0.48687073837E+03  0.00000000000E+00 0.  1.
        -15    1    1    2    0    0  0.10185932822E+02 -0.11007024837E+01 -0.10653463949E+02  0.14886866579E+02  0.17770000000E+01 0.  1.
         15    1    1    2    0    0  0.44226316767E+01 -0.57359285037E+01  0.38727677666E+02  0.39439210098E+02  0.17770000000E+01 0. -1.
</event>
<event>
 6    1  0.1860328E-003  0.5010988E+03  0.7546771E-02  0.9397354E-01
        -11   -1    0    0    0    0  0.00000000000E+00  0.00000000000E+00  0.50000000000E+03  0.50000000000E+03  0.00000000000E+00 0.  1.
         11   -1    0    0    0    0 -0.00000000000E+00 -0.00000000000E+00 -0.50000000000E+03  0.50000000000E+03  0.00000000000E+00 0. -1.
        -11    1    1    2    0    0  0.26661301861E+01  0.98895034351E+01  0.49879606419E+03  0.49890121686E+03  0.00000000000E+00 0.  1.
         11    1    1    2    0    0  0.25164319352E+01  0.12502523323E+02 -0.30499145223E+03  0.30525797525E+03  0.00000000000E+00 0. -1.
        -15    1    1    2    0    0 -0.42227822110E+01  0.87896157472E+00 -0.40312445972E+02  0.40581467350E+02  0.17770000000E+01 0. -1.
         15    1    1    2    0    0 -0.95977991028E+00 -0.23270988333E+02 -0.15349216600E+03  0.15525934054E+03  0.17770000000E+01 0.  1.
</event>
<event>
 6    1  0.1860328E-003  0.5031379E+03  0.7546771E-02  0.9392816E-01
        -11   -1    0    0    0    0  0.00000000000E+00  0.00000000000E+00  0.50000000000E+03  0.50000000000E+03  0.00000000000E+00 0.  1.
         11   -1    0    0    0    0 -0.00000000000E+00 -0.00000000000E+00 -0.50000000000E+03  0.50000000000E+03  0.00000000000E+00 0. -1.
        -11    1    1    2    0    0  0.65873071813E+01 -0.58290286626E+01  0.49678422428E+03  0.49686208920E+03  0.00000000000E+00 0.  1.
         11    1    1    2    0    0 -0.74080632985E+01 -0.21332442529E+01 -0.47701331575E+03  0.47707560568E+03  0.00000000000E+00 0. -1.
        -15    1    1    2    0    0 -0.38348831114E+01  0.17889060931E+00  0.83517029860E-02  0.42303816707E+01  0.17770000000E+01 0.  1.
         15    1    1    2    0    0  0.46556392287E+01  0.77833823062E+01 -0.19779260234E+02  0.21831923442E+02  0.17770000000E+01 0. -1.
</event>
<event>
 6    1  0.1860328E-003  0.5093267E+03  0.7546771E-02  0.9379179E-01
        -11   -1    0    0    0    0  0.00000000000E+00  0.00000000000E+00  0.50000000000E+03  0.50000000000E+03  0.00000000000E+00 0. -1.
         11   -1    0    0    0    0 -0.00000000000E+00 -0.00000000000E+00 -0.50000000000E+03  0.50000000000E+03  0.00000000000E+00 0.  1.
        -11    1    1    2    0    0 -0.68043983271E+01 -0.23867146675E+02  0.49004522484E+03  0.49067327512E+03  0.00000000000E+00 0. -1.
         11    1    1    2    0    0  0.35857596638E+01 -0.68568408534E+01 -0.43105196642E+03  0.43112141178E+03  0.00000000000E+00 0.  1.
        -15    1    1    2    0    0  0.17653283984E+02  0.92604541380E+00 -0.15984657052E+02  0.23899016415E+02  0.17770000000E+01 0. -1.
         15    1    1    2    0    0 -0.14434645321E+02  0.29797942115E+02 -0.43008601362E+02  0.54306296688E+02  0.17770000000E+01 0.  1.
</event>
<event>
 6    1  0.1860328E-003  0.5078988E+03  0.7546771E-02  0.9382307E-01
        -11   -1    0    0    0    0  0.00000000000E+00  0.00000000000E+00  0.50000000000E+03  0.50000000000E+03  0.00000000000E+00 0.  1.
         11   -1    0    0    0    0 -0.00000000000E+00 -0.00000000000E+00 -0.50000000000E+03  0.50000000000E+03  0.00000000000E+00 0.  1.
        -11    1    1    2    0    0  0.11603127120E+02  0.45560874889E+01  0.36809703372E+03  0.36830804597E+03  0.00000000000E+00 0.  1.
         11    1    1    2    0    0 -0.14685912540E+02  0.95766027333E+01 -0.49178880003E+03  0.49210122046E+03  0.00000000000E+00 0.  1.
        -15    1    1    2    0    0 -0.22848294525E+02 -0.12819166373E+02  0.10313741918E+03  0.10642772455E+03  0.17770000000E+01 0.  1.
         15    1    1    2    0    0  0.25931079946E+02 -0.13135238488E+01  0.20554347126E+02  0.33163009014E+02  0.17770000000E+01 0. -1.
</event>
<event>
 6    1  0.1860328E-003  0.4841564E+03  0.7546771E-02  0.9435976E-01
        -11   -1    0    0    0    0  0.00000000000E+00  0.00000000000E+00  0.50000000000E+03  0.50000000000E+03  0.00000000000E+00 0. -1.
         11   -1    0    0    0    0 -0.00000000000E+00 -0.00000000000E+00 -0.50000000000E+03  0.50000000000E+03  0.00000000000E+00 0.  1.
        -11    1    1    2    0    0  0.10014198627E+02  0.20605868982E+02  0.48256947070E+03  0.48311300962E+03  0.00000000000E+00 0. -1.
         11    1    1    2    0    0 -0.13018105065E+02 -0.89441629260E-01 -0.48525088633E+03  0.48542548526E+03  0.00000000000E+00 0.  1.
        -15    1    1    2    0    0 -0.10198324176E+02 -0.96255675991E+01  0.14839899327E+01  0.14213279802E+02  0.17770000000E+01 0.  1.
         15    1    1    2    0    0  0.13202230614E+02 -0.10890859754E+02  0.11974256908E+01  0.17248225319E+02  0.17770000000E+01 0. -1.
</event>
<event>
 6    1  0.1860328E-003  0.5006850E+03  0.7546771E-02  0.9398278E-01
        -11   -1    0    0    0    0  0.00000000000E+00  0.00000000000E+00  0.50000000000E+03  0.50000000000E+03  0.00000000000E+00 0.  1.
         11   -1    0    0    0    0 -0.00000000000E+00 -0.00000000000E+00 -0.50000000000E+03  0.50000000000E+03  0.00000000000E+00 0. -1.
        -11    1    1    2    0    0 -0.53018175030E+01 -0.82885659767E+01  0.49921801877E+03  0.49931497060E+03  0.00000000000E+00 0.  1.
         11    1    1    2    0    0  0.16272824062E+01  0.51897235866E+01 -0.26061456846E+03  0.26067131521E+03  0.00000000000E+00 0. -1.
        -15    1    1    2    0    0  0.11301120772E+02  0.71296607967E+01 -0.77041407457E+02  0.78211786744E+02  0.17770000000E+01 0.  1.
         15    1    1    2    0    0 -0.76265856747E+01 -0.40308184066E+01 -0.16156204285E+03  0.16180192745E+03  0.17770000000E+01 0. -1.
</event>
<event>
 6    1  0.1860328E-003  0.4812709E+03  0.7546771E-02  0.9442721E-01
        -11   -1    0    0    0    0  0.00000000000E+00  0.00000000000E+00  0.50000000000E+03  0.50000000000E+03  0.00000000000E+00 0.  1.
         11   -1    0    0    0    0 -0.00000000000E+00 -0.00000000000E+00 -0.50000000000E+03  0.50000000000E+03  0.00000000000E+00 0.  1.
        -11    1    1    2    0    0  0.57813001909E+01 -0.68387877242E+01  0.47850801781E+03  0.47859180473E+03  0.00000000000E+00 0.  1.
         11    1    1    2    0    0  0.42600524424E+01 -0.11436485482E+02 -0.48403784925E+03  0.48419167770E+03  0.00000000000E+00 0.  1.
        -15    1    1    2    0    0 -0.41863424067E+01  0.15575496156E+02 -0.10853168309E+02  0.19521028011E+02  0.17770000000E+01 0.  1.
         15    1    1    2    0    0 -0.58550102265E+01  0.26997770503E+01  0.16382999754E+02  0.17695489561E+02  0.17770000000E+01 0. -1.
</event>
<event>
 6    1  0.1860328E-003  0.5102419E+03  0.7546771E-02  0.9377180E-01
        -11   -1    0    0    0    0  0.00000000000E+00  0.00000000000E+00  0.50000000000E+03  0.50000000000E+03  0.00000000000E+00 0. -1.
         11   -1    0    0    0    0 -0.00000000000E+00 -0.00000000000E+00 -0.50000000000E+03  0.50000000000E+03  0.00000000000E+00 0.  1.
        -11    1    1    2    0    0  0.96052185417E+01  0.62247373230E+01  0.48962438411E+03  0.48975814959E+03  0.00000000000E+00 0. -1.
         11    1    1    2    0    0  0.14299524680E+02  0.55475977956E+01 -0.44814100011E+03  0.44840339900E+03  0.00000000000E+00 0.  1.
        -15    1    1    2    0    0 -0.89339267466E+01 -0.15365174738E+01  0.59752427328E+01  0.11001690224E+02  0.17770000000E+01 0. -1.
         15    1    1    2    0    0 -0.14970816475E+02 -0.10235817645E+02 -0.47458626725E+02  0.50836761191E+02  0.17770000000E+01 0.  1.
</event>
<event>
 6    1  0.1860328E-003  0.4780842E+03  0.7546771E-02  0.9450229E-01
        -11   -1    0    0    0    0  0.00000000000E+00  0.00000000000E+00  0.50000000000E+03  0.50000000000E+03  0.00000000000E+00 0. -1.
         11   -1    0    0    0    0 -0.00000000000E+00 -0.00000000000E+00 -0.50000000000E+03  0.50000000000E+03  0.00000000000E+00 0.  1.
        -11    1    1    2    0    0  0.25701764502E+02 -0.53431102233E+01  0.48539090036E+03  0.48610025271E+03  0.00000000000E+00 0. -1.
         11    1    1    2    0    0  0.88815141696E+01 -0.85001680474E+01 -0.47074506608E+03  0.47090556525E+03  0.00000000000E+00 0.  1.
        -15    1    1    2    0    0 -0.27549909236E+02  0.49839107226E+01 -0.14417503990E+02  0.31541385755E+02  0.17770000000E+01 0. -1.
         15    1    1    2    0    0 -0.70333694355E+01  0.88593675481E+01 -0.22833029656E+00  0.11452796283E+02  0.17770000000E+01 0.  1.
</event>
<event>
 6    1  0.1860328E-003  0.5012521E+03  0.7546771E-02  0.9397012E-01
        -11   -1    0    0    0    0  0.00000000000E+00  0.00000000000E+00  0.50000000000E+03  0.50000000000E+03  0.00000000000E+00 0. -1.
         11   -1    0    0    0    0 -0.00000000000E+00 -0.00000000000E+00 -0.50000000000E+03  0.50000000000E+03  0.00000000000E+00 0. -1.
        -11    1    1    2    0    0  0.40218534361E+01 -0.19366144061E+01  0.25384616595E+03  0.25388541066E+03  0.00000000000E+00 0. -1.
         11    1    1    2    0    0 -0.64104635800E+01 -0.19638396094E+02 -0.49831991262E+03  0.49874792827E+03  0.00000000000E+00 0. -1.
        -15    1    1    2    0    0  0.38452812397E+01  0.25652395131E+02  0.11906822367E+03  0.12187383305E+03  0.17770000000E+01 0.  1.
         15    1    1    2    0    0 -0.14566710957E+01 -0.40773846317E+01  0.12540552300E+03  0.12549282801E+03  0.17770000000E+01 0. -1.
</event>
<event>
 6    1  0.1860328E-003  0.5038259E+03  0.7546771E-02  0.9391289E-01
        -11   -1    0    0    0    0  0.00000000000E+00  0.00000000000E+00  0.50000000000E+03  0.50000000000E+03  0.00000000000E+00 0.  1.
         11   -1    0    0    0    0 -0.00000000000E+00 -0.00000000000E+00 -0.50000000000E+03  0.50000000000E+03  0.00000000000E+00 0. -1.
        -11    1    1    2    0    0 -0.83088359848E+01 -0.30111027139E+00  0.47062794749E+03  0.47070138345E+03  0.00000000000E+00 0.  1.
         11    1    1    2    0    0 -0.45431267463E+01  0.89104161849E+01 -0.49607324044E+03  0.49617405756E+03  0.00000000000E+00 0. -1.
        -15    1    1    2    0    0  0.77833422751E+01  0.14419750890E+01  0.17327175025E+02  0.19132392231E+02  0.17770000000E+01 0.  1.
         15    1    1    2    0    0  0.50686204560E+01 -0.10051281003E+02  0.81181179200E+01  0.13992166762E+02  0.17770000000E+01 0. -1.
</event>
<event>
 6    1  0.1860328E-003  0.5008127E+03  0.7546771E-02  0.9397993E-01
        -11   -1    0    0    0    0  0.00000000000E+00  0.00000000000E+00  0.50000000000E+03  0.50000000000E+03  0.00000000000E+00 0.  1.
         11   -1    0    0    0    0 -0.00000000000E+00 -0.00000000000E+00 -0.50000000000E+03  0.50000000000E+03  0.00000000000E+00 0. -1.
        -11    1    1    2    0    0  0.20453603455E+01 -0.16355121381E+00  0.26532413094E+02  0.26611636412E+02  0.00000000000E+00 0.  1.
         11    1    1    2    0    0  0.61259090892E+01 -0.65077985993E+01 -0.49910731089E+03  0.49918732555E+03  0.00000000000E+00 0. -1.
        -15    1    1    2    0    0  0.98053883558E+01 -0.10658279231E+01  0.42046869461E+02  0.43224745117E+02  0.17770000000E+01 0. -1.
         15    1    1    2    0    0 -0.17976657791E+02  0.77371777362E+01  0.43052802834E+03  0.43097629292E+03  0.17770000000E+01 0.  1.
</event>
<event>
 6    1  0.1860328E-003  0.5065204E+03  0.7546771E-02  0.9385337E-01
        -11   -1    0    0    0    0  0.00000000000E+00  0.00000000000E+00  0.50000000000E+03  0.50000000000E+03  0.00000000000E+00 0. -1.
         11   -1    0    0    0    0 -0.00000000000E+00 -0.00000000000E+00 -0.50000000000E+03  0.50000000000E+03  0.00000000000E+00 0. -1.
        -11    1    1    2    0    0  0.13639970358E+02 -0.12332344199E+01  0.45918520625E+03  0.45938940268E+03  0.00000000000E+00 0. -1.
         11    1    1    2    0    0  0.91535233470E+00 -0.81678256362E+01 -0.49341111469E+03  0.49347956325E+03  0.00000000000E+00 0. -1.
        -15    1    1    2    0    0 -0.15103761645E+02  0.73160701768E+01  0.38493403897E+02  0.42030326804E+02  0.17770000000E+01 0. -1.
         15    1    1    2    0    0  0.54843895254E+00  0.20849898794E+01 -0.42674954557E+01  0.51007072594E+01  0.17770000000E+01 0.  1.
</event>
<event>
 6    1  0.1860328E-003  0.5030036E+03  0.7546771E-02  0.9393114E-01
        -11   -1    0    0    0    0  0.00000000000E+00  0.00000000000E+00  0.50000000000E+03  0.50000000000E+03  0.00000000000E+00 0.  1.
         11   -1    0    0    0    0 -0.00000000000E+00 -0.00000000000E+00 -0.50000000000E+03  0.50000000000E+03  0.00000000000E+00 0. -1.
        -11    1    1    2    0    0  0.13350306493E+02 -0.34547393363E+01  0.49680504714E+03  0.49699639916E+03  0.00000000000E+00 0.  1.
         11    1    1    2    0    0 -0.60911198498E+01 -0.40867082542E+01 -0.45697999755E+03  0.45703886168E+03  0.00000000000E+00 0. -1.
        -15    1    1    2    0    0 -0.13814949554E+02  0.69854122942E+01 -0.22700942020E+02  0.27534329730E+02  0.17770000000E+01 0. -1.
         15    1    1    2    0    0  0.65557629101E+01  0.55603529634E+00 -0.17124107575E+02  0.18430409432E+02  0.17770000000E+01 0.  1.
</event>
<event>
 6    1  0.1860328E-003  0.5006798E+03  0.7546771E-02  0.9398290E-01
        -11   -1    0    0    0    0  0.00000000000E+00  0.00000000000E+00  0.50000000000E+03  0.50000000000E+03  0.00000000000E+00 0. -1.
         11   -1    0    0    0    0 -0.00000000000E+00 -0.00000000000E+00 -0.50000000000E+03  0.50000000000E+03  0.00000000000E+00 0. -1.
        -11    1    1    2    0    0  0.73370970106E+01  0.14206228882E+00  0.49926629212E+03  0.49932022152E+03  0.00000000000E+00 0. -1.
         11    1    1    2    0    0  0.46370793600E+01 -0.34814422329E+01 -0.41121131611E+03  0.41125219689E+03  0.00000000000E+00 0. -1.
        -15    1    1    2    0    0 -0.35189309896E+01  0.86751649984E+00 -0.55750330124E+02  0.55896265512E+02  0.17770000000E+01 0.  1.
         15    1    1    2    0    0 -0.84552453810E+01  0.24718634442E+01 -0.32304645884E+02  0.33531316080E+02  0.17770000000E+01 0.  1.
</event>
<event>
 6    1  0.1860328E-003  0.5023721E+03  0.7546771E-02  0.9394517E-01
        -11   -1    0    0    0    0  0.00000000000E+00  0.00000000000E+00  0.50000000000E+03  0.50000000000E+03  0.00000000000E+00 0.  1.
         11   -1    0    0    0    0 -0.00000000000E+00 -0.00000000000E+00 -0.50000000000E+03  0.50000000000E+03  0.00000000000E+00 0.  1.
        -11    1    1    2    0    0  0.28333036596E+01  0.87063922876E+01  0.49754362708E+03  0.49762786269E+03  0.00000000000E+00 0.  1.
         11    1    1    2    0    0  0.60177977302E+01 -0.58535513530E+01 -0.39112791135E+03  0.39121799676E+03  0.00000000000E+00 0.  1.
        -15    1    1    2    0    0  0.21355081182E+01  0.29261900999E+01 -0.33226312099E-01  0.40350732845E+01  0.17770000000E+01 0. -1.
         15    1    1    2    0    0 -0.10986609508E+02 -0.57790310345E+01 -0.10638248942E+03  0.10711906727E+03  0.17770000000E+01 0.  1.
</event>
<event>
 6    1  0.1860328E-003  0.5007242E+03  0.7546771E-02  0.9398191E-01
        -11   -1    0    0    0    0  0.00000000000E+00  0.00000000000E+00  0.50000000000E+03  0.50000000000E+03  0.00000000000E+00 0.  1.
         11   -1    0    0    0    0 -0.00000000000E+00 -0.00000000000E+00 -0.50000000000E+03  0.50000000000E+03  0.00000000000E+00 0.  1.
        -11    1    1    2    0    0 -0.18704710813E+01  0.47399911542E+01  0.32461566155E+03  0.32465565435E+03  0.00000000000E+00 0.  1.
         11    1    1    2    0    0  0.80875513225E+01  0.30386782651E+01 -0.49920106816E+03  0.49927582407E+03  0.00000000000E+00 0.  1.
        -15    1    1    2    0    0 -0.76511365699E+01 -0.67560110618E+01  0.36017157664E+02  0.37477686048E+02  0.17770000000E+01 0.  1.
         15    1    1    2    0    0  0.14340563287E+01 -0.10226583575E+01  0.13856824894E+03  0.13859083553E+03  0.17770000000E+01 0. -1.
</event>
<event>
 6    1  0.1860328E-003  0.5069997E+03  0.7546771E-02  0.9384282E-01
        -11   -1    0    0    0    0  0.00000000000E+00  0.00000000000E+00  0.50000000000E+03  0.50000000000E+03  0.00000000000E+00 0.  1.
         11   -1    0    0    0    0 -0.00000000000E+00 -0.00000000000E+00 -0.50000000000E+03  0.50000000000E+03  0.00000000000E+00 0. -1.
        -11    1    1    2    0    0  0.57406996141E+01 -0.46491886015E+01  0.49294494233E+03  0.49300029083E+03  0.00000000000E+00 0.  1.
         11    1    1    2    0    0  0.43119376318E+01 -0.85737014542E+01 -0.47840134949E+03  0.47849759912E+03  0.00000000000E+00 0. -1.
        -15    1    1    2    0    0 -0.18320241673E+01 -0.22477015791E+01 -0.96412212167E+01  0.10223470570E+02  0.17770000000E+01 0. -1.
         15    1    1    2    0    0 -0.82206130786E+01  0.15470591635E+02 -0.49023716234E+01  0.18278639486E+02  0.17770000000E+01 0.  1.
</event>
<event>
 6    1  0.1860328E-003  0.5199811E+03  0.7546771E-02  0.9356178E-01
        -11   -1    0    0    0    0  0.00000000000E+00  0.00000000000E+00  0.50000000000E+03  0.50000000000E+03  0.00000000000E+00 0. -1.
         11   -1    0    0    0    0 -0.00000000000E+00 -0.00000000000E+00 -0.50000000000E+03  0.50000000000E+03  0.00000000000E+00 0. -1.
        -11    1    1    2    0    0 -0.43823855176E+01  0.84800446749E+01  0.47992398558E+03  0.48001890421E+03  0.00000000000E+00 0. -1.
         11    1    1    2    0    0 -0.60936215072E+01  0.17860478211E+02 -0.39024341524E+03  0.39069943952E+03  0.00000000000E+00 0. -1.
        -15    1    1    2    0    0 -0.51646648249E+01 -0.15344270646E+02  0.15427505565E+02  0.22434038008E+02  0.17770000000E+01 0.  1.
         15    1    1    2    0    0  0.15640671850E+02 -0.10996252240E+02 -0.10510807590E+03  0.10684761826E+03  0.17770000000E+01 0. -1.
</event>
<event>
 6    1  0.1860328E-003  0.5176769E+03  0.7546771E-02  0.9361102E-01
        -11   -1    0    0    0    0  0.00000000000E+00  0.00000000000E+00  0.50000000000E+03  0.50000000000E+03  0.00000000000E+00 0. -1.
         11   -1    0    0    0    0 -0.00000000000E+00 -0.00000000000E+00 -0.50000000000E+03  0.50000000000E+03  0.00000000000E+00 0.  1.
        -11    1    1    2    0    0  0.61577162720E+01 -0.12009628194E+02  0.41310387248E+03  0.41332427717E+03  0.00000000000E+00 0. -1.
         11    1    1    2    0    0 -0.19360556096E+01 -0.11513261363E+02 -0.48218181226E+03  0.48232313190E+03  0.00000000000E+00 0.  1.
        -15    1    1    2    0    0 -0.75481391119E+01  0.71790360351E+01  0.82311698243E+02  0.82987266246E+02  0.17770000000E+01 0.  1.
         15    1    1    2    0    0  0.33264784495E+01  0.16343853522E+02 -0.13233758462E+02  0.21365324684E+02  0.17770000000E+01 0. -1.
</event>
<event>
 6    1  0.1860328E-003  0.5042234E+03  0.7546771E-02  0.9390409E-01
        -11   -1    0    0    0    0  0.00000000000E+00  0.00000000000E+00  0.50000000000E+03  0.50000000000E+03  0.00000000000E+00 0.  1.
         11   -1    0    0    0    0 -0.00000000000E+00 -0.00000000000E+00 -0.50000000000E+03  0.50000000000E+03  0.00000000000E+00 0. -1.
        -11    1    1    2    0    0  0.46830668813E+01 -0.96735150733E+01  0.49566010868E+03  0.49577661435E+03  0.00000000000E+00 0.  1.
         11    1    1    2    0    0 -0.27152223144E+01  0.47133187825E+01 -0.38498550354E+03  0.38502392880E+03  0.00000000000E+00 0. -1.
        -15    1    1    2    0    0 -0.14446893440E+00 -0.40978847444E+01 -0.10964292396E+03  0.10973396025E+03  0.17770000000E+01 0.  1.
         15    1    1    2    0    0 -0.18233756325E+01  0.90580810352E+01 -0.10316811753E+01  0.94654965948E+01  0.17770000000E+01 0. -1.
</event>
<event>
 6    1  0.1860328E-003  0.4807255E+03  0.7546771E-02  0.9444002E-01
        -11   -1    0    0    0    0  0.00000000000E+00  0.00000000000E+00  0.50000000000E+03  0.50000000000E+03  0.00000000000E+00 0. -1.
         11   -1    0    0    0    0 -0.00000000000E+00 -0.00000000000E+00 -0.50000000000E+03  0.50000000000E+03  0.00000000000E+00 0.  1.
        -11    1    1    2    0    0  0.74017499553E+01  0.23702241466E+00  0.48689882079E+03  0.48695513527E+03  0.00000000000E+00 0. -1.
         11    1    1    2    0    0  0.16990407807E+02 -0.11436249137E+02 -0.47450845537E+03  0.47495024578E+03  0.00000000000E+00 0.  1.
        -15    1    1    2    0    0  0.21544146024E+01 -0.37145707259E+01  0.10490056022E+01  0.47642081934E+01  0.17770000000E+01 0. -1.
         15    1    1    2    0    0 -0.26546572365E+02  0.14913797448E+02 -0.13439371019E+02  0.33330410754E+02  0.17770000000E+01 0.  1.
</event>
<event>
 6    1  0.1860328E-003  0.5160244E+03  0.7546771E-02  0.9364651E-01
        -11   -1    0    0    0    0  0.00000000000E+00  0.00000000000E+00  0.50000000000E+03  0.50000000000E+03  0.00000000000E+00 0.  1.
         11   -1    0    0    0    0 -0.00000000000E+00 -0.00000000000E+00 -0.50000000000E+03  0.50000000000E+03  0.00000000000E+00 0.  1.
        -11    1    1    2    0    0  0.14518559757E+02 -0.83905013341E+01  0.45736170478E+03  0.45766900495E+03  0.00000000000E+00 0.  1.
         11    1    1    2    0    0  0.21613299277E+02  0.13756947756E+02 -0.48329702668E+03  0.48397562368E+03  0.00000000000E+00 0.  1.
        -15    1    1    2    0    0 -0.21198563637E+02 -0.21109954387E+02  0.19088381176E+02  0.35532144594E+02  0.17770000000E+01 0.  1.
         15    1    1    2    0    0 -0.14933295398E+02  0.15743507965E+02  0.68469407221E+01  0.22823226781E+02  0.17770000000E+01 0. -1.
</event>
<event>
 6    1  0.1860328E-003  0.5003085E+03  0.7546771E-02  0.9399120E-01
        -11   -1    0    0    0    0  0.00000000000E+00  0.00000000000E+00  0.50000000000E+03  0.50000000000E+03  0.00000000000E+00 0. -1.
         11   -1    0    0    0    0 -0.00000000000E+00 -0.00000000000E+00 -0.50000000000E+03  0.50000000000E+03  0.00000000000E+00 0.  1.
        -11    1    1    2    0    0  0.47767963374E+01  0.39528002033E+01  0.24092713376E+03  0.24100690072E+03  0.00000000000E+00 0. -1.
         11    1    1    2    0    0 -0.36441957000E+01 -0.61327484760E+01 -0.49964057291E+03  0.49969149769E+03  0.00000000000E+00 0.  1.
        -15    1    1    2    0    0 -0.22820479036E+01  0.18898450131E+01  0.25495589682E+03  0.25497930565E+03  0.17770000000E+01 0. -1.
         15    1    1    2    0    0  0.11494472662E+01  0.29010325969E+00  0.37575423223E+01  0.43222959435E+01  0.17770000000E+01 0. -1.
</event>
<event>
 6    1  0.1860328E-003  0.5115072E+03  0.7546771E-02  0.9374423E-01
        -11   -1    0    0    0    0  0.00000000000E+00  0.00000000000E+00  0.50000000000E+03  0.50000000000E+03  0.00000000000E+00 0. -1.
         11   -1    0    0    0    0 -0.00000000000E+00 -0.00000000000E+00 -0.50000000000E+03  0.50000000000E+03  0.00000000000E+00 0.  1.
        -11    1    1    2    0    0 -0.13262220058E+01  0.44372449928E+02  0.48647152860E+03  0.48849280580E+03  0.00000000000E+00 0. -1.
         11    1    1    2    0    0 -0.86941345686E+01  0.56087549509E+01 -0.20848238182E+03  0.20873895094E+03  0.00000000000E+00 0.  1.
        -15    1    1    2    0    0  0.92564314390E+01 -0.31085009155E+02 -0.98302731234E+01  0.33937461835E+02  0.17770000000E+01 0. -1.
         15    1    1    2    0    0  0.76392513534E+00 -0.18896195724E+02 -0.26815887365E+03  0.26883078143E+03  0.17770000000E+01 0.  1.
</event>
<event>
 6    1  0.1860328E-003  0.5032949E+03  0.7546771E-02  0.9392467E-01
        -11   -1    0    0    0    0  0.00000000000E+00  0.00000000000E+00  0.50000000000E+03  0.50000000000E+03  0.00000000000E+00 0. -1.
         11   -1    0    0    0    0 -0.00000000000E+00 -0.00000000000E+00 -0.50000000000E+03  0.50000000000E+03  0.00000000000E+00 0. -1.
        -11    1    1    2    0    0 -0.69018612800E+01  0.22011937137E+02  0.49616908286E+03  0.49670506325E+03  0.00000000000E+00 0. -1.
         11    1    1    2    0    0  0.99948027097E+01  0.92717885939E+01 -0.30619580612E+03  0.30649915796E+03  0.00000000000E+00 0. -1.
        -15    1    1    2    0    0 -0.31200950932E+01 -0.20811149426E+02 -0.31246276749E+02  0.37713743828E+02  0.17770000000E+01 0. -1.
         15    1    1    2    0    0  0.27153663513E-01 -0.10472576305E+02 -0.15872699999E+03  0.15908203496E+03  0.17770000000E+01 0.  1.
</event>
<event>
 6    1  0.1860328E-003  0.5137415E+03  0.7546771E-02  0.9369576E-01
        -11   -1    0    0    0    0  0.00000000000E+00  0.00000000000E+00  0.50000000000E+03  0.50000000000E+03  0.00000000000E+00 0. -1.
         11   -1    0    0    0    0 -0.00000000000E+00 -0.00000000000E+00 -0.50000000000E+03  0.50000000000E+03  0.00000000000E+00 0. -1.
        -11    1    1    2    0    0  0.87620302218E+01  0.92909153704E+00  0.48617866364E+03  0.48625850056E+03  0.00000000000E+00 0. -1.
         11    1    1    2    0    0 -0.53308745707E+01  0.20536954045E+02 -0.46578406782E+03  0.46626707212E+03  0.00000000000E+00 0. -1.
        -15    1    1    2    0    0  0.28009013970E+01 -0.87012297333E+01  0.10129917389E+02  0.13759702134E+02  0.17770000000E+01 0.  1.
         15    1    1    2    0    0 -0.62320570481E+01 -0.12764815849E+02 -0.30524513213E+02  0.33714725189E+02  0.17770000000E+01 0. -1.
</event>
<event>
 6    1  0.1860328E-003  0.5063283E+03  0.7546771E-02  0.9385760E-01
        -11   -1    0    0    0    0  0.00000000000E+00  0.00000000000E+00  0.50000000000E+03  0.50000000000E+03  0.00000000000E+00 0.  1.
         11   -1    0    0    0    0 -0.00000000000E+00 -0.00000000000E+00 -0.50000000000E+03  0.50000000000E+03  0.00000000000E+00 0.  1.
        -11    1    1    2    0    0 -0.84041793628E+02 -0.77239465628E+02  0.48029446770E+03  0.49367168627E+03  0.00000000000E+00 0.  1.
         11    1    1    2    0    0 -0.51999522078E+01  0.46645293863E+01 -0.11686618275E+03  0.11707477101E+03  0.00000000000E+00 0.  1.
        -15    1    1    2    0    0  0.95315101507E+02  0.35803100199E+02 -0.27648134371E+03  0.29463862901E+03  0.17770000000E+01 0.  1.
         15    1    1    2    0    0 -0.60733556713E+01  0.36771836043E+02 -0.86946941238E+02  0.94614913701E+02  0.17770000000E+01 0. -1.
</event>
<event>
 6    1  0.1860328E-003  0.5001080E+03  0.7546771E-02  0.9399568E-01
        -11   -1    0    0    0    0  0.00000000000E+00  0.00000000000E+00  0.50000000000E+03  0.50000000000E+03  0.00000000000E+00 0. -1.
         11   -1    0    0    0    0 -0.00000000000E+00 -0.00000000000E+00 -0.50000000000E+03  0.50000000000E+03  0.00000000000E+00 0. -1.
        -11    1    1    2    0    0 -0.66736727494E+01  0.11050433159E+01  0.49984619339E+03  0.49989196441E+03  0.00000000000E+00 0. -1.
         11    1    1    2    0    0  0.37388405274E+00  0.91147637596E+00 -0.48086089760E+02  0.48096180793E+02  0.00000000000E+00 0. -1.
        -15    1    1    2    0    0 -0.21434325796E+01 -0.32216802552E+01 -0.27877051254E+03  0.27880303068E+03  0.17770000000E+01 0.  1.
         15    1    1    2    0    0  0.84432212763E+01  0.12051605634E+01 -0.17298959109E+03  0.17320882412E+03  0.17770000000E+01 0. -1.
</event>
<event>
 6    1  0.1860328E-003  0.5059023E+03  0.7546771E-02  0.9386699E-01
        -11   -1    0    0    0    0  0.00000000000E+00  0.00000000000E+00  0.50000000000E+03  0.50000000000E+03  0.00000000000E+00 0.  1.
         11   -1    0    0    0    0 -0.00000000000E+00 -0.00000000000E+00 -0.50000000000E+03  0.50000000000E+03  0.00000000000E+00 0. -1.
        -11    1    1    2    0    0 -0.17089073104E+02 -0.90603344754E+01  0.41270053008E+03  0.41315354725E+03  0.00000000000E+00 0.  1.
         11    1    1    2    0    0  0.84976339476E+01  0.18784790896E+01 -0.49402103893E+03  0.49409768808E+03  0.00000000000E+00 0. -1.
        -15    1    1    2    0    0 -0.11236370173E+02  0.14287649253E+01  0.31669694916E+01  0.11894738696E+02  0.17770000000E+01 0.  1.
         15    1    1    2    0    0  0.19827809330E+02  0.57530904605E+01  0.78153539355E+02  0.80854025969E+02  0.17770000000E+01 0. -1.
</event>
<event>
 6    1  0.1860328E-003  0.5037470E+03  0.7546771E-02  0.9391464E-01
        -11   -1    0    0    0    0  0.00000000000E+00  0.00000000000E+00  0.50000000000E+03  0.50000000000E+03  0.00000000000E+00 0. -1.
         11   -1    0    0    0    0 -0.00000000000E+00 -0.00000000000E+00 -0.50000000000E+03  0.50000000000E+03  0.00000000000E+00 0. -1.
        -11    1    1    2    0    0  0.27140111806E+01  0.10542949594E+02  0.49613354485E+03  0.49625297377E+03  0.00000000000E+00 0. -1.
         11    1    1    2    0    0  0.85918904216E+01 -0.10806516167E+02 -0.45735055001E+03  0.45755887814E+03  0.00000000000E+00 0. -1.
        -15    1    1    2    0    0 -0.48710623184E+00  0.10095270341E+02 -0.17938963894E+02  0.20666782776E+02  0.17770000000E+01 0. -1.
         15    1    1    2    0    0 -0.10818795370E+02 -0.98317037682E+01 -0.20844030949E+02  0.25521365313E+02  0.17770000000E+01 0.  1.
</event>
<event>
 6    1  0.1860328E-003  0.5300855E+03  0.7546771E-02  0.9334898E-01
        -11   -1    0    0    0    0  0.00000000000E+00  0.00000000000E+00  0.50000000000E+03  0.50000000000E+03  0.00000000000E+00 0. -1.
         11   -1    0    0    0    0 -0.00000000000E+00 -0.00000000000E+00 -0.50000000000E+03  0.50000000000E+03  0.00000000000E+00 0.  1.
        -11    1    1    2    0    0 -0.78504485641E+01  0.62645323269E+01  0.42835727011E+03  0.42847499899E+03  0.00000000000E+00 0. -1.
         11    1    1    2    0    0  0.45965237068E+01 -0.89689947043E+01 -0.46980637337E+03  0.46991445962E+03  0.00000000000E+00 0.  1.
        -15    1    1    2    0    0 -0.10745402749E+02  0.10251797759E+02 -0.27242990849E+02  0.31078952957E+02  0.17770000000E+01 0. -1.
         15    1    1    2    0    0  0.13999327606E+02 -0.75473353817E+01  0.68692094113E+02  0.70531588437E+02  0.17770000000E+01 0.  1.
</event>
<event>
 6    1  0.1860328E-003  0.5034108E+03  0.7546771E-02  0.9392210E-01
        -11   -1    0    0    0    0  0.00000000000E+00  0.00000000000E+00  0.50000000000E+03  0.50000000000E+03  0.00000000000E+00 0. -1.
         11   -1    0    0    0    0 -0.00000000000E+00 -0.00000000000E+00 -0.50000000000E+03  0.50000000000E+03  0.00000000000E+00 0. -1.
        -11    1    1    2    0    0  0.45947840361E+00  0.95834987114E+01  0.49649654194E+03  0.49658923742E+03  0.00000000000E+00 0. -1.
         11    1    1    2    0    0  0.54763770646E+01  0.42744856889E+01 -0.40673115155E+03  0.40679047626E+03  0.00000000000E+00 0. -1.
        -15    1    1    2    0    0 -0.76986467491E+01 -0.11387968578E+02 -0.10786290395E+02  0.17562937670E+02  0.17770000000E+01 0.  1.
         15    1    1    2    0    0  0.17627912808E+01 -0.24700158220E+01 -0.78979099990E+02  0.79057348649E+02  0.17770000000E+01 0. -1.
</event>
<event>
 6    1  0.1860328E-003  0.5031348E+03  0.7546771E-02  0.9392823E-01
        -11   -1    0    0    0    0  0.00000000000E+00  0.00000000000E+00  0.50000000000E+03  0.50000000000E+03  0.00000000000E+00 0. -1.
         11   -1    0    0    0    0 -0.00000000000E+00 -0.00000000000E+00 -0.50000000000E+03  0.50000000000E+03  0.00000000000E+00 0. -1.
        -11    1    1    2    0    0 -0.90717780653E+01 -0.84343169682E+00  0.49678169217E+03  0.49686523143E+03  0.00000000000E+00 0. -1.
         11    1    1    2    0    0 -0.61307294384E+00  0.27460755285E+01 -0.48167526313E+02  0.48249636065E+02  0.00000000000E+00 0. -1.
        -15    1    1    2    0    0 -0.15256007201E+02 -0.24019306552E+02 -0.83197857930E+02  0.87947223584E+02  0.17770000000E+01 0.  1.
         15    1    1    2    0    0  0.24940858210E+02  0.22116662720E+02 -0.36541630792E+03  0.36693790892E+03  0.17770000000E+01 0. -1.
</event>
<event>
 6    1  0.1860328E-003  0.5191108E+03  0.7546771E-02  0.9358035E-01
        -11   -1    0    0    0    0  0.00000000000E+00  0.00000000000E+00  0.50000000000E+03  0.50000000000E+03  0.00000000000E+00 0. -1.
         11   -1    0    0    0    0 -0.00000000000E+00 -0.00000000000E+00 -0.50000000000E+03  0.50000000000E+03  0.00000000000E+00 0. -1.
        -11    1    1    2    0    0 -0.18307115023E+01  0.65404749003E+01  0.48084126037E+03  0.48088922528E+03  0.00000000000E+00 0. -1.
         11    1    1    2    0    0  0.14363110821E+02 -0.66688945670E+01 -0.44719360265E+03  0.44747390019E+03  0.00000000000E+00 0. -1.
        -15    1    1    2    0    0 -0.11641685699E+02 -0.68250124653E+01 -0.51027891664E+02  0.52812054474E+02  0.17770000000E+01 0.  1.
         15    1    1    2    0    0 -0.89071361953E+00  0.69534321320E+01  0.17380233939E+02  0.18824820050E+02  0.17770000000E+01 0. -1.
</event>
<event>
 6    1  0.1860328E-003  0.4738484E+03  0.7546771E-02  0.9460306E-01
        -11   -1    0    0    0    0  0.00000000000E+00  0.00000000000E+00  0.50000000000E+03  0.50000000000E+03  0.00000000000E+00 0.  1.
         11   -1    0    0    0    0 -0.00000000000E+00 -0.00000000000E+00 -0.50000000000E+03  0.50000000000E+03  0.00000000000E+00 0.  1.
        -11    1    1    2    0    0  0.43138681426E+01  0.64712636909E+01  0.47677676299E+03  0.47684019172E+03  0.00000000000E+00 0.  1.
         11    1    1    2    0    0 -0.32885618046E+02 -0.13197886321E+02 -0.47000130729E+03  0.47133520655E+03  0.00000000000E+00 0.  1.
        -15    1    1    2    0    0  0.20778013705E+02 -0.25031626654E+01  0.15716040289E+02  0.26232486123E+02  0.17770000000E+01 0.  1.
         15    1    1    2    0    0  0.77937361984E+01  0.92297852956E+01 -0.22491495988E+02  0.25592115609E+02  0.17770000000E+01 0. -1.
</event>
<event>
 6    1  0.1860328E-003  0.5121337E+03  0.7546771E-02  0.9373062E-01
        -11   -1    0    0    0    0  0.00000000000E+00  0.00000000000E+00  0.50000000000E+03  0.50000000000E+03  0.00000000000E+00 0. -1.
         11   -1    0    0    0    0 -0.00000000000E+00 -0.00000000000E+00 -0.50000000000E+03  0.50000000000E+03  0.00000000000E+00 0. -1.
        -11    1    1    2    0    0 -0.95296699266E+01 -0.14538587509E+01  0.40373488359E+03  0.40384995301E+03  0.00000000000E+00 0. -1.
         11    1    1    2    0    0 -0.29837453169E+02 -0.20172852250E+02 -0.48653502391E+03  0.48786632091E+03  0.00000000000E+00 0. -1.
        -15    1    1    2    0    0  0.53912906914E+01 -0.19997944131E+01  0.61337611779E+02  0.61632179426E+02  0.17770000000E+01 0. -1.
         15    1    1    2    0    0  0.33975832405E+02  0.23626505414E+02  0.21462528543E+02  0.46651546664E+02  0.17770000000E+01 0.  1.
</event>
<event>
 6    1  0.1860328E-003  0.5164740E+03  0.7546771E-02  0.9363684E-01
        -11   -1    0    0    0    0  0.00000000000E+00  0.00000000000E+00  0.50000000000E+03  0.50000000000E+03  0.00000000000E+00 0. -1.
         11   -1    0    0    0    0 -0.00000000000E+00 -0.00000000000E+00 -0.50000000000E+03  0.50000000000E+03  0.00000000000E+00 0.  1.
        -11    1    1    2    0    0  0.54214640991E+01  0.21782055605E+02  0.46309100456E+03  0.46363469318E+03  0.00000000000E+00 0. -1.
         11    1    1    2    0    0 -0.11481735168E+02 -0.18559125665E+01 -0.48338613906E+03  0.48352604282E+03  0.00000000000E+00 0.  1.
        -15    1    1    2    0    0 -0.50349261643E+01 -0.31724582510E+02  0.16295491166E+02  0.36062451085E+02  0.17770000000E+01 0. -1.
         15    1    1    2    0    0  0.11095197234E+02  0.11798439472E+02  0.39996433297E+01  0.16776812909E+02  0.17770000000E+01 0.  1.
</event>
<event>
 6    1  0.1860328E-003  0.5002465E+03  0.7546771E-02  0.9399258E-01
        -11   -1    0    0    0    0  0.00000000000E+00  0.00000000000E+00  0.50000000000E+03  0.50000000000E+03  0.00000000000E+00 0. -1.
         11   -1    0    0    0    0 -0.00000000000E+00 -0.00000000000E+00 -0.50000000000E+03  0.50000000000E+03  0.00000000000E+00 0. -1.
        -11    1    1    2    0    0 -0.47606690691E+00 -0.49176508076E+00  0.99499685868E+01  0.99734822140E+01  0.00000000000E+00 0. -1.
         11    1    1    2    0    0 -0.14181406507E+02 -0.69243860843E+01 -0.49950430545E+03  0.49975354984E+03  0.00000000000E+00 0. -1.
        -15    1    1    2    0    0  0.79508094741E+01  0.45318529393E+01  0.44439838482E+03  0.44449615883E+03  0.17770000000E+01 0. -1.
         15    1    1    2    0    0  0.67066639399E+01  0.28842982258E+01  0.45155952051E+02  0.45776809108E+02  0.17770000000E+01 0.  1.
</event>
<event>
 6    1  0.1860328E-003  0.4668059E+03  0.7546771E-02  0.9477310E-01
        -11   -1    0    0    0    0  0.00000000000E+00  0.00000000000E+00  0.50000000000E+03  0.50000000000E+03  0.00000000000E+00 0. -1.
         11   -1    0    0    0    0 -0.00000000000E+00 -0.00000000000E+00 -0.50000000000E+03  0.50000000000E+03  0.00000000000E+00 0. -1.
        -11    1    1    2    0    0 -0.30592935682E+02  0.22602706397E+02  0.46676087844E+03  0.46830815463E+03  0.00000000000E+00 0. -1.
         11    1    1    2    0    0 -0.67848368472E+01  0.11979007253E+02 -0.46648822714E+03  0.46669132913E+03  0.00000000000E+00 0. -1.
        -15    1    1    2    0    0  0.12426823695E+02  0.47738698581E+01  0.10609487361E+02  0.17115336153E+02  0.17770000000E+01 0. -1.
         15    1    1    2    0    0  0.24950948834E+02 -0.39355583508E+02 -0.10882138667E+02  0.47885180087E+02  0.17770000000E+01 0.  1.
</event>
<event>
 6    1  0.1860328E-003  0.5140376E+03  0.7546771E-02  0.9368936E-01
        -11   -1    0    0    0    0  0.00000000000E+00  0.00000000000E+00  0.50000000000E+03  0.50000000000E+03  0.00000000000E+00 0.  1.
         11   -1    0    0    0    0 -0.00000000000E+00 -0.00000000000E+00 -0.50000000000E+03  0.50000000000E+03  0.00000000000E+00 0.  1.
        -11    1    1    2    0    0  0.69841141382E+01  0.48727682738E+01  0.48588778452E+03  0.48596240684E+03  0.00000000000E+00 0.  1.
         11    1    1    2    0    0  0.99959811862E+00  0.42881971614E+01 -0.19442247811E+03  0.19447233177E+03  0.00000000000E+00 0.  1.
        -15    1    1    2    0    0 -0.35210304301E+02 -0.51481408437E+00 -0.10001494368E+02  0.36649941079E+02  0.17770000000E+01 0. -1.
         15    1    1    2    0    0  0.27226592044E+02 -0.86461513508E+01 -0.28146381204E+03  0.28291532031E+03  0.17770000000E+01 0.  1.
</event>
<event>
 6    1  0.1860328E-003  0.5006597E+03  0.7546771E-02  0.9398335E-01
        -11   -1    0    0    0    0  0.00000000000E+00  0.00000000000E+00  0.50000000000E+03  0.50000000000E+03  0.00000000000E+00 0. -1.
         11   -1    0    0    0    0 -0.00000000000E+00 -0.00000000000E+00 -0.50000000000E+03  0.50000000000E+03  0.00000000000E+00 0.  1.
        -11    1    1    2    0    0  0.22766344825E+01 -0.86407717244E+01  0.20233782117E+03  0.20253503370E+03  0.00000000000E+00 0. -1.
         11    1    1    2    0    0  0.12258708649E+02  0.13816163422E+01 -0.49918785624E+03  0.49934026536E+03  0.00000000000E+00 0.  1.
        -15    1    1    2    0    0 -0.50470701377E+01  0.39915663883E+01  0.25368807112E+03  0.25377588671E+03  0.17770000000E+01 0.  1.
         15    1    1    2    0    0 -0.94882729935E+01  0.32675889939E+01  0.43161963953E+02  0.44348814229E+02  0.17770000000E+01 0. -1.
</event>
<event>
 6    1  0.1860328E-003  0.5004483E+03  0.7546771E-02  0.9398807E-01
        -11   -1    0    0    0    0  0.00000000000E+00  0.00000000000E+00  0.50000000000E+03  0.50000000000E+03  0.00000000000E+00 0.  1.
         11   -1    0    0    0    0 -0.00000000000E+00 -0.00000000000E+00 -0.50000000000E+03  0.50000000000E+03  0.00000000000E+00 0. -1.
        -11    1    1    2    0    0  0.96495263127E+01  0.20011557273E+01  0.49945450972E+03  0.49955172431E+03  0.00000000000E+00 0.  1.
         11    1    1    2    0    0 -0.71132614238E+00  0.67725497961E+01 -0.39864316881E+03  0.39870132864E+03  0.00000000000E+00 0. -1.
        -15    1    1    2    0    0 -0.20000016009E+01 -0.61801129781E+00 -0.14701834988E+02  0.14956056478E+02  0.17770000000E+01 0. -1.
         15    1    1    2    0    0 -0.69381985694E+01 -0.81556942256E+01 -0.86109505919E+02  0.86790890572E+02  0.17770000000E+01 0. -1.
</event>
<event>
 6    1  0.1860328E-003  0.5324953E+03  0.7546771E-02  0.9329898E-01
        -11   -1    0    0    0    0  0.00000000000E+00  0.00000000000E+00  0.50000000000E+03  0.50000000000E+03  0.00000000000E+00 0.  1.
         11   -1    0    0    0    0 -0.00000000000E+00 -0.00000000000E+00 -0.50000000000E+03  0.50000000000E+03  0.00000000000E+00 0. -1.
        -11    1    1    2    0    0 -0.36163655251E+01  0.72909942495E+01  0.36342009576E+03  0.36351121400E+03  0.00000000000E+00 0.  1.
         11    1    1    2    0    0  0.10227120888E+02 -0.36800616448E+02 -0.46594184565E+03  0.46750474105E+03  0.00000000000E+00 0. -1.
        -15    1    1    2    0    0  0.10033751102E+02 -0.23402497886E+01  0.12573247077E+03  0.12616641735E+03  0.17770000000E+01 0. -1.
         15    1    1    2    0    0 -0.16644506465E+02  0.31849871987E+02 -0.23210720881E+02  0.42817627607E+02  0.17770000000E+01 0.  1.
</event>
<event>
 6    1  0.1860328E-003  0.5007799E+03  0.7546771E-02  0.9398066E-01
        -11   -1    0    0    0    0  0.00000000000E+00  0.00000000000E+00  0.50000000000E+03  0.50000000000E+03  0.00000000000E+00 0.  1.
         11   -1    0    0    0    0 -0.00000000000E+00 -0.00000000000E+00 -0.50000000000E+03  0.50000000000E+03  0.00000000000E+00 0.  1.
        -11    1    1    2    0    0  0.12126972994E+02 -0.67964340496E+01  0.49902651889E+03  0.49922011332E+03  0.00000000000E+00 0.  1.
         11    1    1    2    0    0  0.53262856786E+00  0.23901238558E+01 -0.30912900859E+02  0.31009737579E+02  0.00000000000E+00 0.  1.
        -15    1    1    2    0    0 -0.22533894700E+02  0.46434802328E+01 -0.17885373511E+03  0.18033622656E+03  0.17770000000E+01 0.  1.
         15    1    1    2    0    0  0.98742931383E+01 -0.23717003903E+00 -0.28925988293E+03  0.28943392254E+03  0.17770000000E+01 0. -1.
</event>
<event>
 6    1  0.1860328E-003  0.5000549E+03  0.7546771E-02  0.9399687E-01
        -11   -1    0    0    0    0  0.00000000000E+00  0.00000000000E+00  0.50000000000E+03  0.50000000000E+03  0.00000000000E+00 0.  1.
         11   -1    0    0    0    0 -0.00000000000E+00 -0.00000000000E+00 -0.50000000000E+03  0.50000000000E+03  0.00000000000E+00 0. -1.
        -11    1    1    2    0    0  0.66273335077E+00  0.46088926049E+00  0.43735496345E+02  0.43742945431E+02  0.00000000000E+00 0.  1.
         11    1    1    2    0    0  0.17628842738E+01 -0.83037006252E+01 -0.49987301249E+03  0.49994508481E+03  0.00000000000E+00 0. -1.
        -15    1    1    2    0    0  0.17976668366E+01  0.73314129997E+01  0.32766674916E+03  0.32775850478E+03  0.17770000000E+01 0.  1.
         15    1    1    2    0    0 -0.42232844612E+01  0.51139836498E+00  0.12847076699E+03  0.12855346498E+03  0.17770000000E+01 0. -1.
</event>
<event>
 6    1  0.1860328E-003  0.5041689E+03  0.7546771E-02  0.9390529E-01
        -11   -1    0    0    0    0  0.00000000000E+00  0.00000000000E+00  0.50000000000E+03  0.50000000000E+03  0.00000000000E+00 0. -1.
         11   -1    0    0    0    0 -0.00000000000E+00 -0.00000000000E+00 -0.50000000000E+03  0.50000000000E+03  0.00000000000E+00 0. -1.
        -11    1    1    2    0    0 -0.73687215603E+01 -0.62746167130E+01  0.49573659078E+03  0.49583105621E+03  0.00000000000E+00 0. -1.
         11    1    1    2    0    0 -0.10673527704E+01 -0.24736458056E+00 -0.10447263583E+02  0.10504558418E+02  0.00000000000E+00 0. -1.
        -15    1    1    2    0    0  0.88073401012E+01  0.12647704120E+02 -0.48684219027E+03  0.48708932406E+03  0.17770000000E+01 0. -1.
         15    1    1    2    0    0 -0.37126577052E+00 -0.61257228263E+01  0.15528630788E+01  0.65750613046E+01  0.17770000000E+01 0.  1.
</event>
<event>
 6    1  0.1860328E-003  0.5057019E+03  0.7546771E-02  0.9387141E-01
        -11   -1    0    0    0    0  0.00000000000E+00  0.00000000000E+00  0.50000000000E+03  0.50000000000E+03  0.00000000000E+00 0. -1.
         11   -1    0    0    0    0 -0.00000000000E+00 -0.00000000000E+00 -0.50000000000E+03  0.50000000000E+03  0.00000000000E+00 0. -1.
        -11    1    1    2    0    0 -0.63891100687E+01 -0.30799203508E+01  0.49424716812E+03  0.49429805768E+03  0.00000000000E+00 0. -1.
         11    1    1    2    0    0 -0.60204353341E+01  0.73732361778E+01 -0.47293714573E+03  0.47303293127E+03  0.00000000000E+00 0. -1.
        -15    1    1    2    0    0  0.51834692570E+01  0.23389138082E+01  0.27974943161E+01  0.65819886652E+01  0.17770000000E+01 0.  1.
         15    1    1    2    0    0  0.72260761458E+01 -0.66322296352E+01 -0.24107516700E+02  0.26087022383E+02  0.17770000000E+01 0. -1.
</event>
<event>
 6    1  0.1860328E-003  0.5025870E+03  0.7546771E-02  0.9394040E-01
        -11   -1    0    0    0    0  0.00000000000E+00  0.00000000000E+00  0.50000000000E+03  0.50000000000E+03  0.00000000000E+00 0. -1.
         11   -1    0    0    0    0 -0.00000000000E+00 -0.00000000000E+00 -0.50000000000E+03  0.50000000000E+03  0.00000000000E+00 0. -1.
        -11    1    1    2    0    0 -0.17271937697E+02 -0.23077267361E+01  0.49710772818E+03  0.49741304652E+03  0.00000000000E+00 0. -1.
         11    1    1    2    0    0 -0.15519294975E+01  0.30000565244E+01 -0.22473036790E+03  0.22475574982E+03  0.00000000000E+00 0. -1.
        -15    1    1    2    0    0  0.28824380569E+02 -0.13910759570E+02 -0.23113542537E+03  0.23334758781E+03  0.17770000000E+01 0. -1.
         15    1    1    2    0    0 -0.10000513374E+02  0.13218429782E+02 -0.41241934917E+02  0.44483615841E+02  0.17770000000E+01 0.  1.
</event>
<event>
 6    1  0.1860328E-003  0.5138922E+03  0.7546771E-02  0.9369250E-01
        -11   -1    0    0    0    0  0.00000000000E+00  0.00000000000E+00  0.50000000000E+03  0.50000000000E+03  0.00000000000E+00 0. -1.
         11   -1    0    0    0    0 -0.00000000000E+00 -0.00000000000E+00 -0.50000000000E+03  0.50000000000E+03  0.00000000000E+00 0.  1.
        -11    1    1    2    0    0 -0.13206869240E+02 -0.75576024483E+01  0.48586957608E+03  0.48610779022E+03  0.00000000000E+00 0. -1.
         11    1    1    2    0    0 -0.39624985969E+01  0.68316697742E+01 -0.45372741291E+03  0.45379614182E+03  0.00000000000E+00 0.  1.
        -15    1    1    2    0    0 -0.12060922305E+01 -0.28544075543E+01 -0.39677049673E+02  0.39837523777E+02  0.17770000000E+01 0. -1.
         15    1    1    2    0    0  0.18375460067E+02  0.35803402284E+01  0.75348865002E+01  0.20258544183E+02  0.17770000000E+01 0.  1.
</event>
<event>
 6    1  0.1860328E-003  0.5000388E+03  0.7546771E-02  0.9399723E-01
        -11   -1    0    0    0    0  0.00000000000E+00  0.00000000000E+00  0.50000000000E+03  0.50000000000E+03  0.00000000000E+00 0. -1.
         11   -1    0    0    0    0 -0.00000000000E+00 -0.00000000000E+00 -0.50000000000E+03  0.50000000000E+03  0.00000000000E+00 0.  1.
        -11    1    1    2    0    0  0.48558473958E+01 -0.40976621251E+01  0.23152787390E+03  0.23161503941E+03  0.00000000000E+00 0. -1.
         11    1    1    2    0    0 -0.84634139421E+01  0.37128012817E+01 -0.49987580353E+03  0.49996123172E+03  0.00000000000E+00 0.  1.
        -15    1    1    2    0    0  0.25301224548E+01 -0.10085936351E+01  0.90895943018E+02  0.90954103629E+02  0.17770000000E+01 0. -1.
         15    1    1    2    0    0  0.10774440914E+01  0.13934544785E+01  0.17745198661E+03  0.17746962524E+03  0.17770000000E+01 0. -1.
</event>
<event>
 6    1  0.1860328E-003  0.5015948E+03  0.7546771E-02  0.9396248E-01
        -11   -1    0    0    0    0  0.00000000000E+00  0.00000000000E+00  0.50000000000E+03  0.50000000000E+03  0.00000000000E+00 0.  1.
         11   -1    0    0    0    0 -0.00000000000E+00 -0.00000000000E+00 -0.50000000000E+03  0.50000000000E+03  0.00000000000E+00 0.  1.
        -11    1    1    2    0    0 -0.44659153625E+00 -0.14715998699E+02  0.34650707844E+03  0.34681971609E+03  0.00000000000E+00 0.  1.
         11    1    1    2    0    0  0.54669741210E+00 -0.90569757650E+01 -0.49832261718E+03  0.49840521514E+03  0.00000000000E+00 0.  1.
        -15    1    1    2    0    0 -0.18992219420E+01 -0.98762149712E+00  0.45500113055E+02  0.45585090295E+02  0.17770000000E+01 0.  1.
         15    1    1    2    0    0  0.17991160661E+01  0.24760595961E+02  0.10631542569E+03  0.10918997847E+03  0.17770000000E+01 0. -1.
</event>
<event>
 6    1  0.1860328E-003  0.4818282E+03  0.7546771E-02  0.9441414E-01
        -11   -1    0    0    0    0  0.00000000000E+00  0.00000000000E+00  0.50000000000E+03  0.50000000000E+03  0.00000000000E+00 0. -1.
         11   -1    0    0    0    0 -0.00000000000E+00 -0.00000000000E+00 -0.50000000000E+03  0.50000000000E+03  0.00000000000E+00 0.  1.
        -11    1    1    2    0    0 -0.48775559360E+01  0.80105666961E+01  0.48306665313E+03  0.48315768762E+03  0.00000000000E+00 0. -1.
         11    1    1    2    0    0 -0.15357447528E+02  0.53061683084E+01 -0.48053190397E+03  0.48080652799E+03  0.00000000000E+00 0.  1.
        -15    1    1    2    0    0  0.22261508633E+02 -0.86168707498E+01 -0.10713585297E+02  0.26225252469E+02  0.17770000000E+01 0.  1.
         15    1    1    2    0    0 -0.20265051698E+01 -0.46998642547E+01  0.81788361360E+01  0.98105319303E+01  0.17770000000E+01 0. -1.
</event>
<event>
 6    1  0.1860328E-003  0.5148689E+03  0.7546771E-02  0.9367140E-01
        -11   -1    0    0    0    0  0.00000000000E+00  0.00000000000E+00  0.50000000000E+03  0.50000000000E+03  0.00000000000E+00 0. -1.
         11   -1    0    0    0    0 -0.00000000000E+00 -0.00000000000E+00 -0.50000000000E+03  0.50000000000E+03  0.00000000000E+00 0. -1.
        -11    1    1    2    0    0  0.49770775676E+01 -0.85220861990E+01  0.48503066624E+03  0.48513105905E+03  0.00000000000E+00 0. -1.
         11    1    1    2    0    0 -0.93496448526E+01  0.91685216743E+00 -0.47056746801E+03  0.47066123532E+03  0.00000000000E+00 0. -1.
        -15    1    1    2    0    0 -0.23283999900E+01  0.18856760244E+02 -0.21896379948E+02  0.29044931352E+02  0.17770000000E+01 0. -1.
         15    1    1    2    0    0  0.67009672751E+01 -0.11251526213E+02  0.74331817199E+01  0.15162774285E+02  0.17770000000E+01 0.  1.
</event>
<event>
 6    1  0.1860328E-003  0.5111444E+03  0.7546771E-02  0.9375213E-01
        -11   -1    0    0    0    0  0.00000000000E+00  0.00000000000E+00  0.50000000000E+03  0.50000000000E+03  0.00000000000E+00 0. -1.
         11   -1    0    0    0    0 -0.00000000000E+00 -0.00000000000E+00 -0.50000000000E+03  0.50000000000E+03  0.00000000000E+00 0. -1.
        -11    1    1    2    0    0  0.57036381580E+01 -0.29919135802E+01  0.24206955141E+03  0.24215522037E+03  0.00000000000E+00 0. -1.
         11    1    1    2    0    0 -0.10110932502E+02 -0.46467446679E+00 -0.48875083910E+03  0.48885563267E+03  0.00000000000E+00 0. -1.
        -15    1    1    2    0    0  0.10389182940E+02  0.18183762886E+01  0.25678152658E+03  0.25700418623E+03  0.17770000000E+01 0. -1.
         15    1    1    2    0    0 -0.59818885960E+01  0.16382117583E+01 -0.10100238893E+02  0.11984960728E+02  0.17770000000E+01 0.  1.
</event>
<event>
 6    1  0.1860328E-003  0.4821718E+03  0.7546771E-02  0.9440610E-01
        -11   -1    0    0    0    0  0.00000000000E+00  0.00000000000E+00  0.50000000000E+03  0.50000000000E+03  0.00000000000E+00 0. -1.
         11   -1    0    0    0    0 -0.00000000000E+00 -0.00000000000E+00 -0.50000000000E+03  0.50000000000E+03  0.00000000000E+00 0.  1.
        -11    1    1    2    0    0 -0.52357310065E+01  0.42871477413E+01  0.47540524752E+03  0.47545340664E+03  0.00000000000E+00 0. -1.
         11    1    1    2    0    0  0.47093929018E+00  0.19862052441E+02 -0.48889511278E+03  0.48929863500E+03  0.00000000000E+00 0.  1.
        -15    1    1    2    0    0  0.11582078523E+00 -0.31355151607E+01  0.13165606772E+02  0.13650487187E+02  0.17770000000E+01 0.  1.
         15    1    1    2    0    0  0.46489709311E+01 -0.21013685022E+02  0.32425848892E+00  0.21597471183E+02  0.17770000000E+01 0. -1.
</event>
<event>
 6    1  0.1860328E-003  0.5011131E+03  0.7546771E-02  0.9397323E-01
        -11   -1    0    0    0    0  0.00000000000E+00  0.00000000000E+00  0.50000000000E+03  0.50000000000E+03  0.00000000000E+00 0. -1.
         11   -1    0    0    0    0 -0.00000000000E+00 -0.00000000000E+00 -0.50000000000E+03  0.50000000000E+03  0.00000000000E+00 0.  1.
        -11    1    1    2    0    0  0.61962780589E+01  0.20585950500E+01  0.43717657964E+03  0.43722533488E+03  0.00000000000E+00 0. -1.
         11    1    1    2    0    0  0.65135821590E+01 -0.53988121408E+01 -0.49881517196E+03  0.49888691073E+03  0.00000000000E+00 0.  1.
        -15    1    1    2    0    0 -0.96783250236E+01  0.12209326694E+01  0.56235700726E+02  0.57103173440E+02  0.17770000000E+01 0. -1.
         15    1    1    2    0    0 -0.30315351943E+01  0.21192844214E+01  0.54028915880E+01  0.67845809454E+01  0.17770000000E+01 0.  1.
</event>
<event>
 6    1  0.1860328E-003  0.5011717E+03  0.7546771E-02  0.9397192E-01
        -11   -1    0    0    0    0  0.00000000000E+00  0.00000000000E+00  0.50000000000E+03  0.50000000000E+03  0.00000000000E+00 0.  1.
         11   -1    0    0    0    0 -0.00000000000E+00 -0.00000000000E+00 -0.50000000000E+03  0.50000000000E+03  0.00000000000E+00 0. -1.
        -11    1    1    2    0    0 -0.59106767291E+01 -0.62185943256E+01  0.49875453622E+03  0.49882832158E+03  0.00000000000E+00 0.  1.
         11    1    1    2    0    0 -0.14398174816E+02  0.65175479499E+01 -0.31526501816E+03  0.31566092179E+03  0.00000000000E+00 0. -1.
        -15    1    1    2    0    0  0.61917733102E+01 -0.69664126491E+01 -0.37649348966E+02  0.38826539486E+02  0.17770000000E+01 0.  1.
         15    1    1    2    0    0  0.14117078235E+02  0.66674590248E+01 -0.14584016910E+03  0.14668421714E+03  0.17770000000E+01 0. -1.
</event>
<event>
 6    1  0.1860328E-003  0.5004946E+03  0.7546771E-02  0.9398704E-01
        -11   -1    0    0    0    0  0.00000000000E+00  0.00000000000E+00  0.50000000000E+03  0.50000000000E+03  0.00000000000E+00 0. -1.
         11   -1    0    0    0    0 -0.00000000000E+00 -0.00000000000E+00 -0.50000000000E+03  0.50000000000E+03  0.00000000000E+00 0.  1.
        -11    1    1    2    0    0 -0.14726601582E+02 -0.53332783535E+00  0.49928797578E+03  0.49950539536E+03  0.00000000000E+00 0. -1.
         11    1    1    2    0    0  0.49843309121E+01  0.89991741326E+01 -0.39798257678E+03  0.39811551101E+03  0.00000000000E+00 0.  1.
        -15    1    1    2    0    0  0.20105442454E+00 -0.33934960328E+01 -0.26945777604E+02  0.27217437387E+02  0.17770000000E+01 0. -1.
         15    1    1    2    0    0  0.95412162449E+01 -0.50723502644E+01 -0.74359621400E+02  0.75161656238E+02  0.17770000000E+01 0.  1.
</event>
<event>
 6    1  0.1860328E-003  0.5049226E+03  0.7546771E-02  0.9388862E-01
        -11   -1    0    0    0    0  0.00000000000E+00  0.00000000000E+00  0.50000000000E+03  0.50000000000E+03  0.00000000000E+00 0.  1.
         11   -1    0    0    0    0 -0.00000000000E+00 -0.00000000000E+00 -0.50000000000E+03  0.50000000000E+03  0.00000000000E+00 0. -1.
        -11    1    1    2    0    0  0.67763669282E+01  0.72997215392E+01  0.47757623182E+03  0.47768008361E+03  0.00000000000E+00 0.  1.
         11    1    1    2    0    0  0.51989780913E+01  0.56835474416E+01 -0.49501744742E+03  0.49507737308E+03  0.00000000000E+00 0. -1.
        -15    1    1    2    0    0  0.13456736569E+01 -0.16321571576E+00  0.10433790642E+01  0.24665453234E+01  0.17770000000E+01 0.  1.
         15    1    1    2    0    0 -0.13321018676E+02 -0.12820053265E+02  0.16397836536E+02  0.24775997989E+02  0.17770000000E+01 0. -1.
</event>
<event>
 6    1  0.1860328E-003  0.5014469E+03  0.7546771E-02  0.9396578E-01
        -11   -1    0    0    0    0  0.00000000000E+00  0.00000000000E+00  0.50000000000E+03  0.50000000000E+03  0.00000000000E+00 0. -1.
         11   -1    0    0    0    0 -0.00000000000E+00 -0.00000000000E+00 -0.50000000000E+03  0.50000000000E+03  0.00000000000E+00 0. -1.
        -11    1    1    2    0    0  0.94660274755E+01 -0.15402121368E+01  0.40849201182E+03  0.40860457860E+03  0.00000000000E+00 0. -1.
         11    1    1    2    0    0  0.76421717404E+00 -0.67311263421E+01 -0.49850708389E+03  0.49855311129E+03  0.00000000000E+00 0. -1.
        -15    1    1    2    0    0  0.48411660482E+01  0.46066391330E+01  0.33771297767E+02  0.34471963894E+02  0.17770000000E+01 0.  1.
         15    1    1    2    0    0 -0.15071410698E+02  0.36646993459E+01  0.56243774295E+02  0.58370346219E+02  0.17770000000E+01 0. -1.
</event>
<event>
 6    1  0.1860328E-003  0.5195993E+03  0.7546771E-02  0.9356992E-01
        -11   -1    0    0    0    0  0.00000000000E+00  0.00000000000E+00  0.50000000000E+03  0.50000000000E+03  0.00000000000E+00 0.  1.
         11   -1    0    0    0    0 -0.00000000000E+00 -0.00000000000E+00 -0.50000000000E+03  0.50000000000E+03  0.00000000000E+00 0. -1.
        -11    1    1    2    0    0 -0.33611005894E+02 -0.17598450308E+01  0.42105620322E+03  0.42239924603E+03  0.00000000000E+00 0.  1.
         11    1    1    2    0    0  0.10020464386E+02  0.29797894379E+00 -0.48029607332E+03  0.48040068333E+03  0.00000000000E+00 0. -1.
        -15    1    1    2    0    0  0.28332575995E+02 -0.84280145410E-02  0.75206074766E+02  0.80385610306E+02  0.17770000000E+01 0.  1.
         15    1    1    2    0    0 -0.47420344875E+01  0.14702941015E+01 -0.15966204672E+02  0.16814460338E+02  0.17770000000E+01 0. -1.
</event>
<event>
 6    1  0.1860328E-003  0.5085680E+03  0.7546771E-02  0.9380840E-01
        -11   -1    0    0    0    0  0.00000000000E+00  0.00000000000E+00  0.50000000000E+03  0.50000000000E+03  0.00000000000E+00 0.  1.
         11   -1    0    0    0    0 -0.00000000000E+00 -0.00000000000E+00 -0.50000000000E+03  0.50000000000E+03  0.00000000000E+00 0. -1.
        -11    1    1    2    0    0  0.39200309873E+01 -0.52252711099E+01  0.36322549926E+03  0.36328423227E+03  0.00000000000E+00 0.  1.
         11    1    1    2    0    0  0.66345250770E+01  0.32860335062E+02 -0.49028724776E+03  0.49143199311E+03  0.00000000000E+00 0. -1.
        -15    1    1    2    0    0  0.11745205217E+02 -0.45697682549E+01  0.10623078028E+03  0.10699050909E+03  0.17770000000E+01 0. -1.
         15    1    1    2    0    0 -0.22299761281E+02 -0.23065295697E+02  0.20830968213E+02  0.38293265523E+02  0.17770000000E+01 0.  1.
</event>
<event>
 6    1  0.1860328E-003  0.5031255E+03  0.7546771E-02  0.9392843E-01
        -11   -1    0    0    0    0  0.00000000000E+00  0.00000000000E+00  0.50000000000E+03  0.50000000000E+03  0.00000000000E+00 0. -1.
         11   -1    0    0    0    0 -0.00000000000E+00 -0.00000000000E+00 -0.50000000000E+03  0.50000000000E+03  0.00000000000E+00 0.  1.
        -11    1    1    2    0    0 -0.50219264197E+01 -0.51423936843E+01  0.47967608817E+03  0.47972993811E+03  0.00000000000E+00 0. -1.
         11    1    1    2    0    0  0.50703799273E+01  0.62077382447E+01 -0.49680980925E+03  0.49687446234E+03  0.00000000000E+00 0.  1.
        -15    1    1    2    0    0  0.37604517152E+01  0.49897247535E+00  0.18290536168E+02  0.18764099045E+02  0.17770000000E+01 0.  1.
         15    1    1    2    0    0 -0.38089052227E+01 -0.15643170357E+01 -0.11568150880E+01  0.46315005054E+01  0.17770000000E+01 0. -1.
</event>
<event>
 6    1  0.2401928E-003  0.5082027E+03  0.7546771E-02  0.9381640E-01
        -11   -1    0    0    0    0  0.00000000000E+00  0.00000000000E+00  0.50000000000E+03  0.50000000000E+03  0.00000000000E+00 0.  1.
         11   -1    0    0    0    0 -0.00000000000E+00 -0.00000000000E+00 -0.50000000000E+03  0.50000000000E+03  0.00000000000E+00 0. -1.
        -11    1    1    2    0    0 -0.63535837665E+01 -0.23482525378E+01  0.44845717673E+03  0.44850832955E+03  0.00000000000E+00 0.  1.
         11    1    1    2    0    0 -0.90417606538E+01 -0.21308849885E+02 -0.49125223648E+03  0.49179729602E+03  0.00000000000E+00 0. -1.
        -15    1    1    2    0    0  0.12950423537E+02  0.23238729799E+02  0.12856393302E+02  0.29600618409E+02  0.17770000000E+01 0. -1.
         15    1    1    2    0    0  0.24449208838E+01  0.41837262368E+00  0.29938666447E+02  0.30093756020E+02  0.17770000000E+01 0.  1.
</event>
<event>
 6    1  0.1860328E-003  0.5027995E+03  0.7546771E-02  0.9393567E-01
        -11   -1    0    0    0    0  0.00000000000E+00  0.00000000000E+00  0.50000000000E+03  0.50000000000E+03  0.00000000000E+00 0.  1.
         11   -1    0    0    0    0 -0.00000000000E+00 -0.00000000000E+00 -0.50000000000E+03  0.50000000000E+03  0.00000000000E+00 0.  1.
        -11    1    1    2    0    0 -0.97072863899E+01  0.16607735582E+02  0.27456901460E+03  0.27524206087E+03  0.00000000000E+00 0.  1.
         11    1    1    2    0    0 -0.88726571837E+01  0.44633245988E+01 -0.49710133691E+03  0.49720054753E+03  0.00000000000E+00 0.  1.
        -15    1    1    2    0    0  0.59463409051E+01  0.78609569351E+01  0.18030606371E+02  0.20625569306E+02  0.17770000000E+01 0. -1.
         15    1    1    2    0    0  0.12633602668E+02 -0.28932017116E+02  0.20450171593E+03  0.20693182230E+03  0.17770000000E+01 0.  1.
</event>
<event>
 6    1  0.1860328E-003  0.4916928E+03  0.7546771E-02  0.9418592E-01
        -11   -1    0    0    0    0  0.00000000000E+00  0.00000000000E+00  0.50000000000E+03  0.50000000000E+03  0.00000000000E+00 0. -1.
         11   -1    0    0    0    0 -0.00000000000E+00 -0.00000000000E+00 -0.50000000000E+03  0.50000000000E+03  0.00000000000E+00 0. -1.
        -11    1    1    2    0    0 -0.64433253153E+01 -0.28096063870E+01  0.49212341892E+03  0.49217361751E+03  0.00000000000E+00 0. -1.
         11    1    1    2    0    0  0.82008034762E+01 -0.20493941023E+01 -0.49115333545E+03  0.49122607027E+03  0.00000000000E+00 0. -1.
        -15    1    1    2    0    0 -0.56909587387E+01 -0.24510563233E+01  0.31379954225E+01  0.71693397700E+01  0.17770000000E+01 0.  1.
         15    1    1    2    0    0  0.39334805778E+01  0.73100568126E+01 -0.41080788911E+01  0.94309724438E+01  0.17770000000E+01 0. -1.
</event>
<event>
 6    1  0.1860328E-003  0.4878454E+03  0.7546771E-02  0.9427425E-01
        -11   -1    0    0    0    0  0.00000000000E+00  0.00000000000E+00  0.50000000000E+03  0.50000000000E+03  0.00000000000E+00 0.  1.
         11   -1    0    0    0    0 -0.00000000000E+00 -0.00000000000E+00 -0.50000000000E+03  0.50000000000E+03  0.00000000000E+00 0.  1.
        -11    1    1    2    0    0  0.65599822405E+01 -0.25047007403E+01  0.48732930066E+03  0.48737988692E+03  0.00000000000E+00 0.  1.
         11    1    1    2    0    0 -0.95317822267E-01  0.97011210430E+01 -0.48826302368E+03  0.48835939750E+03  0.00000000000E+00 0.  1.
        -15    1    1    2    0    0 -0.80262574034E+01  0.49943173365E+00  0.94540046484E+01  0.12538188579E+02  0.17770000000E+01 0. -1.
         15    1    1    2    0    0  0.15615929852E+01 -0.76958520364E+01 -0.85202816277E+01  0.11722526999E+02  0.17770000000E+01 0.  1.
</event>
<event>
 6    1  0.1860328E-003  0.5009359E+03  0.7546771E-02  0.9397718E-01
        -11   -1    0    0    0    0  0.00000000000E+00  0.00000000000E+00  0.50000000000E+03  0.50000000000E+03  0.00000000000E+00 0. -1.
         11   -1    0    0    0    0 -0.00000000000E+00 -0.00000000000E+00 -0.50000000000E+03  0.50000000000E+03  0.00000000000E+00 0.  1.
        -11    1    1    2    0    0 -0.93325996590E+01  0.17525568095E+01  0.31220089281E+03  0.31234526784E+03  0.00000000000E+00 0. -1.
         11    1    1    2    0    0  0.15034121687E+02 -0.44436662203E+01 -0.49881781222E+03  0.49906410487E+03  0.00000000000E+00 0.  1.
        -15    1    1    2    0    0 -0.12303340474E+02  0.52513957297E+01  0.50312198878E+02  0.52090540685E+02  0.17770000000E+01 0.  1.
         15    1    1    2    0    0  0.66018184455E+01 -0.25602863189E+01  0.13630472053E+03  0.13650008660E+03  0.17770000000E+01 0. -1.
</event>
<event>
 6    1  0.1860328E-003  0.5006205E+03  0.7546771E-02  0.9398422E-01
        -11   -1    0    0    0    0  0.00000000000E+00  0.00000000000E+00  0.50000000000E+03  0.50000000000E+03  0.00000000000E+00 0.  1.
         11   -1    0    0    0    0 -0.00000000000E+00 -0.00000000000E+00 -0.50000000000E+03  0.50000000000E+03  0.00000000000E+00 0. -1.
        -11    1    1    2    0    0  0.16497449895E+02  0.52785930850E+01  0.49907896488E+03  0.49937945751E+03  0.00000000000E+00 0.  1.
         11    1    1    2    0    0  0.72210185309E+01  0.10496435909E+01 -0.15404553394E+03  0.15421825893E+03  0.00000000000E+00 0. -1.
        -15    1    1    2    0    0 -0.15713206648E+01 -0.54655497297E+01 -0.14769682045E+03  0.14781694687E+03  0.17770000000E+01 0.  1.
         15    1    1    2    0    0 -0.22147147762E+02 -0.86268694621E+00 -0.19733661049E+03  0.19858533670E+03  0.17770000000E+01 0. -1.
</event>
<event>
 6    1  0.1860328E-003  0.5002448E+03  0.7546771E-02  0.9399262E-01
        -11   -1    0    0    0    0  0.00000000000E+00  0.00000000000E+00  0.50000000000E+03  0.50000000000E+03  0.00000000000E+00 0. -1.
         11   -1    0    0    0    0 -0.00000000000E+00 -0.00000000000E+00 -0.50000000000E+03  0.50000000000E+03  0.00000000000E+00 0.  1.
        -11    1    1    2    0    0 -0.45458906961E+01 -0.54464913332E+01  0.49970482860E+03  0.49975518519E+03  0.00000000000E+00 0. -1.
         11    1    1    2    0    0 -0.33810013172E+00  0.54148986021E+01 -0.37286935735E+03  0.37290882678E+03  0.00000000000E+00 0.  1.
        -15    1    1    2    0    0  0.24341498451E+01 -0.47335302764E+01 -0.67254231775E+02  0.67487930884E+02  0.17770000000E+01 0.  1.
         15    1    1    2    0    0  0.24498409828E+01  0.47651230075E+01 -0.59581239476E+02  0.59848057150E+02  0.17770000000E+01 0. -1.
</event>
<event>
 6    1  0.1860328E-003  0.5061827E+03  0.7546771E-02  0.9386081E-01
        -11   -1    0    0    0    0  0.00000000000E+00  0.00000000000E+00  0.50000000000E+03  0.50000000000E+03  0.00000000000E+00 0.  1.
         11   -1    0    0    0    0 -0.00000000000E+00 -0.00000000000E+00 -0.50000000000E+03  0.50000000000E+03  0.00000000000E+00 0.  1.
        -11    1    1    2    0    0 -0.30110169125E+00 -0.99479846649E+01  0.49371698574E+03  0.49381728915E+03  0.00000000000E+00 0.  1.
         11    1    1    2    0    0  0.61781838872E+01  0.84172920047E+01 -0.48426755416E+03  0.48438010361E+03  0.00000000000E+00 0.  1.
        -15    1    1    2    0    0  0.26186214923E+01  0.71790990544E+01 -0.82381734565E+01  0.11376373440E+02  0.17770000000E+01 0.  1.
         15    1    1    2    0    0 -0.84957036883E+01 -0.56484063942E+01 -0.12112581160E+01  0.10426233796E+02  0.17770000000E+01 0. -1.
</event>
<event>
 6    1  0.1860328E-003  0.5011062E+03  0.7546771E-02  0.9397338E-01
        -11   -1    0    0    0    0  0.00000000000E+00  0.00000000000E+00  0.50000000000E+03  0.50000000000E+03  0.00000000000E+00 0. -1.
         11   -1    0    0    0    0 -0.00000000000E+00 -0.00000000000E+00 -0.50000000000E+03  0.50000000000E+03  0.00000000000E+00 0. -1.
        -11    1    1    2    0    0  0.94226757035E+01  0.32394862765E+01  0.35648070561E+03  0.35661993013E+03  0.00000000000E+00 0. -1.
         11    1    1    2    0    0  0.43545643813E+01  0.77552286170E+01 -0.49881454774E+03  0.49889383524E+03  0.00000000000E+00 0. -1.
        -15    1    1    2    0    0  0.17764793960E+01  0.61741754601E+00  0.52427086577E+02  0.52490896539E+02  0.17770000000E+01 0.  1.
         15    1    1    2    0    0 -0.15553719481E+02 -0.11612132440E+02  0.89906755547E+02  0.91995338096E+02  0.17770000000E+01 0. -1.
</event>
<event>
 6    1  0.1860328E-003  0.5044980E+03  0.7546771E-02  0.9389801E-01
        -11   -1    0    0    0    0  0.00000000000E+00  0.00000000000E+00  0.50000000000E+03  0.50000000000E+03  0.00000000000E+00 0.  1.
         11   -1    0    0    0    0 -0.00000000000E+00 -0.00000000000E+00 -0.50000000000E+03  0.50000000000E+03  0.00000000000E+00 0.  1.
        -11    1    1    2    0    0  0.28715003470E+01  0.11969721041E+02  0.49534903427E+03  0.49550195306E+03  0.00000000000E+00 0.  1.
         11    1    1    2    0    0  0.59930912575E+01  0.57224425591E+01 -0.40196152284E+03  0.40204692429E+03  0.00000000000E+00 0.  1.
        -15    1    1    2    0    0 -0.76812518154E+01 -0.39667012516E+01 -0.86495834205E+02  0.86944944718E+02  0.17770000000E+01 0.  1.
         15    1    1    2    0    0 -0.11833397890E+01 -0.13725462348E+02 -0.68916772292E+01  0.15506177922E+02  0.17770000000E+01 0. -1.
</event>
<event>
 6    1  0.1860328E-003  0.5026337E+03  0.7546771E-02  0.9393936E-01
        -11   -1    0    0    0    0  0.00000000000E+00  0.00000000000E+00  0.50000000000E+03  0.50000000000E+03  0.00000000000E+00 0. -1.
         11   -1    0    0    0    0 -0.00000000000E+00 -0.00000000000E+00 -0.50000000000E+03  0.50000000000E+03  0.00000000000E+00 0. -1.
        -11    1    1    2    0    0  0.11486250390E+01  0.26770490387E+01  0.12874942451E+03  0.12878237551E+03  0.00000000000E+00 0. -1.
         11    1    1    2    0    0  0.84565350711E+01 -0.26030179122E+01 -0.49728757977E+03  0.49736628925E+03  0.00000000000E+00 0. -1.
        -15    1    1    2    0    0  0.55279231985E+01  0.40846130111E+01  0.34735773267E+03  0.34743027239E+03  0.17770000000E+01 0. -1.
         15    1    1    2    0    0 -0.15133083309E+02 -0.41586441376E+01  0.21180422593E+02  0.26421062842E+02  0.17770000000E+01 0.  1.
</event>
<event>
 6    1  0.3028294E-003  0.5256408E+03  0.7546771E-02  0.9344196E-01
        -11   -1    0    0    0    0  0.00000000000E+00  0.00000000000E+00  0.50000000000E+03  0.50000000000E+03  0.00000000000E+00 0.  1.
         11   -1    0    0    0    0 -0.00000000000E+00 -0.00000000000E+00 -0.50000000000E+03  0.50000000000E+03  0.00000000000E+00 0.  1.
        -11    1    1    2    0    0 -0.62585188741E+01 -0.36279510637E+01  0.41825930004E+03  0.41832185355E+03  0.00000000000E+00 0.  1.
         11    1    1    2    0    0 -0.87603366342E+01 -0.24067812382E+02 -0.47366725099E+03  0.47435921805E+03  0.00000000000E+00 0.  1.
        -15    1    1    2    0    0  0.15596845501E+02  0.29237419235E+02 -0.15319207093E+02  0.36550295594E+02  0.17770000000E+01 0.  1.
         15    1    1    2    0    0 -0.57798999245E+00 -0.15416557886E+01  0.70727158046E+02  0.70768632806E+02  0.17770000000E+01 0. -1.
</event>
<event>
 6    1  0.1860328E-003  0.5172186E+03  0.7546771E-02  0.9362085E-01
        -11   -1    0    0    0    0  0.00000000000E+00  0.00000000000E+00  0.50000000000E+03  0.50000000000E+03  0.00000000000E+00 0. -1.
         11   -1    0    0    0    0 -0.00000000000E+00 -0.00000000000E+00 -0.50000000000E+03  0.50000000000E+03  0.00000000000E+00 0.  1.
        -11    1    1    2    0    0  0.95001681521E+01  0.24181275296E+02  0.45323102738E+03  0.45397505598E+03  0.00000000000E+00 0. -1.
         11    1    1    2    0    0  0.24128135867E+01  0.79241520520E+01 -0.48271032598E+03  0.48278139221E+03  0.00000000000E+00 0.  1.
        -15    1    1    2    0    0  0.12482400977E+02 -0.10356926292E+02  0.25497912354E+02  0.30271728060E+02  0.17770000000E+01 0.  1.
         15    1    1    2    0    0 -0.24395382716E+02 -0.21748501056E+02  0.39813862401E+01  0.32971823751E+02  0.17770000000E+01 0. -1.
</event>
<event>
 6    1  0.1860328E-003  0.5008781E+03  0.7546771E-02  0.9397847E-01
        -11   -1    0    0    0    0  0.00000000000E+00  0.00000000000E+00  0.50000000000E+03  0.50000000000E+03  0.00000000000E+00 0. -1.
         11   -1    0    0    0    0 -0.00000000000E+00 -0.00000000000E+00 -0.50000000000E+03  0.50000000000E+03  0.00000000000E+00 0.  1.
        -11    1    1    2    0    0 -0.79709048942E+01 -0.22282432762E+01  0.49905326957E+03  0.49912189520E+03  0.00000000000E+00 0. -1.
         11    1    1    2    0    0  0.47551188825E+00 -0.56853641063E+01 -0.40047440371E+03  0.40051504030E+03  0.00000000000E+00 0.  1.
        -15    1    1    2    0    0 -0.29630503685E+00  0.16533953038E+01 -0.17584159591E+01  0.30118546430E+01  0.17770000000E+01 0.  1.
         15    1    1    2    0    0  0.77916980428E+01  0.62602120787E+01 -0.96820449903E+02  0.97351209865E+02  0.17770000000E+01 0. -1.
</event>
<event>
 6    1  0.1860328E-003  0.5018114E+03  0.7546771E-02  0.9395766E-01
        -11   -1    0    0    0    0  0.00000000000E+00  0.00000000000E+00  0.50000000000E+03  0.50000000000E+03  0.00000000000E+00 0. -1.
         11   -1    0    0    0    0 -0.00000000000E+00 -0.00000000000E+00 -0.50000000000E+03  0.50000000000E+03  0.00000000000E+00 0. -1.
        -11    1    1    2    0    0 -0.10230318976E+02  0.12133832944E+02  0.37168891773E+03  0.37202760770E+03  0.00000000000E+00 0. -1.
         11    1    1    2    0    0 -0.70513327659E+01  0.12629669946E+01 -0.49813708960E+03  0.49818859523E+03  0.00000000000E+00 0. -1.
        -15    1    1    2    0    0  0.16028070773E+02 -0.43383732645E+01  0.10607871372E+03  0.10738515619E+03  0.17770000000E+01 0.  1.
         15    1    1    2    0    0  0.12535809685E+01 -0.90584266744E+01  0.20369458152E+02  0.22398640884E+02  0.17770000000E+01 0. -1.
</event>
<event>
 6    1  0.1860328E-003  0.5003771E+03  0.7546771E-02  0.9398966E-01
        -11   -1    0    0    0    0  0.00000000000E+00  0.00000000000E+00  0.50000000000E+03  0.50000000000E+03  0.00000000000E+00 0.  1.
         11   -1    0    0    0    0 -0.00000000000E+00 -0.00000000000E+00 -0.50000000000E+03  0.50000000000E+03  0.00000000000E+00 0.  1.
        -11    1    1    2    0    0  0.45421306121E+01 -0.11847868642E+01  0.30799344701E+03  0.30802921626E+03  0.00000000000E+00 0.  1.
         11    1    1    2    0    0  0.34790511525E+01  0.63725900483E+01 -0.49957013443E+03  0.49962289071E+03  0.00000000000E+00 0.  1.
        -15    1    1    2    0    0 -0.84041828460E+01 -0.62203460959E+01  0.74355310654E+02  0.75107875394E+02  0.17770000000E+01 0.  1.
         15    1    1    2    0    0  0.38300108144E+00  0.10325429117E+01  0.11722137677E+03  0.11724001764E+03  0.17770000000E+01 0.  1.
</event>
<event>
 6    1  0.1860328E-003  0.5022680E+03  0.7546771E-02  0.9394749E-01
        -11   -1    0    0    0    0  0.00000000000E+00  0.00000000000E+00  0.50000000000E+03  0.50000000000E+03  0.00000000000E+00 0. -1.
         11   -1    0    0    0    0 -0.00000000000E+00 -0.00000000000E+00 -0.50000000000E+03  0.50000000000E+03  0.00000000000E+00 0. -1.
        -11    1    1    2    0    0 -0.98354462444E+01  0.29932591594E+01  0.46086997178E+03  0.46098462718E+03  0.00000000000E+00 0. -1.
         11    1    1    2    0    0  0.52776561702E+01  0.71278994370E+01 -0.49765302085E+03  0.49773204615E+03  0.00000000000E+00 0. -1.
        -15    1    1    2    0    0  0.86152008270E+01 -0.19420518233E+01  0.22524458097E+02  0.24259064123E+02  0.17770000000E+01 0.  1.
         15    1    1    2    0    0 -0.40574107528E+01 -0.81791067730E+01  0.14258590971E+02  0.17024262542E+02  0.17770000000E+01 0. -1.
</event>
<event>
 6    1  0.1860328E-003  0.5114865E+03  0.7546771E-02  0.9374468E-01
        -11   -1    0    0    0    0  0.00000000000E+00  0.00000000000E+00  0.50000000000E+03  0.50000000000E+03  0.00000000000E+00 0. -1.
         11   -1    0    0    0    0 -0.00000000000E+00 -0.00000000000E+00 -0.50000000000E+03  0.50000000000E+03  0.00000000000E+00 0.  1.
        -11    1    1    2    0    0  0.14692678133E+02 -0.18396990793E+02  0.48794577207E+03  0.48851345994E+03  0.00000000000E+00 0. -1.
         11    1    1    2    0    0  0.18072119288E+02  0.95122087652E+01 -0.28764583660E+03  0.28836992028E+03  0.00000000000E+00 0.  1.
        -15    1    1    2    0    0 -0.54790133346E+02 -0.13718418697E+02 -0.17070388620E+03  0.17981414910E+03  0.17770000000E+01 0. -1.
         15    1    1    2    0    0  0.22025335924E+02  0.22603200725E+02 -0.29596049275E+02  0.43302470683E+02  0.17770000000E+01 0.  1.
</event>
<event>
 6    1  0.1860328E-003  0.5073053E+03  0.7546771E-02  0.9383610E-01
        -11   -1    0    0    0    0  0.00000000000E+00  0.00000000000E+00  0.50000000000E+03  0.50000000000E+03  0.00000000000E+00 0. -1.
         11   -1    0    0    0    0 -0.00000000000E+00 -0.00000000000E+00 -0.50000000000E+03  0.50000000000E+03  0.00000000000E+00 0. -1.
        -11    1    1    2    0    0  0.14903744630E+01  0.68608228233E+01  0.49264463716E+03  0.49269466267E+03  0.00000000000E+00 0. -1.
         11    1    1    2    0    0  0.17003046696E+01 -0.36991828992E+02 -0.22333762930E+03  0.22638679977E+03  0.00000000000E+00 0. -1.
        -15    1    1    2    0    0  0.13193263066E+02 -0.78575732532E+01 -0.10192706951E+02  0.18516280721E+02  0.17770000000E+01 0.  1.
         15    1    1    2    0    0 -0.16383942199E+02  0.37988579422E+02 -0.25911430091E+03  0.26240225684E+03  0.17770000000E+01 0. -1.
</event>
<event>
 6    1  0.1860328E-003  0.5024852E+03  0.7546771E-02  0.9394266E-01
        -11   -1    0    0    0    0  0.00000000000E+00  0.00000000000E+00  0.50000000000E+03  0.50000000000E+03  0.00000000000E+00 0. -1.
         11   -1    0    0    0    0 -0.00000000000E+00 -0.00000000000E+00 -0.50000000000E+03  0.50000000000E+03  0.00000000000E+00 0. -1.
        -11    1    1    2    0    0  0.33096129307E+01 -0.82529141033E+01  0.49743535119E+03  0.49751481661E+03  0.00000000000E+00 0. -1.
         11    1    1    2    0    0  0.22455002208E+01 -0.86864833046E+01 -0.24680123999E+03  0.24696426730E+03  0.00000000000E+00 0. -1.
        -15    1    1    2    0    0 -0.49464248362E+01  0.31241604348E+01 -0.23281602894E+03  0.23289630430E+03  0.17770000000E+01 0. -1.
         15    1    1    2    0    0 -0.60868831522E+00  0.13815236973E+02 -0.17818082264E+02  0.22624611790E+02  0.17770000000E+01 0. -1.
</event>
<event>
 6    1  0.1860328E-003  0.5155508E+03  0.7546771E-02  0.9365671E-01
        -11   -1    0    0    0    0  0.00000000000E+00  0.00000000000E+00  0.50000000000E+03  0.50000000000E+03  0.00000000000E+00 0.  1.
         11   -1    0    0    0    0 -0.00000000000E+00 -0.00000000000E+00 -0.50000000000E+03  0.50000000000E+03  0.00000000000E+00 0. -1.
        -11    1    1    2    0    0 -0.26260763100E+01  0.31869029697E+01  0.20534521626E+03  0.20538673392E+03  0.00000000000E+00 0.  1.
         11    1    1    2    0    0  0.17694161980E+02 -0.34221988897E+02 -0.48291490846E+03  0.48444920962E+03  0.00000000000E+00 0. -1.
        -15    1    1    2    0    0  0.95654850826E+01  0.21570835624E+01  0.27150083668E+03  0.27168366451E+03  0.17770000000E+01 0.  1.
         15    1    1    2    0    0 -0.24633570753E+02  0.28878002365E+02  0.60688555109E+01  0.38480391953E+02  0.17770000000E+01 0. -1.
</event>
<event>
 6    1  0.1860328E-003  0.4806446E+03  0.7546771E-02  0.9444192E-01
        -11   -1    0    0    0    0  0.00000000000E+00  0.00000000000E+00  0.50000000000E+03  0.50000000000E+03  0.00000000000E+00 0.  1.
         11   -1    0    0    0    0 -0.00000000000E+00 -0.00000000000E+00 -0.50000000000E+03  0.50000000000E+03  0.00000000000E+00 0.  1.
        -11    1    1    2    0    0  0.12567705101E+01  0.73508409866E+01  0.47855507371E+03  0.47861317670E+03  0.00000000000E+00 0.  1.
         11    1    1    2    0    0  0.25094384026E+01  0.73587248656E+01 -0.48274238576E+03  0.48280499078E+03  0.00000000000E+00 0.  1.
        -15    1    1    2    0    0 -0.14385361163E+01 -0.99307395628E+01 -0.15256211456E+02  0.18346626159E+02  0.17770000000E+01 0. -1.
         15    1    1    2    0    0 -0.23276727964E+01 -0.47788262894E+01  0.19443523501E+02  0.20235206361E+02  0.17770000000E+01 0.  1.
</event>
<event>
 6    1  0.1860328E-003  0.5017344E+03  0.7546771E-02  0.9395937E-01
        -11   -1    0    0    0    0  0.00000000000E+00  0.00000000000E+00  0.50000000000E+03  0.50000000000E+03  0.00000000000E+00 0. -1.
         11   -1    0    0    0    0 -0.00000000000E+00 -0.00000000000E+00 -0.50000000000E+03  0.50000000000E+03  0.00000000000E+00 0.  1.
        -11    1    1    2    0    0 -0.80774264021E+01 -0.14714579462E+01  0.49819790110E+03  0.49826555035E+03  0.00000000000E+00 0. -1.
         11    1    1    2    0    0  0.67369191886E+01 -0.35143597181E+01 -0.38669290132E+03  0.38676754871E+03  0.00000000000E+00 0.  1.
        -15    1    1    2    0    0  0.58378378303E+01  0.17079795219E+01 -0.44279066804E+01  0.77305647368E+01  0.17770000000E+01 0.  1.
         15    1    1    2    0    0 -0.44973306168E+01  0.32778381424E+01 -0.10707709310E+03  0.10723633620E+03  0.17770000000E+01 0. -1.
</event>
<event>
 6    1  0.1860328E-003  0.5007079E+03  0.7546771E-02  0.9398227E-01
        -11   -1    0    0    0    0  0.00000000000E+00  0.00000000000E+00  0.50000000000E+03  0.50000000000E+03  0.00000000000E+00 0.  1.
         11   -1    0    0    0    0 -0.00000000000E+00 -0.00000000000E+00 -0.50000000000E+03  0.50000000000E+03  0.00000000000E+00 0.  1.
        -11    1    1    2    0    0  0.63949246702E+01 -0.31370904784E+01  0.49924133708E+03  0.49929214799E+03  0.00000000000E+00 0.  1.
         11    1    1    2    0    0 -0.44273323214E+01  0.11098373856E+01 -0.98289826140E+02  0.98395746520E+02  0.00000000000E+00 0.  1.
        -15    1    1    2    0    0 -0.84947210360E+01 -0.42180529062E+01 -0.36794659297E+02  0.38038887176E+02  0.17770000000E+01 0. -1.
         15    1    1    2    0    0  0.65271286871E+01  0.62453059990E+01 -0.36415685164E+03  0.36427321831E+03  0.17770000000E+01 0.  1.
</event>
<event>
 6    1  0.1860328E-003  0.4796958E+03  0.7546771E-02  0.9446424E-01
        -11   -1    0    0    0    0  0.00000000000E+00  0.00000000000E+00  0.50000000000E+03  0.50000000000E+03  0.00000000000E+00 0. -1.
         11   -1    0    0    0    0 -0.00000000000E+00 -0.00000000000E+00 -0.50000000000E+03  0.50000000000E+03  0.00000000000E+00 0.  1.
        -11    1    1    2    0    0 -0.13392964468E+02 -0.68490246439E+01  0.47363178945E+03  0.47387060746E+03  0.00000000000E+00 0. -1.
         11    1    1    2    0    0 -0.47243752400E+01 -0.83646057254E+01 -0.48579474082E+03  0.48588971646E+03  0.00000000000E+00 0.  1.
        -15    1    1    2    0    0  0.20150458483E+02  0.76475782822E+01  0.19678225086E+02  0.29238958637E+02  0.17770000000E+01 0. -1.
         15    1    1    2    0    0 -0.20331187744E+01  0.75660520871E+01 -0.75152737168E+01  0.11000717439E+02  0.17770000000E+01 0.  1.
</event>
<event>
 6    1  0.1860328E-003  0.5052026E+03  0.7546771E-02  0.9388243E-01
        -11   -1    0    0    0    0  0.00000000000E+00  0.00000000000E+00  0.50000000000E+03  0.50000000000E+03  0.00000000000E+00 0. -1.
         11   -1    0    0    0    0 -0.00000000000E+00 -0.00000000000E+00 -0.50000000000E+03  0.50000000000E+03  0.00000000000E+00 0. -1.
        -11    1    1    2    0    0 -0.16046058174E+02  0.33000338401E+02  0.49343488708E+03  0.49479741926E+03  0.00000000000E+00 0. -1.
         11    1    1    2    0    0 -0.87964744031E+00 -0.40966243249E+01 -0.30927276200E+03  0.30930114359E+03  0.00000000000E+00 0. -1.
        -15    1    1    2    0    0  0.22822814652E+02 -0.29279018632E+02 -0.53776040625E+02  0.65369427679E+02  0.17770000000E+01 0. -1.
         15    1    1    2    0    0 -0.58971090377E+01  0.37530455618E+00 -0.13038608445E+03  0.13053200947E+03  0.17770000000E+01 0.  1.
</event>
<event>
 6    1  0.1860328E-003  0.2834372E+03  0.7546771E-02  0.1008180E+00
        -11   -1    0    0    0    0  0.00000000000E+00  0.00000000000E+00  0.50000000000E+03  0.50000000000E+03  0.00000000000E+00 0. -1.
         11   -1    0    0    0    0 -0.00000000000E+00 -0.00000000000E+00 -0.50000000000E+03  0.50000000000E+03  0.00000000000E+00 0. -1.
        -11    1    1    2    0    0 -0.14433427967E+02 -0.96996396994E+01  0.21891970056E+03  0.21960929431E+03  0.00000000000E+00 0. -1.
         11    1    1    2    0    0 -0.30056927877E+02  0.17112381439E+03 -0.34132985161E+03  0.38300502133E+03  0.00000000000E+00 0. -1.
        -15    1    1    2    0    0  0.15941377992E+02 -0.12805623099E+02  0.21761784523E+03  0.21858361285E+03  0.17770000000E+01 0.  1.
         15    1    1    2    0    0  0.28548977852E+02 -0.14861855159E+03 -0.95207694188E+02  0.17880207151E+03  0.17770000000E+01 0. -1.
</event>
<event>
 6    1  0.1860328E-003  0.5017349E+03  0.7546771E-02  0.9395936E-01
        -11   -1    0    0    0    0  0.00000000000E+00  0.00000000000E+00  0.50000000000E+03  0.50000000000E+03  0.00000000000E+00 0. -1.
         11   -1    0    0    0    0 -0.00000000000E+00 -0.00000000000E+00 -0.50000000000E+03  0.50000000000E+03  0.00000000000E+00 0.  1.
        -11    1    1    2    0    0 -0.56167638819E+01 -0.12701569930E+02  0.49807152189E+03  0.49826510898E+03  0.00000000000E+00 0. -1.
         11    1    1    2    0    0  0.62067409468E+01 -0.43020302435E+01 -0.27409857531E+03  0.27420258950E+03  0.00000000000E+00 0.  1.
        -15    1    1    2    0    0  0.60278012703E+01  0.22287907337E+02 -0.79591756886E+02  0.82892042409E+02  0.17770000000E+01 0.  1.
         15    1    1    2    0    0 -0.66177783352E+01 -0.52843071627E+01 -0.14438118968E+03  0.14464025911E+03  0.17770000000E+01 0. -1.
</event>
<event>
 6    1  0.1860328E-003  0.5003978E+03  0.7546771E-02  0.9398920E-01
        -11   -1    0    0    0    0  0.00000000000E+00  0.00000000000E+00  0.50000000000E+03  0.50000000000E+03  0.00000000000E+00 0. -1.
         11   -1    0    0    0    0 -0.00000000000E+00 -0.00000000000E+00 -0.50000000000E+03  0.50000000000E+03  0.00000000000E+00 0.  1.
        -11    1    1    2    0    0  0.10601817600E+01 -0.90413489846E+01  0.49951921377E+03  0.49960215662E+03  0.00000000000E+00 0. -1.
         11    1    1    2    0    0 -0.83980823071E+00  0.28217715405E+01 -0.93502659131E+01  0.98028131236E+01  0.00000000000E+00 0.  1.
        -15    1    1    2    0    0  0.82831366373E+00  0.85948752518E+01 -0.47597115604E+03  0.47605278814E+03  0.17770000000E+01 0.  1.
         15    1    1    2    0    0 -0.10486871931E+01 -0.23752978077E+01 -0.14197791813E+02  0.14542242120E+02  0.17770000000E+01 0. -1.
</event>
<event>
 6    1  0.1860328E-003  0.5038483E+03  0.7546771E-02  0.9391240E-01
        -11   -1    0    0    0    0  0.00000000000E+00  0.00000000000E+00  0.50000000000E+03  0.50000000000E+03  0.00000000000E+00 0. -1.
         11   -1    0    0    0    0 -0.00000000000E+00 -0.00000000000E+00 -0.50000000000E+03  0.50000000000E+03  0.00000000000E+00 0.  1.
        -11    1    1    2    0    0  0.50533148632E+01 -0.84354290473E+01  0.44438469630E+03  0.44449347663E+03  0.00000000000E+00 0. -1.
         11    1    1    2    0    0 -0.16802695905E+02 -0.13518909690E+01 -0.49586520582E+03  0.49615165075E+03  0.00000000000E+00 0.  1.
        -15    1    1    2    0    0  0.46401521019E+01 -0.65104089669E+01  0.31509427576E+02  0.32556384806E+02  0.17770000000E+01 0.  1.
         15    1    1    2    0    0  0.71092289397E+01  0.16297728983E+02  0.19971081944E+02  0.26798487814E+02  0.17770000000E+01 0. -1.
</event>
<event>
 6    1  0.1860328E-003  0.5094934E+03  0.7546771E-02  0.9378814E-01
        -11   -1    0    0    0    0  0.00000000000E+00  0.00000000000E+00  0.50000000000E+03  0.50000000000E+03  0.00000000000E+00 0.  1.
         11   -1    0    0    0    0 -0.00000000000E+00 -0.00000000000E+00 -0.50000000000E+03  0.50000000000E+03  0.00000000000E+00 0. -1.
        -11    1    1    2    0    0  0.42094409445E+01  0.99138621587E+01  0.49038828722E+03  0.49050655072E+03  0.00000000000E+00 0.  1.
         11    1    1    2    0    0 -0.75878375476E+01  0.13167529116E+01 -0.47208975156E+03  0.47215256289E+03  0.00000000000E+00 0. -1.
        -15    1    1    2    0    0 -0.17101168568E+01 -0.12677199898E+02  0.46477672607E+01  0.13725719159E+02  0.17770000000E+01 0.  1.
         15    1    1    2    0    0  0.50885134599E+01  0.14465848281E+01 -0.22946302920E+02  0.23615167236E+02  0.17770000000E+01 0. -1.
</event>
<event>
 6    1  0.1860328E-003  0.5013580E+03  0.7546771E-02  0.9396776E-01
        -11   -1    0    0    0    0  0.00000000000E+00  0.00000000000E+00  0.50000000000E+03  0.50000000000E+03  0.00000000000E+00 0. -1.
         11   -1    0    0    0    0 -0.00000000000E+00 -0.00000000000E+00 -0.50000000000E+03  0.50000000000E+03  0.00000000000E+00 0. -1.
        -11    1    1    2    0    0 -0.92907092122E+01 -0.63709317898E+01  0.49851474258E+03  0.49864201048E+03  0.00000000000E+00 0. -1.
         11    1    1    2    0    0 -0.64583328268E+01  0.50042278037E+01 -0.32342967950E+03  0.32353285759E+03  0.00000000000E+00 0. -1.
        -15    1    1    2    0    0  0.26986384105E+01  0.31344897249E+01 -0.14334191402E+03  0.14341258564E+03  0.17770000000E+01 0. -1.
         15    1    1    2    0    0  0.13050403628E+02 -0.17677857387E+01 -0.31743149055E+02  0.34412546290E+02  0.17770000000E+01 0.  1.
</event>
<event>
 6    1  0.1860328E-003  0.4852544E+03  0.7546771E-02  0.9433422E-01
        -11   -1    0    0    0    0  0.00000000000E+00  0.00000000000E+00  0.50000000000E+03  0.50000000000E+03  0.00000000000E+00 0. -1.
         11   -1    0    0    0    0 -0.00000000000E+00 -0.00000000000E+00 -0.50000000000E+03  0.50000000000E+03  0.00000000000E+00 0.  1.
        -11    1    1    2    0    0  0.50473938213E+01  0.61149560807E+01  0.48238761879E+03  0.48245277865E+03  0.00000000000E+00 0. -1.
         11    1    1    2    0    0 -0.32608505980E+01 -0.16973309525E+02 -0.48782758167E+03  0.48813366594E+03  0.00000000000E+00 0.  1.
        -15    1    1    2    0    0 -0.10364644351E+02 -0.35910039897E+01  0.57532669103E+01  0.12513151933E+02  0.17770000000E+01 0.  1.
         15    1    1    2    0    0  0.85781011272E+01  0.14449357434E+02 -0.31330402769E+00  0.16900403475E+02  0.17770000000E+01 0. -1.
</event>
<event>
 6    1  0.1860328E-003  0.4850441E+03  0.7546771E-02  0.9433911E-01
        -11   -1    0    0    0    0  0.00000000000E+00  0.00000000000E+00  0.50000000000E+03  0.50000000000E+03  0.00000000000E+00 0.  1.
         11   -1    0    0    0    0 -0.00000000000E+00 -0.00000000000E+00 -0.50000000000E+03  0.50000000000E+03  0.00000000000E+00 0. -1.
        -11    1    1    2    0    0 -0.75955115861E+01 -0.23497312616E+00  0.48715205409E+03  0.48721132049E+03  0.00000000000E+00 0.  1.
         11    1    1    2    0    0 -0.30432076300E+00  0.76982435143E+01 -0.48288575265E+03  0.48294720796E+03  0.00000000000E+00 0. -1.
        -15    1    1    2    0    0  0.10252390250E+02  0.83001586915E+01 -0.26407231097E+00  0.13312836037E+02  0.17770000000E+01 0. -1.
         15    1    1    2    0    0 -0.23525579013E+01 -0.15763429080E+02 -0.40022291292E+01  0.16528635516E+02  0.17770000000E+01 0.  1.
</event>
<event>
 6    1  0.1860328E-003  0.5007023E+03  0.7546771E-02  0.9398240E-01
        -11   -1    0    0    0    0  0.00000000000E+00  0.00000000000E+00  0.50000000000E+03  0.50000000000E+03  0.00000000000E+00 0.  1.
         11   -1    0    0    0    0 -0.00000000000E+00 -0.00000000000E+00 -0.50000000000E+03  0.50000000000E+03  0.00000000000E+00 0.  1.
        -11    1    1    2    0    0 -0.10570189918E+01 -0.59561670624E+01  0.24424749298E+03  0.24432239161E+03  0.00000000000E+00 0.  1.
         11    1    1    2    0    0 -0.10550104181E+02  0.13792906577E+02 -0.49899566240E+03  0.49929772687E+03  0.00000000000E+00 0.  1.
        -15    1    1    2    0    0  0.86266309926E+01  0.26221172338E+01  0.21311602426E+03  0.21331406842E+03  0.17770000000E+01 0.  1.
         15    1    1    2    0    0  0.29804921796E+01 -0.10458856748E+02  0.41632145156E+02  0.43065813094E+02  0.17770000000E+01 0. -1.
</event>
<event>
 6    1  0.1860328E-003  0.5027519E+03  0.7546771E-02  0.9393673E-01
        -11   -1    0    0    0    0  0.00000000000E+00  0.00000000000E+00  0.50000000000E+03  0.50000000000E+03  0.00000000000E+00 0. -1.
         11   -1    0    0    0    0 -0.00000000000E+00 -0.00000000000E+00 -0.50000000000E+03  0.50000000000E+03  0.00000000000E+00 0.  1.
        -11    1    1    2    0    0  0.11173364889E+02 -0.38948500522E+01  0.49710726204E+03  0.49724807080E+03  0.00000000000E+00 0. -1.
         11    1    1    2    0    0 -0.10032620897E+02 -0.75332318464E+01 -0.35458855237E+03  0.35481043465E+03  0.00000000000E+00 0.  1.
        -15    1    1    2    0    0 -0.11707902932E+02  0.18021038966E+02 -0.48409268916E+02  0.52994791088E+02  0.17770000000E+01 0. -1.
         15    1    1    2    0    0  0.10567158940E+02 -0.65929570670E+01 -0.94109440754E+02  0.94946703466E+02  0.17770000000E+01 0.  1.
</event>
<event>
 6    1  0.1860328E-003  0.5063444E+03  0.7546771E-02  0.9385724E-01
        -11   -1    0    0    0    0  0.00000000000E+00  0.00000000000E+00  0.50000000000E+03  0.50000000000E+03  0.00000000000E+00 0.  1.
         11   -1    0    0    0    0 -0.00000000000E+00 -0.00000000000E+00 -0.50000000000E+03  0.50000000000E+03  0.00000000000E+00 0. -1.
        -11    1    1    2    0    0  0.19021521433E+02  0.19677736070E+02  0.49289632578E+03  0.49365556772E+03  0.00000000000E+00 0.  1.
         11    1    1    2    0    0 -0.13992674526E+02  0.15323926925E+02 -0.37161044008E+03  0.37218938305E+03  0.00000000000E+00 0. -1.
        -15    1    1    2    0    0 -0.24323643964E+01 -0.18036945683E+02 -0.86929976339E+01  0.20247808350E+02  0.17770000000E+01 0.  1.
         15    1    1    2    0    0 -0.25964825103E+01 -0.16964717312E+02 -0.11259288806E+03  0.11390724089E+03  0.17770000000E+01 0. -1.
</event>
<event>
 6    1  0.1860328E-003  0.5036166E+03  0.7546771E-02  0.9391753E-01
        -11   -1    0    0    0    0  0.00000000000E+00  0.00000000000E+00  0.50000000000E+03  0.50000000000E+03  0.00000000000E+00 0.  1.
         11   -1    0    0    0    0 -0.00000000000E+00 -0.00000000000E+00 -0.50000000000E+03  0.50000000000E+03  0.00000000000E+00 0. -1.
        -11    1    1    2    0    0  0.12384458591E+02  0.53716029756E+01  0.49619980253E+03  0.49638339312E+03  0.00000000000E+00 0.  1.
         11    1    1    2    0    0 -0.73398723034E+01  0.75113047053E+01 -0.46749566180E+03  0.46761360890E+03  0.00000000000E+00 0. -1.
        -15    1    1    2    0    0  0.24179728040E+01 -0.12346470858E+02 -0.11413597738E+02  0.17079516312E+02  0.17770000000E+01 0.  1.
         15    1    1    2    0    0 -0.74625590915E+01 -0.53643682332E+00 -0.17290542993E+02  0.18923481673E+02  0.17770000000E+01 0. -1.
</event>
<event>
 6    1  0.1860328E-003  0.5424430E+03  0.7546771E-02  0.9309548E-01
        -11   -1    0    0    0    0  0.00000000000E+00  0.00000000000E+00  0.50000000000E+03  0.50000000000E+03  0.00000000000E+00 0.  1.
         11   -1    0    0    0    0 -0.00000000000E+00 -0.00000000000E+00 -0.50000000000E+03  0.50000000000E+03  0.00000000000E+00 0.  1.
        -11    1    1    2    0    0 -0.35862424233E+01 -0.12174887714E+02  0.45738097680E+03  0.45755704230E+03  0.00000000000E+00 0.  1.
         11    1    1    2    0    0 -0.36222950536E+02 -0.81083859555E+01 -0.27351205988E+03  0.27601937426E+03  0.00000000000E+00 0.  1.
        -15    1    1    2    0    0  0.39644456313E+02 -0.57417092525E+02 -0.17474565329E+03  0.18816909019E+03  0.17770000000E+01 0. -1.
         15    1    1    2    0    0  0.16473664641E+00  0.77700366195E+02 -0.91232636284E+01  0.78254493246E+02  0.17770000000E+01 0.  1.
</event>
<event>
 6    1  0.1860328E-003  0.5007104E+03  0.7546771E-02  0.9398221E-01
        -11   -1    0    0    0    0  0.00000000000E+00  0.00000000000E+00  0.50000000000E+03  0.50000000000E+03  0.00000000000E+00 0.  1.
         11   -1    0    0    0    0 -0.00000000000E+00 -0.00000000000E+00 -0.50000000000E+03  0.50000000000E+03  0.00000000000E+00 0.  1.
        -11    1    1    2    0    0 -0.50236977966E+01 -0.53832265338E+01  0.20209904899E+03  0.20223313841E+03  0.00000000000E+00 0.  1.
         11    1    1    2    0    0  0.70975752273E+01 -0.63334600774E+01 -0.49919894851E+03  0.49928957378E+03  0.00000000000E+00 0.  1.
        -15    1    1    2    0    0  0.28904934494E+01  0.86164035257E+01  0.28244926286E+03  0.28260102828E+03  0.17770000000E+01 0.  1.
         15    1    1    2    0    0 -0.49643708801E+01  0.31002830855E+01  0.14650636651E+02  0.15876259532E+02  0.17770000000E+01 0. -1.
</event>
<event>
 6    1  0.1860328E-003  0.5041752E+03  0.7546771E-02  0.9390516E-01
        -11   -1    0    0    0    0  0.00000000000E+00  0.00000000000E+00  0.50000000000E+03  0.50000000000E+03  0.00000000000E+00 0. -1.
         11   -1    0    0    0    0 -0.00000000000E+00 -0.00000000000E+00 -0.50000000000E+03  0.50000000000E+03  0.00000000000E+00 0. -1.
        -11    1    1    2    0    0  0.22237560491E+01  0.81306957287E+01  0.49575318363E+03  0.49582484042E+03  0.00000000000E+00 0. -1.
         11    1    1    2    0    0 -0.46128787621E+01  0.12381174559E+02 -0.44774002386E+03  0.44793492954E+03  0.00000000000E+00 0. -1.
        -15    1    1    2    0    0  0.12298847380E+01 -0.14151392459E+02 -0.95768640538E+01  0.17223489168E+02  0.17770000000E+01 0.  1.
         15    1    1    2    0    0  0.11592379750E+01 -0.63604778283E+01 -0.38436295715E+02  0.39016740871E+02  0.17770000000E+01 0. -1.
</event>
<event>
 6    1  0.1860328E-003  0.5001667E+03  0.7546771E-02  0.9399437E-01
        -11   -1    0    0    0    0  0.00000000000E+00  0.00000000000E+00  0.50000000000E+03  0.50000000000E+03  0.00000000000E+00 0. -1.
         11   -1    0    0    0    0 -0.00000000000E+00 -0.00000000000E+00 -0.50000000000E+03  0.50000000000E+03  0.00000000000E+00 0. -1.
        -11    1    1    2    0    0 -0.56869676340E+01 -0.86912477338E+01  0.49972535901E+03  0.49983328603E+03  0.00000000000E+00 0. -1.
         11    1    1    2    0    0 -0.29274858496E+01  0.64679957019E+01 -0.18295425929E+03  0.18309196086E+03  0.00000000000E+00 0. -1.
        -15    1    1    2    0    0  0.59240169163E+01 -0.31325129927E+01 -0.11649533250E+03  0.11670144317E+03  0.17770000000E+01 0.  1.
         15    1    1    2    0    0  0.26904365673E+01  0.53557650246E+01 -0.20027576722E+03  0.20037330993E+03  0.17770000000E+01 0. -1.
</event>
<event>
 6    1  0.1860328E-003  0.5003419E+03  0.7546771E-02  0.9399045E-01
        -11   -1    0    0    0    0  0.00000000000E+00  0.00000000000E+00  0.50000000000E+03  0.50000000000E+03  0.00000000000E+00 0. -1.
         11   -1    0    0    0    0 -0.00000000000E+00 -0.00000000000E+00 -0.50000000000E+03  0.50000000000E+03  0.00000000000E+00 0. -1.
        -11    1    1    2    0    0 -0.10400691870E+01 -0.67456694202E+01  0.49961150452E+03  0.49965812437E+03  0.00000000000E+00 0. -1.
         11    1    1    2    0    0 -0.41516387145E+01  0.21067976418E+01 -0.31495355244E+03  0.31498795992E+03  0.00000000000E+00 0. -1.
        -15    1    1    2    0    0  0.20095055942E+01  0.55508180400E+01 -0.28881382626E+02  0.29532045054E+02  0.17770000000E+01 0.  1.
         15    1    1    2    0    0  0.31822023073E+01 -0.91194626155E+00 -0.15577656945E+03  0.15582187066E+03  0.17770000000E+01 0. -1.
</event>
<event>
 6    1  0.1860328E-003  0.5005043E+03  0.7546771E-02  0.9398682E-01
        -11   -1    0    0    0    0  0.00000000000E+00  0.00000000000E+00  0.50000000000E+03  0.50000000000E+03  0.00000000000E+00 0.  1.
         11   -1    0    0    0    0 -0.00000000000E+00 -0.00000000000E+00 -0.50000000000E+03  0.50000000000E+03  0.00000000000E+00 0. -1.
        -11    1    1    2    0    0 -0.14319538185E+02  0.69091160552E+01  0.49924257340E+03  0.49949567781E+03  0.00000000000E+00 0.  1.
         11    1    1    2    0    0  0.15625554943E+02  0.31246918235E+01 -0.15408042594E+03  0.15490222505E+03  0.00000000000E+00 0. -1.
        -15    1    1    2    0    0  0.53093401432E+01 -0.43357528377E+00 -0.10307334179E+03  0.10322620112E+03  0.17770000000E+01 0. -1.
         15    1    1    2    0    0 -0.66153569015E+01 -0.96002325949E+01 -0.24208880567E+03  0.24237589602E+03  0.17770000000E+01 0.  1.
</event>
<event>
 6    1  0.1860328E-003  0.5461074E+03  0.7546771E-02  0.9302168E-01
        -11   -1    0    0    0    0  0.00000000000E+00  0.00000000000E+00  0.50000000000E+03  0.50000000000E+03  0.00000000000E+00 0. -1.
         11   -1    0    0    0    0 -0.00000000000E+00 -0.00000000000E+00 -0.50000000000E+03  0.50000000000E+03  0.00000000000E+00 0.  1.
        -11    1    1    2    0    0  0.26697693494E+01  0.52006562192E+01  0.38104115560E+03  0.38108599653E+03  0.00000000000E+00 0. -1.
         11    1    1    2    0    0 -0.35848643483E+02  0.16071025512E+01 -0.45247185801E+03  0.45389259777E+03  0.00000000000E+00 0.  1.
        -15    1    1    2    0    0 -0.34391637384E+01 -0.73191568258E+01  0.11086610422E+03  0.11117485641E+03  0.17770000000E+01 0. -1.
         15    1    1    2    0    0  0.36618037872E+02  0.51139805542E+00 -0.39435401804E+02  0.53846549287E+02  0.17770000000E+01 0.  1.
</event>
<event>
 6    1  0.1860328E-003  0.5091716E+03  0.7546771E-02  0.9379518E-01
        -11   -1    0    0    0    0  0.00000000000E+00  0.00000000000E+00  0.50000000000E+03  0.50000000000E+03  0.00000000000E+00 0. -1.
         11   -1    0    0    0    0 -0.00000000000E+00 -0.00000000000E+00 -0.50000000000E+03  0.50000000000E+03  0.00000000000E+00 0.  1.
        -11    1    1    2    0    0 -0.18164354978E+02  0.17950052311E+02  0.28641185869E+03  0.28754808462E+03  0.00000000000E+00 0. -1.
         11    1    1    2    0    0  0.18771821334E+02 -0.64746720757E+00 -0.49046888885E+03  0.49082841342E+03  0.00000000000E+00 0.  1.
        -15    1    1    2    0    0  0.11200197230E+02 -0.17855890228E+02  0.20797225531E+03  0.20904519593E+03  0.17770000000E+01 0. -1.
         15    1    1    2    0    0 -0.11807663586E+02  0.55330512479E+00 -0.39152251417E+01  0.12578306039E+02  0.17770000000E+01 0.  1.
</event>
<event>
 6    1  0.1860328E-003  0.5110956E+03  0.7546771E-02  0.9375319E-01
        -11   -1    0    0    0    0  0.00000000000E+00  0.00000000000E+00  0.50000000000E+03  0.50000000000E+03  0.00000000000E+00 0. -1.
         11   -1    0    0    0    0 -0.00000000000E+00 -0.00000000000E+00 -0.50000000000E+03  0.50000000000E+03  0.00000000000E+00 0. -1.
        -11    1    1    2    0    0 -0.69520066627E+01  0.63789034610E+01  0.47459453320E+03  0.47468831010E+03  0.00000000000E+00 0. -1.
         11    1    1    2    0    0 -0.51430192704E+00  0.87828224525E+01 -0.48882521485E+03  0.48890438038E+03  0.00000000000E+00 0. -1.
        -15    1    1    2    0    0  0.17758804083E+02 -0.41309355548E+01  0.78687546028E+01  0.19937772669E+02  0.17770000000E+01 0. -1.
         15    1    1    2    0    0 -0.10292495493E+02 -0.11030790359E+02  0.63619270526E+01  0.16469536855E+02  0.17770000000E+01 0.  1.
</event>
<event>
 6    1  0.1860328E-003  0.5683420E+03  0.7546771E-02  0.9258667E-01
        -11   -1    0    0    0    0  0.00000000000E+00  0.00000000000E+00  0.50000000000E+03  0.50000000000E+03  0.00000000000E+00 0.  1.
         11   -1    0    0    0    0 -0.00000000000E+00 -0.00000000000E+00 -0.50000000000E+03  0.50000000000E+03  0.00000000000E+00 0.  1.
        -11    1    1    2    0    0  0.41631355589E+01  0.25667595314E+01  0.36132915174E+03  0.36136225017E+03  0.00000000000E+00 0.  1.
         11    1    1    2    0    0  0.59997694620E+00 -0.21015551580E+02 -0.43114571561E+03  0.43165801448E+03  0.00000000000E+00 0.  1.
        -15    1    1    2    0    0 -0.71120095856E+01 -0.76228687493E+01  0.13567537343E+03  0.13608693359E+03  0.17770000000E+01 0.  1.
         15    1    1    2    0    0  0.23488970805E+01  0.26071660797E+02 -0.65858809568E+02  0.70892801757E+02  0.17770000000E+01 0.  1.
</event>
<event>
 6    1  0.1860328E-003  0.5518969E+03  0.7546771E-02  0.9290632E-01
        -11   -1    0    0    0    0  0.00000000000E+00  0.00000000000E+00  0.50000000000E+03  0.50000000000E+03  0.00000000000E+00 0.  1.
         11   -1    0    0    0    0 -0.00000000000E+00 -0.00000000000E+00 -0.50000000000E+03  0.50000000000E+03  0.00000000000E+00 0. -1.
        -11    1    1    2    0    0  0.17079034052E+01 -0.12860406562E+02  0.44791521641E+03  0.44810305520E+03  0.00000000000E+00 0.  1.
         11    1    1    2    0    0 -0.55637757010E+01  0.11010968833E+02 -0.37057381237E+03  0.37077910870E+03  0.00000000000E+00 0. -1.
        -15    1    1    2    0    0  0.29387714155E+02  0.50235459257E+01 -0.12414070747E+03  0.12768299314E+03  0.17770000000E+01 0.  1.
         15    1    1    2    0    0 -0.25531841859E+02 -0.31741081971E+01  0.46799303427E+02  0.53434842957E+02  0.17770000000E+01 0. -1.
</event>
<event>
 6    1  0.1860328E-003  0.4726969E+03  0.7546771E-02  0.9463064E-01
        -11   -1    0    0    0    0  0.00000000000E+00  0.00000000000E+00  0.50000000000E+03  0.50000000000E+03  0.00000000000E+00 0. -1.
         11   -1    0    0    0    0 -0.00000000000E+00 -0.00000000000E+00 -0.50000000000E+03  0.50000000000E+03  0.00000000000E+00 0.  1.
        -11    1    1    2    0    0 -0.17373882974E+02 -0.24461484320E+02  0.46708359263E+03  0.46804625683E+03  0.00000000000E+00 0. -1.
         11    1    1    2    0    0 -0.80927294349E+01 -0.25840313123E+01 -0.47806541153E+03  0.47814088634E+03  0.00000000000E+00 0.  1.
        -15    1    1    2    0    0  0.35644213713E+01 -0.76175958099E+01 -0.47957307306E+01  0.98432529113E+01  0.17770000000E+01 0.  1.
         15    1    1    2    0    0  0.21902191038E+02  0.34663111442E+02  0.15777549632E+02  0.43969603916E+02  0.17770000000E+01 0. -1.
</event>
<event>
 6    1  0.1860328E-003  0.5536596E+03  0.7546771E-02  0.9287150E-01
        -11   -1    0    0    0    0  0.00000000000E+00  0.00000000000E+00  0.50000000000E+03  0.50000000000E+03  0.00000000000E+00 0. -1.
         11   -1    0    0    0    0 -0.00000000000E+00 -0.00000000000E+00 -0.50000000000E+03  0.50000000000E+03  0.00000000000E+00 0. -1.
        -11    1    1    2    0    0 -0.92361566778E+01 -0.17077519132E+01  0.31067316288E+03  0.31081511730E+03  0.00000000000E+00 0. -1.
         11    1    1    2    0    0 -0.37827429648E+02 -0.50688595531E+02 -0.44183647757E+03  0.44634036459E+03  0.00000000000E+00 0. -1.
        -15    1    1    2    0    0  0.11825421429E+02  0.25020442879E+01  0.17000011676E+03  0.17043854683E+03  0.17770000000E+01 0. -1.
         15    1    1    2    0    0  0.35238164896E+02  0.49894303156E+02 -0.38836802074E+02  0.72405971280E+02  0.17770000000E+01 0.  1.
</event>
<event>
 6    1  0.1860328E-003  0.5316091E+03  0.7546771E-02  0.9331733E-01
        -11   -1    0    0    0    0  0.00000000000E+00  0.00000000000E+00  0.50000000000E+03  0.50000000000E+03  0.00000000000E+00 0.  1.
         11   -1    0    0    0    0 -0.00000000000E+00 -0.00000000000E+00 -0.50000000000E+03  0.50000000000E+03  0.00000000000E+00 0. -1.
        -11    1    1    2    0    0  0.20302725741E+02  0.25829890254E+02  0.46723723638E+03  0.46839088266E+03  0.00000000000E+00 0.  1.
         11    1    1    2    0    0  0.83201377251E+01 -0.53349100553E+02 -0.39250135674E+03  0.39619776156E+03  0.00000000000E+00 0. -1.
        -15    1    1    2    0    0  0.38484160434E+01 -0.12514992619E+02  0.22069621730E+02  0.25722777428E+02  0.17770000000E+01 0.  1.
         15    1    1    2    0    0 -0.32471279509E+02  0.40034202918E+02 -0.96805501370E+02  0.10968857835E+03  0.17770000000E+01 0. -1.
</event>
<event>
 6    1  0.1860328E-003  0.5177977E+03  0.7546771E-02  0.9360843E-01
        -11   -1    0    0    0    0  0.00000000000E+00  0.00000000000E+00  0.50000000000E+03  0.50000000000E+03  0.00000000000E+00 0. -1.
         11   -1    0    0    0    0 -0.00000000000E+00 -0.00000000000E+00 -0.50000000000E+03  0.50000000000E+03  0.00000000000E+00 0. -1.
        -11    1    1    2    0    0  0.14393111231E+01  0.45096778386E+01  0.26968824377E+03  0.26972978634E+03  0.00000000000E+00 0. -1.
         11    1    1    2    0    0  0.11459683587E+02  0.34240970634E+01 -0.48205390831E+03  0.48220225974E+03  0.00000000000E+00 0. -1.
        -15    1    1    2    0    0  0.60977787801E+01 -0.38921058593E+01  0.22480967422E+03  0.22493305392E+03  0.17770000000E+01 0. -1.
         15    1    1    2    0    0 -0.18996773490E+02 -0.40416690426E+01 -0.12444009685E+02  0.23134899994E+02  0.17770000000E+01 0.  1.
</event>
<event>
 6    1  0.1860328E-003  0.5047567E+03  0.7546771E-02  0.9389229E-01
        -11   -1    0    0    0    0  0.00000000000E+00  0.00000000000E+00  0.50000000000E+03  0.50000000000E+03  0.00000000000E+00 0. -1.
         11   -1    0    0    0    0 -0.00000000000E+00 -0.00000000000E+00 -0.50000000000E+03  0.50000000000E+03  0.00000000000E+00 0.  1.
        -11    1    1    2    0    0 -0.43303176994E+01 -0.10368297732E+01  0.20896907328E+03  0.20901650713E+03  0.00000000000E+00 0. -1.
         11    1    1    2    0    0  0.47211920603E+00  0.12558931265E+02 -0.49508382069E+03  0.49524331309E+03  0.00000000000E+00 0.  1.
        -15    1    1    2    0    0  0.62762465236E+01  0.22115178452E+02  0.32281038623E+02  0.39669832013E+02  0.17770000000E+01 0.  1.
         15    1    1    2    0    0 -0.24180480302E+01 -0.33637279943E+02  0.25383370879E+03  0.25607034776E+03  0.17770000000E+01 0. -1.
</event>
<event>
 6    1  0.1860328E-003  0.4755319E+03  0.7546771E-02  0.9456287E-01
        -11   -1    0    0    0    0  0.00000000000E+00  0.00000000000E+00  0.50000000000E+03  0.50000000000E+03  0.00000000000E+00 0. -1.
         11   -1    0    0    0    0 -0.00000000000E+00 -0.00000000000E+00 -0.50000000000E+03  0.50000000000E+03  0.00000000000E+00 0.  1.
        -11    1    1    2    0    0  0.81236670181E+01  0.15617601579E+02  0.47656937759E+03  0.47689440666E+03  0.00000000000E+00 0. -1.
         11    1    1    2    0    0 -0.16058246810E+02 -0.10244711888E+00 -0.47406038972E+03  0.47433230007E+03  0.00000000000E+00 0.  1.
        -15    1    1    2    0    0  0.85196516254E+00  0.12899553830E+01 -0.21939771815E+02  0.22065836622E+02  0.17770000000E+01 0.  1.
         15    1    1    2    0    0  0.70826146293E+01 -0.16805109844E+02  0.19430783944E+02  0.26707456647E+02  0.17770000000E+01 0. -1.
</event>
<event>
 6    1  0.1860328E-003  0.5374474E+03  0.7546771E-02  0.9319709E-01
        -11   -1    0    0    0    0  0.00000000000E+00  0.00000000000E+00  0.50000000000E+03  0.50000000000E+03  0.00000000000E+00 0. -1.
         11   -1    0    0    0    0 -0.00000000000E+00 -0.00000000000E+00 -0.50000000000E+03  0.50000000000E+03  0.00000000000E+00 0. -1.
        -11    1    1    2    0    0  0.54208451902E+01  0.17394220508E+02  0.38134039320E+03  0.38177537893E+03  0.00000000000E+00 0. -1.
         11    1    1    2    0    0  0.29690157094E+00 -0.76573378343E+01 -0.46248911329E+03  0.46255259473E+03  0.00000000000E+00 0. -1.
        -15    1    1    2    0    0 -0.71212926555E+01  0.39048983584E+02  0.96596372798E+02  0.10444880514E+03  0.17770000000E+01 0.  1.
         15    1    1    2    0    0  0.14035458943E+01 -0.48785866258E+02 -0.15447652707E+02  0.51223221207E+02  0.17770000000E+01 0. -1.
</event>
<event>
 6    1  0.1860328E-003  0.5160653E+03  0.7546771E-02  0.9364563E-01
        -11   -1    0    0    0    0  0.00000000000E+00  0.00000000000E+00  0.50000000000E+03  0.50000000000E+03  0.00000000000E+00 0. -1.
         11   -1    0    0    0    0 -0.00000000000E+00 -0.00000000000E+00 -0.50000000000E+03  0.50000000000E+03  0.00000000000E+00 0. -1.
        -11    1    1    2    0    0 -0.16190906347E+02  0.37758481661E+01  0.40997307288E+03  0.41031003274E+03  0.00000000000E+00 0. -1.
         11    1    1    2    0    0 -0.26585222522E+02  0.16739284841E+02 -0.48291388238E+03  0.48393470170E+03  0.00000000000E+00 0. -1.
        -15    1    1    2    0    0  0.34242425921E+02 -0.38419296050E+02  0.33101654435E+02  0.61216527974E+02  0.17770000000E+01 0. -1.
         15    1    1    2    0    0  0.85337029481E+01  0.17904163044E+02  0.39839155065E+02  0.44538737584E+02  0.17770000000E+01 0.  1.
</event>
<event>
 6    1  0.1860328E-003  0.5003316E+03  0.7546771E-02  0.9399068E-01
        -11   -1    0    0    0    0  0.00000000000E+00  0.00000000000E+00  0.50000000000E+03  0.50000000000E+03  0.00000000000E+00 0.  1.
         11   -1    0    0    0    0 -0.00000000000E+00 -0.00000000000E+00 -0.50000000000E+03  0.50000000000E+03  0.00000000000E+00 0. -1.
        -11    1    1    2    0    0  0.15274660218E+01 -0.73422220093E+01  0.49961211614E+03  0.49966839801E+03  0.00000000000E+00 0.  1.
         11    1    1    2    0    0  0.19751072404E+01 -0.46884627464E+01 -0.33525647713E+03  0.33529507630E+03  0.00000000000E+00 0. -1.
        -15    1    1    2    0    0 -0.47973750027E+01  0.10365658091E+02 -0.10876948425E+03  0.10938199170E+03  0.17770000000E+01 0. -1.
         15    1    1    2    0    0  0.12948017405E+01  0.16650266643E+01 -0.55586154753E+02  0.55654533998E+02  0.17770000000E+01 0.  1.
</event>
<event>
 6    1  0.1860328E-003  0.5905886E+03  0.7546771E-02  0.9217203E-01
        -11   -1    0    0    0    0  0.00000000000E+00  0.00000000000E+00  0.50000000000E+03  0.50000000000E+03  0.00000000000E+00 0. -1.
         11   -1    0    0    0    0 -0.00000000000E+00 -0.00000000000E+00 -0.50000000000E+03  0.50000000000E+03  0.00000000000E+00 0. -1.
        -11    1    1    2    0    0 -0.33245085352E+02 -0.91079115733E+00  0.40805836805E+03  0.40941140308E+03  0.00000000000E+00 0. -1.
         11    1    1    2    0    0 -0.13729658301E+01 -0.37774926324E+02 -0.36678170223E+03  0.36872435122E+03  0.00000000000E+00 0. -1.
        -15    1    1    2    0    0 -0.42864658946E+02 -0.18661698541E+02  0.63892383431E+02  0.79189850161E+02  0.17770000000E+01 0.  1.
         15    1    1    2    0    0  0.77482710128E+02  0.57347416023E+02 -0.10516904925E+03  0.14267439554E+03  0.17770000000E+01 0. -1.
</event>
<event>
 6    1  0.1860328E-003  0.5187527E+03  0.7546771E-02  0.9358800E-01
        -11   -1    0    0    0    0  0.00000000000E+00  0.00000000000E+00  0.50000000000E+03  0.50000000000E+03  0.00000000000E+00 0. -1.
         11   -1    0    0    0    0 -0.00000000000E+00 -0.00000000000E+00 -0.50000000000E+03  0.50000000000E+03  0.00000000000E+00 0.  1.
        -11    1    1    2    0    0  0.95301166804E+01 -0.26863088578E+02  0.34532759997E+03  0.34650194798E+03  0.00000000000E+00 0. -1.
         11    1    1    2    0    0  0.28093182627E+01 -0.61755152216E+01 -0.48119945723E+03  0.48124728249E+03  0.00000000000E+00 0.  1.
        -15    1    1    2    0    0 -0.99721316728E+01  0.16207517638E+02  0.14929907918E+03  0.15051744022E+03  0.17770000000E+01 0. -1.
         15    1    1    2    0    0 -0.23673032702E+01  0.16831086162E+02 -0.13427221909E+02  0.21733329320E+02  0.17770000000E+01 0.  1.
</event>
<event>
 6    1  0.1860328E-003  0.5003095E+03  0.7546771E-02  0.9399117E-01
        -11   -1    0    0    0    0  0.00000000000E+00  0.00000000000E+00  0.50000000000E+03  0.50000000000E+03  0.00000000000E+00 0.  1.
         11   -1    0    0    0    0 -0.00000000000E+00 -0.00000000000E+00 -0.50000000000E+03  0.50000000000E+03  0.00000000000E+00 0.  1.
        -11    1    1    2    0    0  0.86742116866E+00  0.39854598042E+01  0.25279128327E+03  0.25282418636E+03  0.00000000000E+00 0.  1.
         11    1    1    2    0    0  0.76094541022E+01 -0.80652893729E+01 -0.49956744985E+03  0.49969049384E+03  0.00000000000E+00 0.  1.
        -15    1    1    2    0    0 -0.90995029559E+01  0.64363763359E+01  0.93395693444E+02  0.94075188957E+02  0.17770000000E+01 0. -1.
         15    1    1    2    0    0  0.62262768511E+00 -0.23565467673E+01  0.15338047313E+03  0.15341013084E+03  0.17770000000E+01 0. -1.
</event>
<event>
 6    1  0.1860328E-003  0.5057574E+03  0.7546771E-02  0.9387018E-01
        -11   -1    0    0    0    0  0.00000000000E+00  0.00000000000E+00  0.50000000000E+03  0.50000000000E+03  0.00000000000E+00 0.  1.
         11   -1    0    0    0    0 -0.00000000000E+00 -0.00000000000E+00 -0.50000000000E+03  0.50000000000E+03  0.00000000000E+00 0.  1.
        -11    1    1    2    0    0 -0.10998035097E+02  0.39113329606E+01  0.46261614117E+03  0.46276338378E+03  0.00000000000E+00 0.  1.
         11    1    1    2    0    0  0.38253335696E+01 -0.55247987925E+01 -0.49419690568E+03  0.49424259040E+03  0.00000000000E+00 0.  1.
        -15    1    1    2    0    0 -0.18837093771E+01  0.12168827467E+02  0.59771435280E+01  0.13802633687E+02  0.17770000000E+01 0.  1.
         15    1    1    2    0    0  0.90564109045E+01 -0.10555361636E+02  0.25603620988E+02  0.29191392129E+02  0.17770000000E+01 0. -1.
</event>
<event>
 6    1  0.1860328E-003  0.5001058E+03  0.7546771E-02  0.9399573E-01
        -11   -1    0    0    0    0  0.00000000000E+00  0.00000000000E+00  0.50000000000E+03  0.50000000000E+03  0.00000000000E+00 0. -1.
         11   -1    0    0    0    0 -0.00000000000E+00 -0.00000000000E+00 -0.50000000000E+03  0.50000000000E+03  0.00000000000E+00 0.  1.
        -11    1    1    2    0    0  0.10520904333E+01 -0.18201470919E+01  0.13743571715E+03  0.13745179584E+03  0.00000000000E+00 0. -1.
         11    1    1    2    0    0 -0.80785197980E+01 -0.22498593070E+01 -0.49982386475E+03  0.49989420893E+03  0.00000000000E+00 0.  1.
        -15    1    1    2    0    0  0.38683556374E+01  0.11293299155E+01  0.41707967707E+02  0.41939860046E+02  0.17770000000E+01 0.  1.
         15    1    1    2    0    0  0.31580737273E+01  0.29406764834E+01  0.32068017989E+03  0.32071413519E+03  0.17770000000E+01 0. -1.
</event>
<event>
 6    1  0.1860328E-003  0.5002936E+03  0.7546771E-02  0.9399153E-01
        -11   -1    0    0    0    0  0.00000000000E+00  0.00000000000E+00  0.50000000000E+03  0.50000000000E+03  0.00000000000E+00 0.  1.
         11   -1    0    0    0    0 -0.00000000000E+00 -0.00000000000E+00 -0.50000000000E+03  0.50000000000E+03  0.00000000000E+00 0. -1.
        -11    1    1    2    0    0 -0.17661489441E+01 -0.37390935223E+01  0.19849626847E+03  0.19853933791E+03  0.00000000000E+00 0.  1.
         11    1    1    2    0    0 -0.88429573373E+01 -0.37273359714E+01 -0.49961425787E+03  0.49970641140E+03  0.00000000000E+00 0. -1.
        -15    1    1    2    0    0  0.58276095160E+01 -0.18150595521E+01  0.48566652536E+02  0.48980944676E+02  0.17770000000E+01 0. -1.
         15    1    1    2    0    0  0.47814967654E+01  0.92814890459E+01  0.25255133687E+03  0.25277330601E+03  0.17770000000E+01 0.  1.
</event>
<event>
 6    1  0.1860328E-003  0.5081772E+03  0.7546771E-02  0.9381696E-01
        -11   -1    0    0    0    0  0.00000000000E+00  0.00000000000E+00  0.50000000000E+03  0.50000000000E+03  0.00000000000E+00 0. -1.
         11   -1    0    0    0    0 -0.00000000000E+00 -0.00000000000E+00 -0.50000000000E+03  0.50000000000E+03  0.00000000000E+00 0.  1.
        -11    1    1    2    0    0  0.50028398549E+01 -0.17652317237E+01  0.26619347812E+03  0.26624633752E+03  0.00000000000E+00 0. -1.
         11    1    1    2    0    0 -0.89850245413E+00  0.77393442236E+01 -0.49176111881E+03  0.49182283673E+03  0.00000000000E+00 0.  1.
        -15    1    1    2    0    0 -0.13748929807E+02  0.32618985201E+01 -0.16293762796E+01  0.14334770624E+02  0.17770000000E+01 0. -1.
         15    1    1    2    0    0  0.96445924060E+01 -0.92360110200E+01  0.22719701696E+03  0.22759605512E+03  0.17770000000E+01 0.  1.
</event>
<event>
 6    1  0.1860328E-003  0.5016084E+03  0.7546771E-02  0.9396218E-01
        -11   -1    0    0    0    0  0.00000000000E+00  0.00000000000E+00  0.50000000000E+03  0.50000000000E+03  0.00000000000E+00 0.  1.
         11   -1    0    0    0    0 -0.00000000000E+00 -0.00000000000E+00 -0.50000000000E+03  0.50000000000E+03  0.00000000000E+00 0. -1.
        -11    1    1    2    0    0  0.46609171600E+01  0.23474846373E+01  0.17336450993E+03  0.17344304004E+03  0.00000000000E+00 0.  1.
         11    1    1    2    0    0  0.85076807744E+01 -0.72637659868E+01 -0.49826607695E+03  0.49839163954E+03  0.00000000000E+00 0. -1.
        -15    1    1    2    0    0 -0.59606181780E+01  0.16952963880E+00  0.31437900743E+03  0.31444057586E+03  0.17770000000E+01 0.  1.
         15    1    1    2    0    0 -0.72079797565E+01  0.47467517108E+01  0.10522559584E+02  0.13724744557E+02  0.17770000000E+01 0. -1.
</event>
<event>
 6    1  0.1860328E-003  0.5299080E+03  0.7546771E-02  0.9335268E-01
        -11   -1    0    0    0    0  0.00000000000E+00  0.00000000000E+00  0.50000000000E+03  0.50000000000E+03  0.00000000000E+00 0.  1.
         11   -1    0    0    0    0 -0.00000000000E+00 -0.00000000000E+00 -0.50000000000E+03  0.50000000000E+03  0.00000000000E+00 0. -1.
        -11    1    1    2    0    0  0.59468419389E+01  0.10428489048E+02  0.46993867245E+03  0.47009198480E+03  0.00000000000E+00 0.  1.
         11    1    1    2    0    0 -0.17571204122E+01 -0.15989697120E+02 -0.43580746538E+03  0.43610423612E+03  0.00000000000E+00 0. -1.
        -15    1    1    2    0    0  0.80366443834E+01  0.26784777391E+02  0.19957198320E+02  0.34401445414E+02  0.17770000000E+01 0.  1.
         15    1    1    2    0    0 -0.12226365910E+02 -0.21223569318E+02 -0.54088405390E+02  0.59402333663E+02  0.17770000000E+01 0. -1.
</event>
<event>
 6    1  0.1860328E-003  0.5011333E+03  0.7546771E-02  0.9397278E-01
        -11   -1    0    0    0    0  0.00000000000E+00  0.00000000000E+00  0.50000000000E+03  0.50000000000E+03  0.00000000000E+00 0.  1.
         11   -1    0    0    0    0 -0.00000000000E+00 -0.00000000000E+00 -0.50000000000E+03  0.50000000000E+03  0.00000000000E+00 0. -1.
        -11    1    1    2    0    0 -0.58111735011E+01 -0.11840279586E+01  0.27239897169E+03  0.27246352314E+03  0.00000000000E+00 0.  1.
         11    1    1    2    0    0 -0.84624055622E+01 -0.14899967966E+02 -0.49857237266E+03  0.49886674787E+03  0.00000000000E+00 0. -1.
        -15    1    1    2    0    0  0.26656735713E+00 -0.31226765529E+01  0.11084208867E+03  0.11090062451E+03  0.17770000000E+01 0.  1.
         15    1    1    2    0    0  0.14007011706E+02  0.19206672478E+02  0.11533131229E+03  0.11776910448E+03  0.17770000000E+01 0. -1.
</event>
<event>
 6    1  0.1860328E-003  0.5014735E+03  0.7546771E-02  0.9396519E-01
        -11   -1    0    0    0    0  0.00000000000E+00  0.00000000000E+00  0.50000000000E+03  0.50000000000E+03  0.00000000000E+00 0.  1.
         11   -1    0    0    0    0 -0.00000000000E+00 -0.00000000000E+00 -0.50000000000E+03  0.50000000000E+03  0.00000000000E+00 0. -1.
        -11    1    1    2    0    0 -0.10030506821E+02 -0.33943995717E+00  0.44050990327E+03  0.44062421763E+03  0.00000000000E+00 0.  1.
         11    1    1    2    0    0  0.19644040550E+01  0.98749829396E+01 -0.49842476804E+03  0.49852645223E+03  0.00000000000E+00 0. -1.
        -15    1    1    2    0    0  0.97024699862E+01 -0.11145336250E+02  0.53750547568E+02  0.55773071789E+02  0.17770000000E+01 0. -1.
         15    1    1    2    0    0 -0.16363672200E+01  0.16097932678E+01  0.41643172073E+01  0.50762583511E+01  0.17770000000E+01 0.  1.
</event>
<event>
 6    1  0.1860328E-003  0.5021707E+03  0.7546771E-02  0.9394966E-01
        -11   -1    0    0    0    0  0.00000000000E+00  0.00000000000E+00  0.50000000000E+03  0.50000000000E+03  0.00000000000E+00 0.  1.
         11   -1    0    0    0    0 -0.00000000000E+00 -0.00000000000E+00 -0.50000000000E+03  0.50000000000E+03  0.00000000000E+00 0. -1.
        -11    1    1    2    0    0 -0.33558232109E+00  0.34037915792E+01  0.22445522504E+03  0.22448128309E+03  0.00000000000E+00 0.  1.
         11    1    1    2    0    0 -0.54863650609E+01 -0.40032145726E+01 -0.49778293492E+03  0.49782926413E+03  0.00000000000E+00 0. -1.
        -15    1    1    2    0    0  0.10917036699E+02 -0.14822269273E+02  0.43326364273E+02  0.47108522868E+02  0.17770000000E+01 0. -1.
         15    1    1    2    0    0 -0.50950893173E+01  0.15421692266E+02  0.23000134561E+03  0.23058092991E+03  0.17770000000E+01 0.  1.
</event>
<event>
 6    1  0.1860328E-003  0.5098818E+03  0.7546771E-02  0.9377966E-01
        -11   -1    0    0    0    0  0.00000000000E+00  0.00000000000E+00  0.50000000000E+03  0.50000000000E+03  0.00000000000E+00 0. -1.
         11   -1    0    0    0    0 -0.00000000000E+00 -0.00000000000E+00 -0.50000000000E+03  0.50000000000E+03  0.00000000000E+00 0.  1.
        -11    1    1    2    0    0  0.10186335561E+02 -0.51798918257E+01  0.45143415612E+03  0.45157877499E+03  0.00000000000E+00 0. -1.
         11    1    1    2    0    0 -0.10140270874E+02  0.12440859491E+01 -0.49001171920E+03  0.49011820798E+03  0.00000000000E+00 0.  1.
        -15    1    1    2    0    0 -0.48081639849E+01  0.22776547422E+02  0.15232714524E+02  0.27876206236E+02  0.17770000000E+01 0.  1.
         15    1    1    2    0    0  0.47620992982E+01 -0.18840741545E+02  0.23344848557E+02  0.30426810790E+02  0.17770000000E+01 0. -1.
</event>
<event>
 6    1  0.1860328E-003  0.5090079E+03  0.7546771E-02  0.9379876E-01
        -11   -1    0    0    0    0  0.00000000000E+00  0.00000000000E+00  0.50000000000E+03  0.50000000000E+03  0.00000000000E+00 0.  1.
         11   -1    0    0    0    0 -0.00000000000E+00 -0.00000000000E+00 -0.50000000000E+03  0.50000000000E+03  0.00000000000E+00 0.  1.
        -11    1    1    2    0    0  0.53739457878E+01  0.49794995674E+01  0.49093742377E+03  0.49099208625E+03  0.00000000000E+00 0.  1.
         11    1    1    2    0    0 -0.12361199638E+02  0.14043210428E+02 -0.43263063128E+03  0.43303495717E+03  0.00000000000E+00 0.  1.
        -15    1    1    2    0    0  0.23742585547E+02 -0.68058888983E+01 -0.18011357006E+02  0.30620209052E+02  0.17770000000E+01 0. -1.
         15    1    1    2    0    0 -0.16755331697E+02 -0.12216821097E+02 -0.40295435484E+02  0.45352747522E+02  0.17770000000E+01 0.  1.
</event>
<event>
 6    1  0.1860328E-003  0.5001119E+03  0.7546771E-02  0.9399559E-01
        -11   -1    0    0    0    0  0.00000000000E+00  0.00000000000E+00  0.50000000000E+03  0.50000000000E+03  0.00000000000E+00 0. -1.
         11   -1    0    0    0    0 -0.00000000000E+00 -0.00000000000E+00 -0.50000000000E+03  0.50000000000E+03  0.00000000000E+00 0.  1.
        -11    1    1    2    0    0 -0.72060741261E+01 -0.15121772282E+02  0.49960741055E+03  0.49988814767E+03  0.00000000000E+00 0. -1.
         11    1    1    2    0    0 -0.22985830337E+01 -0.61846187601E+00 -0.43670135490E+02  0.43734959847E+02  0.00000000000E+00 0.  1.
        -15    1    1    2    0    0  0.11560156629E+01  0.19141792357E+00 -0.33645982671E+02  0.33713245052E+02  0.17770000000E+01 0. -1.
         15    1    1    2    0    0  0.83486414968E+01  0.15548816235E+02 -0.42229129239E+03  0.42266364743E+03  0.17770000000E+01 0.  1.
</event>
<event>
 6    1  0.1860328E-003  0.5065308E+03  0.7546771E-02  0.9385314E-01
        -11   -1    0    0    0    0  0.00000000000E+00  0.00000000000E+00  0.50000000000E+03  0.50000000000E+03  0.00000000000E+00 0.  1.
         11   -1    0    0    0    0 -0.00000000000E+00 -0.00000000000E+00 -0.50000000000E+03  0.50000000000E+03  0.00000000000E+00 0.  1.
        -11    1    1    2    0    0 -0.15195987738E-01  0.68126822823E+01  0.44767446971E+03  0.44772630445E+03  0.00000000000E+00 0.  1.
         11    1    1    2    0    0  0.80986475834E+01  0.11722649439E+02 -0.49326341832E+03  0.49346915653E+03  0.00000000000E+00 0.  1.
        -15    1    1    2    0    0 -0.96334876985E+01 -0.20229769210E+02  0.49247167654E+02  0.54133990232E+02  0.17770000000E+01 0.  1.
         15    1    1    2    0    0  0.15500361028E+01  0.16944374885E+01 -0.36582190460E+01  0.46705487805E+01  0.17770000000E+01 0. -1.
</event>
<event>
 6    1  0.1860328E-003  0.5140247E+03  0.7546771E-02  0.9368964E-01
        -11   -1    0    0    0    0  0.00000000000E+00  0.00000000000E+00  0.50000000000E+03  0.50000000000E+03  0.00000000000E+00 0.  1.
         11   -1    0    0    0    0 -0.00000000000E+00 -0.00000000000E+00 -0.50000000000E+03  0.50000000000E+03  0.00000000000E+00 0.  1.
        -11    1    1    2    0    0  0.51950931307E+01  0.43573343766E+01  0.46608169474E+03  0.46613101326E+03  0.00000000000E+00 0.  1.
         11    1    1    2    0    0  0.61474583493E+01 -0.26324706604E+01 -0.48592932925E+03  0.48597534318E+03  0.00000000000E+00 0.  1.
        -15    1    1    2    0    0 -0.91485341075E+01 -0.95571554758E+01  0.31130335624E+02  0.33871675810E+02  0.17770000000E+01 0.  1.
         15    1    1    2    0    0 -0.21940173726E+01  0.78322917596E+01 -0.11282701105E+02  0.14021967753E+02  0.17770000000E+01 0. -1.
</event>
<event>
 6    1  0.1860328E-003  0.5029414E+03  0.7546771E-02  0.9393252E-01
        -11   -1    0    0    0    0  0.00000000000E+00  0.00000000000E+00  0.50000000000E+03  0.50000000000E+03  0.00000000000E+00 0. -1.
         11   -1    0    0    0    0 -0.00000000000E+00 -0.00000000000E+00 -0.50000000000E+03  0.50000000000E+03  0.00000000000E+00 0. -1.
        -11    1    1    2    0    0  0.73590398318E+01  0.20274766151E+01  0.49700001145E+03  0.49705862583E+03  0.00000000000E+00 0. -1.
         11    1    1    2    0    0  0.80431197937E+01 -0.17742192825E+01 -0.45734554174E+03  0.45741970244E+03  0.00000000000E+00 0. -1.
        -15    1    1    2    0    0 -0.12355243584E+02 -0.54936126678E+01 -0.35317883846E+02  0.37859509671E+02  0.17770000000E+01 0. -1.
         15    1    1    2    0    0 -0.30469160418E+01  0.52403553352E+01 -0.43365858627E+01  0.76621620545E+01  0.17770000000E+01 0.  1.
</event>
<event>
 6    1  0.1860328E-003  0.5004609E+03  0.7546771E-02  0.9398779E-01
        -11   -1    0    0    0    0  0.00000000000E+00  0.00000000000E+00  0.50000000000E+03  0.50000000000E+03  0.00000000000E+00 0. -1.
         11   -1    0    0    0    0 -0.00000000000E+00 -0.00000000000E+00 -0.50000000000E+03  0.50000000000E+03  0.00000000000E+00 0.  1.
        -11    1    1    2    0    0 -0.17863853768E+02 -0.32494731383E+01  0.49920900889E+03  0.49953909847E+03  0.00000000000E+00 0. -1.
         11    1    1    2    0    0 -0.12096159081E+01 -0.13200510144E+01 -0.81839111971E+02  0.81858695039E+02  0.00000000000E+00 0.  1.
        -15    1    1    2    0    0  0.16082625425E+02  0.13221028837E+02 -0.34529028907E+03  0.34592193902E+03  0.17770000000E+01 0.  1.
         15    1    1    2    0    0  0.29908442514E+01 -0.86515046843E+01 -0.72079607847E+02  0.72680267467E+02  0.17770000000E+01 0. -1.
</event>
<event>
 6    1  0.1860328E-003  0.5087471E+03  0.7546771E-02  0.9380447E-01
        -11   -1    0    0    0    0  0.00000000000E+00  0.00000000000E+00  0.50000000000E+03  0.50000000000E+03  0.00000000000E+00 0.  1.
         11   -1    0    0    0    0 -0.00000000000E+00 -0.00000000000E+00 -0.50000000000E+03  0.50000000000E+03  0.00000000000E+00 0.  1.
        -11    1    1    2    0    0 -0.31505690491E+01  0.14329751440E+02  0.43909489729E+03  0.43933995572E+03  0.00000000000E+00 0.  1.
         11    1    1    2    0    0 -0.16677117586E+02 -0.10786303602E+02 -0.49085123058E+03  0.49125288921E+03  0.00000000000E+00 0.  1.
        -15    1    1    2    0    0  0.52635658285E+01  0.13655768098E+02  0.21581420051E+01  0.14899678973E+02  0.17770000000E+01 0. -1.
         15    1    1    2    0    0  0.14564120807E+02 -0.17199215936E+02  0.49598191278E+02  0.54507476100E+02  0.17770000000E+01 0.  1.
</event>
<event>
 6    1  0.5324499E-003  0.5519065E+03  0.7546771E-02  0.9290613E-01
        -11   -1    0    0    0    0  0.00000000000E+00  0.00000000000E+00  0.50000000000E+03  0.50000000000E+03  0.00000000000E+00 0. -1.
         11   -1    0    0    0    0 -0.00000000000E+00 -0.00000000000E+00 -0.50000000000E+03  0.50000000000E+03  0.00000000000E+00 0.  1.
        -11    1    1    2    0    0 -0.56588020419E+01 -0.56328286035E-01  0.41484169981E+03  0.41488029734E+03  0.00000000000E+00 0. -1.
         11    1    1    2    0    0 -0.12029018452E+02 -0.10120430421E+02 -0.44781769348E+03  0.44809352483E+03  0.00000000000E+00 0.  1.
        -15    1    1    2    0    0  0.13441702994E+02  0.18088167767E+02 -0.49303649581E+02  0.54238996889E+02  0.17770000000E+01 0.  1.
         15    1    1    2    0    0  0.42461174998E+01 -0.79114090596E+01  0.82279643249E+02  0.82787180948E+02  0.17770000000E+01 0. -1.
</event>
<event>
 6    1  0.1860328E-003  0.4738904E+03  0.7546771E-02  0.9460205E-01
        -11   -1    0    0    0    0  0.00000000000E+00  0.00000000000E+00  0.50000000000E+03  0.50000000000E+03  0.00000000000E+00 0.  1.
         11   -1    0    0    0    0 -0.00000000000E+00 -0.00000000000E+00 -0.50000000000E+03  0.50000000000E+03  0.00000000000E+00 0. -1.
        -11    1    1    2    0    0  0.10795869614E+01 -0.12860776927E+02  0.48002900987E+03  0.48020247335E+03  0.00000000000E+00 0.  1.
         11    1    1    2    0    0  0.26418165581E+02 -0.22212937124E+01 -0.46742954804E+03  0.46818077278E+03  0.00000000000E+00 0. -1.
        -15    1    1    2    0    0 -0.36602203925E+02  0.16719102873E+02 -0.12577406910E+02  0.42197140029E+02  0.17770000000E+01 0. -1.
         15    1    1    2    0    0  0.91044513825E+01 -0.16370322331E+01 -0.22054916981E-01  0.94196138418E+01  0.17770000000E+01 0.  1.
</event>
<event>
 6    1  0.1860328E-003  0.5042224E+03  0.7546771E-02  0.9390411E-01
        -11   -1    0    0    0    0  0.00000000000E+00  0.00000000000E+00  0.50000000000E+03  0.50000000000E+03  0.00000000000E+00 0. -1.
         11   -1    0    0    0    0 -0.00000000000E+00 -0.00000000000E+00 -0.50000000000E+03  0.50000000000E+03  0.00000000000E+00 0. -1.
        -11    1    1    2    0    0 -0.44586934968E+01  0.31196533194E+01  0.29636848513E+03  0.29641843931E+03  0.00000000000E+00 0. -1.
         11    1    1    2    0    0 -0.14022119197E+01  0.72277018338E+01 -0.49572294575E+03  0.49577761629E+03  0.00000000000E+00 0. -1.
        -15    1    1    2    0    0  0.12336988940E+02 -0.99856876005E-01  0.19405523866E+03  0.19445514816E+03  0.17770000000E+01 0. -1.
         15    1    1    2    0    0 -0.64760835237E+01 -0.10247498277E+02  0.52992219606E+01  0.13348796243E+02  0.17770000000E+01 0.  1.
</event>
<event>
 6    1  0.1860328E-003  0.5038027E+03  0.7546771E-02  0.9391341E-01
        -11   -1    0    0    0    0  0.00000000000E+00  0.00000000000E+00  0.50000000000E+03  0.50000000000E+03  0.00000000000E+00 0.  1.
         11   -1    0    0    0    0 -0.00000000000E+00 -0.00000000000E+00 -0.50000000000E+03  0.50000000000E+03  0.00000000000E+00 0.  1.
        -11    1    1    2    0    0  0.10151941343E+02  0.88442166444E+00  0.43427529476E+03  0.43439483854E+03  0.00000000000E+00 0.  1.
         11    1    1    2    0    0 -0.63038442472E+00 -0.78770090764E+01 -0.49613434435E+03  0.49619727156E+03  0.00000000000E+00 0.  1.
        -15    1    1    2    0    0  0.23944711993E+01  0.87849551876E+01  0.37012870830E+01  0.99883024104E+01  0.17770000000E+01 0. -1.
         15    1    1    2    0    0 -0.11916028118E+02 -0.17923677756E+01  0.58157762512E+02  0.59419587492E+02  0.17770000000E+01 0. -1.
</event>
<event>
 6    1  0.1860328E-003  0.5001050E+03  0.7546771E-02  0.9399575E-01
        -11   -1    0    0    0    0  0.00000000000E+00  0.00000000000E+00  0.50000000000E+03  0.50000000000E+03  0.00000000000E+00 0.  1.
         11   -1    0    0    0    0 -0.00000000000E+00 -0.00000000000E+00 -0.50000000000E+03  0.50000000000E+03  0.00000000000E+00 0. -1.
        -11    1    1    2    0    0  0.46471366596E+00  0.27722307837E+00  0.19347788219E+02  0.19355353791E+02  0.00000000000E+00 0.  1.
         11    1    1    2    0    0 -0.62108945025E+01 -0.55681532281E+01 -0.49982538971E+03  0.49989498872E+03  0.00000000000E+00 0. -1.
        -15    1    1    2    0    0  0.64214281441E+01  0.90795459023E+01  0.40194985620E+03  0.40210759446E+03  0.17770000000E+01 0.  1.
         15    1    1    2    0    0 -0.67524730762E+00 -0.37886157526E+01  0.78527745292E+02  0.78642063031E+02  0.17770000000E+01 0. -1.
</event>
<event>
 6    1  0.1860328E-003  0.5489007E+03  0.7546771E-02  0.9296583E-01
        -11   -1    0    0    0    0  0.00000000000E+00  0.00000000000E+00  0.50000000000E+03  0.50000000000E+03  0.00000000000E+00 0. -1.
         11   -1    0    0    0    0 -0.00000000000E+00 -0.00000000000E+00 -0.50000000000E+03  0.50000000000E+03  0.00000000000E+00 0.  1.
        -11    1    1    2    0    0  0.74488951473E+01 -0.89919665731E+01  0.45094813793E+03  0.45109928465E+03  0.00000000000E+00 0. -1.
         11    1    1    2    0    0 -0.86733016688E+01  0.26230567524E+02 -0.41083547621E+03  0.41176335115E+03  0.00000000000E+00 0.  1.
        -15    1    1    2    0    0  0.66520400768E+01 -0.22510441068E+02 -0.86734482479E+02  0.89872119004E+02  0.17770000000E+01 0.  1.
         15    1    1    2    0    0 -0.54276335553E+01  0.52718401170E+01  0.46621820758E+02  0.47265245203E+02  0.17770000000E+01 0.  1.
</event>
<event>
 6    1  0.1860328E-003  0.5007559E+03  0.7546771E-02  0.9398120E-01
        -11   -1    0    0    0    0  0.00000000000E+00  0.00000000000E+00  0.50000000000E+03  0.50000000000E+03  0.00000000000E+00 0. -1.
         11   -1    0    0    0    0 -0.00000000000E+00 -0.00000000000E+00 -0.50000000000E+03  0.50000000000E+03  0.00000000000E+00 0.  1.
        -11    1    1    2    0    0 -0.51969671857E+01  0.36733605442E+01  0.14188852418E+03  0.14203117735E+03  0.00000000000E+00 0. -1.
         11    1    1    2    0    0 -0.14412238793E+02  0.66858280779E+00 -0.49903559447E+03  0.49924411281E+03  0.00000000000E+00 0.  1.
        -15    1    1    2    0    0  0.28841611251E+01  0.42982589933E+01  0.23992323227E+03  0.23998564233E+03  0.17770000000E+01 0. -1.
         15    1    1    2    0    0  0.16725044853E+02 -0.86402023452E+01  0.11722383803E+03  0.11873906751E+03  0.17770000000E+01 0.  1.
</event>
<event>
 6    1  0.1860328E-003  0.5263580E+03  0.7546771E-02  0.9342689E-01
        -11   -1    0    0    0    0  0.00000000000E+00  0.00000000000E+00  0.50000000000E+03  0.50000000000E+03  0.00000000000E+00 0. -1.
         11   -1    0    0    0    0 -0.00000000000E+00 -0.00000000000E+00 -0.50000000000E+03  0.50000000000E+03  0.00000000000E+00 0. -1.
        -11    1    1    2    0    0 -0.82213325033E+01  0.82547523216E+01  0.41230882388E+03  0.41247339004E+03  0.00000000000E+00 0. -1.
         11    1    1    2    0    0  0.24149320151E+01 -0.65227767692E+01 -0.47359092297E+03  0.47364199649E+03  0.00000000000E+00 0. -1.
        -15    1    1    2    0    0  0.84412598376E+01 -0.54598278340E+01  0.87054361015E+02  0.87650921777E+02  0.17770000000E+01 0.  1.
         15    1    1    2    0    0 -0.26348593494E+01  0.37278522816E+01 -0.25772261921E+02  0.26233691695E+02  0.17770000000E+01 0. -1.
</event>
<event>
 6    1  0.1860328E-003  0.3239772E+03  0.7546771E-02  0.9912256E-01
        -11   -1    0    0    0    0  0.00000000000E+00  0.00000000000E+00  0.50000000000E+03  0.50000000000E+03  0.00000000000E+00 0.  1.
         11   -1    0    0    0    0 -0.00000000000E+00 -0.00000000000E+00 -0.50000000000E+03  0.50000000000E+03  0.00000000000E+00 0.  1.
        -11    1    1    2    0    0  0.25268684559E+01 -0.14220453538E+01  0.14511920218E+02  0.14798753515E+02  0.00000000000E+00 0.  1.
         11    1    1    2    0    0  0.52320373129E+02 -0.54404112706E+02 -0.27297890499E+03  0.28322201803E+03  0.00000000000E+00 0.  1.
        -15    1    1    2    0    0 -0.67477426824E+02  0.33284770498E+03  0.26887048814E+02  0.34068588019E+03  0.17770000000E+01 0. -1.
         15    1    1    2    0    0  0.12630185239E+02 -0.27702154692E+03  0.23157993596E+03  0.36129334827E+03  0.17770000000E+01 0.  1.
</event>
<event>
 6    1  0.1860328E-003  0.4514754E+03  0.7546771E-02  0.9515455E-01
        -11   -1    0    0    0    0  0.00000000000E+00  0.00000000000E+00  0.50000000000E+03  0.50000000000E+03  0.00000000000E+00 0.  1.
         11   -1    0    0    0    0 -0.00000000000E+00 -0.00000000000E+00 -0.50000000000E+03  0.50000000000E+03  0.00000000000E+00 0. -1.
        -11    1    1    2    0    0  0.92464461241E+01  0.11139345921E+02  0.45387994269E+03  0.45411076200E+03  0.00000000000E+00 0.  1.
         11    1    1    2    0    0  0.43153999119E+01  0.63213865990E+01 -0.44905828123E+03  0.44912350478E+03  0.00000000000E+00 0. -1.
        -15    1    1    2    0    0 -0.92807935432E+01 -0.23797058547E+02  0.42054947682E+02  0.49236261818E+02  0.17770000000E+01 0. -1.
         15    1    1    2    0    0 -0.42810524928E+01  0.63363260270E+01 -0.46876609139E+02  0.47529471398E+02  0.17770000000E+01 0.  1.
</event>
<event>
 6    1  0.1860328E-003  0.5059664E+03  0.7546771E-02  0.9386558E-01
        -11   -1    0    0    0    0  0.00000000000E+00  0.00000000000E+00  0.50000000000E+03  0.50000000000E+03  0.00000000000E+00 0.  1.
         11   -1    0    0    0    0 -0.00000000000E+00 -0.00000000000E+00 -0.50000000000E+03  0.50000000000E+03  0.00000000000E+00 0.  1.
        -11    1    1    2    0    0  0.89114685051E+01 -0.12336683108E+02  0.49379913385E+03  0.49403359462E+03  0.00000000000E+00 0.  1.
         11    1    1    2    0    0 -0.13272508079E+02  0.59460000175E+01 -0.46032818127E+03  0.46055786700E+03  0.00000000000E+00 0.  1.
        -15    1    1    2    0    0  0.83031787035E+01 -0.23271464304E+00 -0.36090059675E+02  0.37076233209E+02  0.17770000000E+01 0. -1.
         15    1    1    2    0    0 -0.39421391300E+01  0.66233977338E+01  0.26191070984E+01  0.83323051705E+01  0.17770000000E+01 0.  1.
</event>
<event>
 6    1  0.1860328E-003  0.5045493E+03  0.7546771E-02  0.9389688E-01
        -11   -1    0    0    0    0  0.00000000000E+00  0.00000000000E+00  0.50000000000E+03  0.50000000000E+03  0.00000000000E+00 0.  1.
         11   -1    0    0    0    0 -0.00000000000E+00 -0.00000000000E+00 -0.50000000000E+03  0.50000000000E+03  0.00000000000E+00 0. -1.
        -11    1    1    2    0    0 -0.92457386257E+01  0.47540807282E+01  0.44295809475E+03  0.44308008156E+03  0.00000000000E+00 0.  1.
         11    1    1    2    0    0 -0.67777926938E+01 -0.10415236638E+00 -0.49540435195E+03  0.49545072535E+03  0.00000000000E+00 0. -1.
        -15    1    1    2    0    0  0.20188070934E+02 -0.77571132165E+01  0.51515655907E+02  0.55899477154E+02  0.17770000000E+01 0.  1.
         15    1    1    2    0    0 -0.41645396143E+01  0.31071848547E+01  0.93060128675E+00  0.55697159421E+01  0.17770000000E+01 0. -1.
</event>
<event>
 6    1  0.1860328E-003  0.5057619E+03  0.7546771E-02  0.9387008E-01
        -11   -1    0    0    0    0  0.00000000000E+00  0.00000000000E+00  0.50000000000E+03  0.50000000000E+03  0.00000000000E+00 0.  1.
         11   -1    0    0    0    0 -0.00000000000E+00 -0.00000000000E+00 -0.50000000000E+03  0.50000000000E+03  0.00000000000E+00 0.  1.
        -11    1    1    2    0    0  0.93494035087E+01  0.95364269513E+01  0.44521049391E+03  0.44541075276E+03  0.00000000000E+00 0.  1.
         11    1    1    2    0    0  0.79491349386E+01  0.13172787446E+01 -0.49417237194E+03  0.49423805717E+03  0.00000000000E+00 0.  1.
        -15    1    1    2    0    0 -0.11499059588E+02 -0.45163738335E+01  0.20773212786E+01  0.12653023224E+02  0.17770000000E+01 0.  1.
         15    1    1    2    0    0 -0.57994788593E+01 -0.63373318623E+01  0.46884556745E+02  0.47698166845E+02  0.17770000000E+01 0. -1.
</event>
<event>
 6    1  0.1860328E-003  0.4904853E+03  0.7546771E-02  0.9421355E-01
        -11   -1    0    0    0    0  0.00000000000E+00  0.00000000000E+00  0.50000000000E+03  0.50000000000E+03  0.00000000000E+00 0.  1.
         11   -1    0    0    0    0 -0.00000000000E+00 -0.00000000000E+00 -0.50000000000E+03  0.50000000000E+03  0.00000000000E+00 0.  1.
        -11    1    1    2    0    0  0.79978635778E+00 -0.64442897511E+01  0.24589474567E+02  0.25432475069E+02  0.00000000000E+00 0.  1.
         11    1    1    2    0    0  0.14585201293E+01  0.13451303075E+02 -0.49600357602E+03  0.49618808153E+03  0.00000000000E+00 0.  1.
        -15    1    1    2    0    0 -0.79279986968E+01 -0.31330842836E+02  0.81936384604E+02  0.88097694221E+02  0.17770000000E+01 0. -1.
         15    1    1    2    0    0  0.56696922097E+01  0.24323829512E+02  0.38947771685E+03  0.39028174918E+03  0.17770000000E+01 0.  1.
</event>
<event>
 6    1  0.1860328E-003  0.5010397E+03  0.7546771E-02  0.9397486E-01
        -11   -1    0    0    0    0  0.00000000000E+00  0.00000000000E+00  0.50000000000E+03  0.50000000000E+03  0.00000000000E+00 0. -1.
         11   -1    0    0    0    0 -0.00000000000E+00 -0.00000000000E+00 -0.50000000000E+03  0.50000000000E+03  0.00000000000E+00 0.  1.
        -11    1    1    2    0    0 -0.24026751522E+01  0.78425133114E+01  0.49889284486E+03  0.49896026748E+03  0.00000000000E+00 0. -1.
         11    1    1    2    0    0  0.70087804258E+01  0.59057520869E+01 -0.37521474111E+03  0.37532666153E+03  0.00000000000E+00 0.  1.
        -15    1    1    2    0    0  0.57331279313E+01 -0.32371126272E+01 -0.24582538301E+02  0.25510910849E+02  0.17770000000E+01 0. -1.
         15    1    1    2    0    0 -0.10339233205E+02 -0.10511152771E+02 -0.99095565456E+02  0.10020216015E+03  0.17770000000E+01 0.  1.
</event>
<event>
 6    1  0.1860328E-003  0.5048275E+03  0.7546771E-02  0.9389072E-01
        -11   -1    0    0    0    0  0.00000000000E+00  0.00000000000E+00  0.50000000000E+03  0.50000000000E+03  0.00000000000E+00 0. -1.
         11   -1    0    0    0    0 -0.00000000000E+00 -0.00000000000E+00 -0.50000000000E+03  0.50000000000E+03  0.00000000000E+00 0.  1.
        -11    1    1    2    0    0  0.27110174888E+02 -0.11424223197E+01  0.44395211366E+03  0.44478055930E+03  0.00000000000E+00 0. -1.
         11    1    1    2    0    0 -0.68341001531E+01 -0.71218450041E+01 -0.49507414672E+03  0.49517253191E+03  0.00000000000E+00 0.  1.
        -15    1    1    2    0    0  0.35450075828E+01 -0.27186207786E+01  0.11835259946E+02  0.12774548316E+02  0.17770000000E+01 0.  1.
         15    1    1    2    0    0 -0.23821082318E+02  0.10982888102E+02  0.39286773117E+02  0.47272360474E+02  0.17770000000E+01 0. -1.
</event>
<event>
 6    1  0.1860328E-003  0.4564917E+03  0.7546771E-02  0.9502798E-01
        -11   -1    0    0    0    0  0.00000000000E+00  0.00000000000E+00  0.50000000000E+03  0.50000000000E+03  0.00000000000E+00 0.  1.
         11   -1    0    0    0    0 -0.00000000000E+00 -0.00000000000E+00 -0.50000000000E+03  0.50000000000E+03  0.00000000000E+00 0. -1.
        -11    1    1    2    0    0  0.36203615959E+01  0.95519511336E+01  0.45686597050E+03  0.45698015470E+03  0.00000000000E+00 0.  1.
         11    1    1    2    0    0  0.10412817015E+02  0.17883594610E+01 -0.45605945725E+03  0.45618182070E+03  0.00000000000E+00 0. -1.
        -15    1    1    2    0    0  0.13719731044E+02 -0.20620040823E+02 -0.34288180583E+02  0.42335022855E+02  0.17770000000E+01 0.  1.
         15    1    1    2    0    0 -0.27752909654E+02  0.92797302285E+01  0.33481667339E+02  0.44503001744E+02  0.17770000000E+01 0. -1.
</event>
<event>
 6    1  0.1860328E-003  0.5161558E+03  0.7546771E-02  0.9364368E-01
        -11   -1    0    0    0    0  0.00000000000E+00  0.00000000000E+00  0.50000000000E+03  0.50000000000E+03  0.00000000000E+00 0.  1.
         11   -1    0    0    0    0 -0.00000000000E+00 -0.00000000000E+00 -0.50000000000E+03  0.50000000000E+03  0.00000000000E+00 0.  1.
        -11    1    1    2    0    0 -0.92232154287E+01 -0.11732397573E+02  0.48361402733E+03  0.48384423557E+03  0.00000000000E+00 0.  1.
         11    1    1    2    0    0 -0.34382547897E+00  0.87322740402E+01 -0.26054171756E+03  0.26068823797E+03  0.00000000000E+00 0.  1.
        -15    1    1    2    0    0 -0.12585738478E+02 -0.20855256909E+02 -0.22148285554E+03  0.22282539258E+03  0.17770000000E+01 0.  1.
         15    1    1    2    0    0  0.22152779385E+02  0.23855380442E+02 -0.15894542338E+01  0.32642133881E+02  0.17770000000E+01 0. -1.
</event>
<event>
 6    1  0.1860328E-003  0.5028599E+03  0.7546771E-02  0.9393433E-01
        -11   -1    0    0    0    0  0.00000000000E+00  0.00000000000E+00  0.50000000000E+03  0.50000000000E+03  0.00000000000E+00 0.  1.
         11   -1    0    0    0    0 -0.00000000000E+00 -0.00000000000E+00 -0.50000000000E+03  0.50000000000E+03  0.00000000000E+00 0.  1.
        -11    1    1    2    0    0  0.46177013195E+01  0.57033805749E+01  0.37032235887E+03  0.37039506097E+03  0.00000000000E+00 0.  1.
         11    1    1    2    0    0 -0.77454774799E-01  0.88492939211E+01 -0.49706130503E+03  0.49714007780E+03  0.00000000000E+00 0.  1.
        -15    1    1    2    0    0 -0.31304679816E+01 -0.93801013907E+01  0.62262862084E+01  0.11819919663E+02  0.17770000000E+01 0.  1.
         15    1    1    2    0    0 -0.14097785630E+01 -0.51725731053E+01  0.12051265995E+03  0.12064494157E+03  0.17770000000E+01 0. -1.
</event>
<event>
 6    1  0.1860328E-003  0.5024435E+03  0.7546771E-02  0.9394359E-01
        -11   -1    0    0    0    0  0.00000000000E+00  0.00000000000E+00  0.50000000000E+03  0.50000000000E+03  0.00000000000E+00 0. -1.
         11   -1    0    0    0    0 -0.00000000000E+00 -0.00000000000E+00 -0.50000000000E+03  0.50000000000E+03  0.00000000000E+00 0.  1.
        -11    1    1    2    0    0  0.15685525768E+01  0.56414626528E+01  0.29816032514E+02  0.30385559941E+02  0.00000000000E+00 0. -1.
         11    1    1    2    0    0 -0.16072944208E+02 -0.28208820865E+02 -0.49649609085E+03  0.49755647452E+03  0.00000000000E+00 0.  1.
        -15    1    1    2    0    0  0.98240921688E+01 -0.58413702498E+01  0.38936602980E+03  0.38953779956E+03  0.17770000000E+01 0. -1.
         15    1    1    2    0    0  0.46802994628E+01  0.28408728462E+02  0.77314028531E+02  0.82520165975E+02  0.17770000000E+01 0.  1.
</event>
<event>
 6    1  0.1860328E-003  0.5736949E+03  0.7546771E-02  0.9248509E-01
        -11   -1    0    0    0    0  0.00000000000E+00  0.00000000000E+00  0.50000000000E+03  0.50000000000E+03  0.00000000000E+00 0.  1.
         11   -1    0    0    0    0 -0.00000000000E+00 -0.00000000000E+00 -0.50000000000E+03  0.50000000000E+03  0.00000000000E+00 0. -1.
        -11    1    1    2    0    0 -0.46934932999E+01  0.52000350864E+01  0.42624751848E+03  0.42630507416E+03  0.00000000000E+00 0.  1.
         11    1    1    2    0    0  0.68362638458E+01  0.50604182209E+01 -0.33949166129E+03  0.33959818967E+03  0.00000000000E+00 0. -1.
        -15    1    1    2    0    0  0.23593699215E+02 -0.98542874508E+01  0.70356653144E+02  0.74879810325E+02  0.17770000000E+01 0.  1.
         15    1    1    2    0    0 -0.25736469760E+02 -0.40616585651E+00 -0.15711251033E+03  0.15921692585E+03  0.17770000000E+01 0. -1.
</event>
<event>
 6    1  0.1860328E-003  0.5013919E+03  0.7546771E-02  0.9396701E-01
        -11   -1    0    0    0    0  0.00000000000E+00  0.00000000000E+00  0.50000000000E+03  0.50000000000E+03  0.00000000000E+00 0.  1.
         11   -1    0    0    0    0 -0.00000000000E+00 -0.00000000000E+00 -0.50000000000E+03  0.50000000000E+03  0.00000000000E+00 0. -1.
        -11    1    1    2    0    0 -0.99732145537E+01  0.94029710035E+01  0.49841966037E+03  0.49860810133E+03  0.00000000000E+00 0.  1.
         11    1    1    2    0    0  0.92721193132E+01  0.18104393408E+01 -0.37197245045E+03  0.37209239952E+03  0.00000000000E+00 0. -1.
        -15    1    1    2    0    0  0.54287014321E+01 -0.85494776309E+01 -0.18214442098E+02  0.20916213733E+02  0.17770000000E+01 0.  1.
         15    1    1    2    0    0 -0.47276061916E+01 -0.26639327134E+01 -0.10823276783E+03  0.10838328542E+03  0.17770000000E+01 0. -1.
</event>
<event>
 6    1  0.1860328E-003  0.5099318E+03  0.7546771E-02  0.9377857E-01
        -11   -1    0    0    0    0  0.00000000000E+00  0.00000000000E+00  0.50000000000E+03  0.50000000000E+03  0.00000000000E+00 0. -1.
         11   -1    0    0    0    0 -0.00000000000E+00 -0.00000000000E+00 -0.50000000000E+03  0.50000000000E+03  0.00000000000E+00 0. -1.
        -11    1    1    2    0    0 -0.48634355852E+01 -0.83037694708E+01  0.48997375672E+03  0.49006824817E+03  0.00000000000E+00 0. -1.
         11    1    1    2    0    0  0.63281301094E+01  0.25351395790E+01 -0.41330985839E+03  0.41336607408E+03  0.00000000000E+00 0. -1.
        -15    1    1    2    0    0 -0.17873321923E+01 -0.12756542282E+02 -0.76859468413E+02  0.77951648738E+02  0.17770000000E+01 0.  1.
         15    1    1    2    0    0  0.32263766806E+00  0.18525172174E+02  0.19557007968E+00  0.18614029005E+02  0.17770000000E+01 0. -1.
</event>
<event>
 6    1  0.1860328E-003  0.5294748E+03  0.7546771E-02  0.9336170E-01
        -11   -1    0    0    0    0  0.00000000000E+00  0.00000000000E+00  0.50000000000E+03  0.50000000000E+03  0.00000000000E+00 0.  1.
         11   -1    0    0    0    0 -0.00000000000E+00 -0.00000000000E+00 -0.50000000000E+03  0.50000000000E+03  0.00000000000E+00 0.  1.
        -11    1    1    2    0    0 -0.32721459679E+01  0.62020084861E+01  0.11128579819E+03  0.11150650532E+03  0.00000000000E+00 0.  1.
         11    1    1    2    0    0 -0.36534915165E+02 -0.42576182209E+01 -0.46908534732E+03  0.47052522824E+03  0.00000000000E+00 0.  1.
        -15    1    1    2    0    0  0.91332428424E+02  0.11377343779E+02  0.35265398570E+03  0.36447091488E+03  0.17770000000E+01 0.  1.
         15    1    1    2    0    0 -0.51525367292E+02 -0.13321734045E+02  0.51455634300E+01  0.53497351565E+02  0.17770000000E+01 0. -1.
</event>
<event>
 6    1  0.1860328E-003  0.5007347E+03  0.7546771E-02  0.9398167E-01
        -11   -1    0    0    0    0  0.00000000000E+00  0.00000000000E+00  0.50000000000E+03  0.50000000000E+03  0.00000000000E+00 0. -1.
         11   -1    0    0    0    0 -0.00000000000E+00 -0.00000000000E+00 -0.50000000000E+03  0.50000000000E+03  0.00000000000E+00 0.  1.
        -11    1    1    2    0    0 -0.95971819406E+00  0.76987319879E+01  0.49920505969E+03  0.49926534343E+03  0.00000000000E+00 0. -1.
         11    1    1    2    0    0 -0.38298435226E+01 -0.11007337805E+01 -0.16845255348E+03  0.16849967979E+03  0.00000000000E+00 0.  1.
        -15    1    1    2    0    0  0.44657328970E+01  0.96210057737E+01 -0.57600961102E+02  0.58596373363E+02  0.17770000000E+01 0. -1.
         15    1    1    2    0    0  0.32382881969E+00 -0.16219003981E+02 -0.27315154510E+03  0.27363860341E+03  0.17770000000E+01 0.  1.
</event>
<event>
 6    1  0.1860328E-003  0.5028087E+03  0.7546771E-02  0.9393547E-01
        -11   -1    0    0    0    0  0.00000000000E+00  0.00000000000E+00  0.50000000000E+03  0.50000000000E+03  0.00000000000E+00 0. -1.
         11   -1    0    0    0    0 -0.00000000000E+00 -0.00000000000E+00 -0.50000000000E+03  0.50000000000E+03  0.00000000000E+00 0. -1.
        -11    1    1    2    0    0 -0.16721264650E+02  0.18827242914E+01  0.39469491373E+03  0.39505343976E+03  0.00000000000E+00 0. -1.
         11    1    1    2    0    0 -0.83525894575E+01 -0.14206733368E+01 -0.49711906570E+03  0.49719126053E+03  0.00000000000E+00 0. -1.
        -15    1    1    2    0    0  0.22690645941E+02 -0.13161802439E+01  0.10213527266E+03  0.10464879070E+03  0.17770000000E+01 0. -1.
         15    1    1    2    0    0  0.23832081661E+01  0.85412928938E+00  0.28887931113E+00  0.31065090154E+01  0.17770000000E+01 0.  1.
</event>
<event>
 6    1  0.1860328E-003  0.5102392E+03  0.7546771E-02  0.9377186E-01
        -11   -1    0    0    0    0  0.00000000000E+00  0.00000000000E+00  0.50000000000E+03  0.50000000000E+03  0.00000000000E+00 0. -1.
         11   -1    0    0    0    0 -0.00000000000E+00 -0.00000000000E+00 -0.50000000000E+03  0.50000000000E+03  0.00000000000E+00 0.  1.
        -11    1    1    2    0    0 -0.21255674648E+01  0.83786262387E+01  0.24150413503E+03  0.24165878145E+03  0.00000000000E+00 0. -1.
         11    1    1    2    0    0  0.39984874735E+02 -0.20926257682E+02 -0.48767703964E+03  0.48976075124E+03  0.00000000000E+00 0.  1.
        -15    1    1    2    0    0 -0.33983133628E+02  0.19742204684E+02  0.23655319538E+02  0.45905771843E+02  0.17770000000E+01 0.  1.
         15    1    1    2    0    0 -0.38761736413E+01 -0.71945732413E+01  0.22251758507E+03  0.22267469547E+03  0.17770000000E+01 0. -1.
</event>
<event>
 6    1  0.1860328E-003  0.5010365E+03  0.7546771E-02  0.9397494E-01
        -11   -1    0    0    0    0  0.00000000000E+00  0.00000000000E+00  0.50000000000E+03  0.50000000000E+03  0.00000000000E+00 0.  1.
         11   -1    0    0    0    0 -0.00000000000E+00 -0.00000000000E+00 -0.50000000000E+03  0.50000000000E+03  0.00000000000E+00 0.  1.
        -11    1    1    2    0    0  0.27378024521E+02  0.12624815501E+01  0.49821025364E+03  0.49896353266E+03  0.00000000000E+00 0.  1.
         11    1    1    2    0    0  0.18988556458E+01 -0.12842964241E+01 -0.92013041746E+02  0.92041593432E+02  0.00000000000E+00 0.  1.
        -15    1    1    2    0    0 -0.16468833077E+02  0.74862251396E+01 -0.65637720786E+02  0.68108253162E+02  0.17770000000E+01 0. -1.
         15    1    1    2    0    0 -0.12808047089E+02 -0.74644102656E+01 -0.34055949111E+03  0.34088662075E+03  0.17770000000E+01 0.  1.
</event>
<event>
 6    1  0.1860328E-003  0.5005096E+03  0.7546771E-02  0.9398670E-01
        -11   -1    0    0    0    0  0.00000000000E+00  0.00000000000E+00  0.50000000000E+03  0.50000000000E+03  0.00000000000E+00 0.  1.
         11   -1    0    0    0    0 -0.00000000000E+00 -0.00000000000E+00 -0.50000000000E+03  0.50000000000E+03  0.00000000000E+00 0. -1.
        -11    1    1    2    0    0 -0.87209031027E+01  0.64473105195E+01  0.22859374158E+03  0.22885086990E+03  0.00000000000E+00 0.  1.
         11    1    1    2    0    0  0.46462684954E+01 -0.18576344012E+02 -0.49912326148E+03  0.49949043887E+03  0.00000000000E+00 0. -1.
        -15    1    1    2    0    0  0.16248163813E+01 -0.58105202194E+01  0.53645210086E+02  0.54012669511E+02  0.17770000000E+01 0.  1.
         15    1    1    2    0    0  0.24498182260E+01  0.17939553711E+02  0.21688430982E+03  0.21764602172E+03  0.17770000000E+01 0. -1.
</event>
<event>
 6    1  0.1860328E-003  0.5000958E+03  0.7546771E-02  0.9399595E-01
        -11   -1    0    0    0    0  0.00000000000E+00  0.00000000000E+00  0.50000000000E+03  0.50000000000E+03  0.00000000000E+00 0.  1.
         11   -1    0    0    0    0 -0.00000000000E+00 -0.00000000000E+00 -0.50000000000E+03  0.50000000000E+03  0.00000000000E+00 0. -1.
        -11    1    1    2    0    0  0.43329747465E+01 -0.61975188543E+01  0.49984701903E+03  0.49990421716E+03  0.00000000000E+00 0.  1.
         11    1    1    2    0    0 -0.20346684099E+01 -0.14810331181E+01 -0.94579742295E+02  0.94613217825E+02  0.00000000000E+00 0. -1.
        -15    1    1    2    0    0 -0.18079875922E+01  0.11269408131E+01 -0.24845038610E+02  0.24999449739E+02  0.17770000000E+01 0.  1.
         15    1    1    2    0    0 -0.49031874448E+00  0.65516111594E+01 -0.38042223812E+03  0.38048311527E+03  0.17770000000E+01 0. -1.
</event>
<event>
 6    1  0.1860328E-003  0.4748372E+03  0.7546771E-02  0.9457943E-01
        -11   -1    0    0    0    0  0.00000000000E+00  0.00000000000E+00  0.50000000000E+03  0.50000000000E+03  0.00000000000E+00 0. -1.
         11   -1    0    0    0    0 -0.00000000000E+00 -0.00000000000E+00 -0.50000000000E+03  0.50000000000E+03  0.00000000000E+00 0. -1.
        -11    1    1    2    0    0 -0.71030627572E+01  0.14567980010E+01  0.47988871460E+03  0.47994349059E+03  0.00000000000E+00 0. -1.
         11    1    1    2    0    0 -0.98105254163E+01  0.12895403057E+02 -0.46976450366E+03  0.47004385617E+03  0.00000000000E+00 0. -1.
        -15    1    1    2    0    0  0.36181142091E+01  0.50203153640E+01  0.14540116151E+02  0.15901793089E+02  0.17770000000E+01 0. -1.
         15    1    1    2    0    0  0.13295473964E+02 -0.19372516422E+02 -0.24664327086E+02  0.34110860149E+02  0.17770000000E+01 0.  1.
</event>
<event>
 6    1  0.1860328E-003  0.5048007E+03  0.7546771E-02  0.9389131E-01
        -11   -1    0    0    0    0  0.00000000000E+00  0.00000000000E+00  0.50000000000E+03  0.50000000000E+03  0.00000000000E+00 0. -1.
         11   -1    0    0    0    0 -0.00000000000E+00 -0.00000000000E+00 -0.50000000000E+03  0.50000000000E+03  0.00000000000E+00 0.  1.
        -11    1    1    2    0    0  0.60941881611E+01 -0.29356260836E+01  0.47816182566E+03  0.47820967007E+03  0.00000000000E+00 0. -1.
         11    1    1    2    0    0 -0.19634266820E+01  0.12457328790E+02 -0.49503867465E+03  0.49519928260E+03  0.00000000000E+00 0.  1.
        -15    1    1    2    0    0 -0.34586433511E+01 -0.98622320283E+01  0.10567629527E+01  0.10653652489E+02  0.17770000000E+01 0.  1.
         15    1    1    2    0    0 -0.67211812794E+00  0.34052932212E+00  0.15820086037E+02  0.15937394838E+02  0.17770000000E+01 0. -1.
</event>
<event>
 6    1  0.1860328E-003  0.5089237E+03  0.7546771E-02  0.9380061E-01
        -11   -1    0    0    0    0  0.00000000000E+00  0.00000000000E+00  0.50000000000E+03  0.50000000000E+03  0.00000000000E+00 0.  1.
         11   -1    0    0    0    0 -0.00000000000E+00 -0.00000000000E+00 -0.50000000000E+03  0.50000000000E+03  0.00000000000E+00 0. -1.
        -11    1    1    2    0    0  0.34567293581E+01 -0.62097993910E+01  0.49102490755E+03  0.49107633869E+03  0.00000000000E+00 0.  1.
         11    1    1    2    0    0  0.66518216534E+01 -0.22302929297E+01 -0.45194801082E+03  0.45200246174E+03  0.00000000000E+00 0. -1.
        -15    1    1    2    0    0 -0.41443841921E+01  0.24087761579E+02 -0.24423069362E+02  0.34598269094E+02  0.17770000000E+01 0. -1.
         15    1    1    2    0    0 -0.59641668194E+01 -0.15647669258E+02 -0.14653827373E+02  0.22322930469E+02  0.17770000000E+01 0.  1.
</event>
<event>
 6    1  0.1860328E-003  0.4691134E+03  0.7546771E-02  0.9471703E-01
        -11   -1    0    0    0    0  0.00000000000E+00  0.00000000000E+00  0.50000000000E+03  0.50000000000E+03  0.00000000000E+00 0.  1.
         11   -1    0    0    0    0 -0.00000000000E+00 -0.00000000000E+00 -0.50000000000E+03  0.50000000000E+03  0.00000000000E+00 0.  1.
        -11    1    1    2    0    0 -0.68845086004E+01 -0.18898976960E+02  0.46304800602E+03  0.46348465310E+03  0.00000000000E+00 0.  1.
         11    1    1    2    0    0  0.11551640599E+02 -0.59370120522E+01 -0.47498067996E+03  0.47515822085E+03  0.00000000000E+00 0.  1.
        -15    1    1    2    0    0  0.39839290151E+01  0.11607545623E+02  0.32830822348E+02  0.35094549874E+02  0.17770000000E+01 0. -1.
         15    1    1    2    0    0 -0.86510610139E+01  0.13228443389E+02 -0.20898148406E+02  0.26262576167E+02  0.17770000000E+01 0.  1.
</event>
<event>
 6    1  0.1860328E-003  0.5020107E+03  0.7546771E-02  0.9395322E-01
        -11   -1    0    0    0    0  0.00000000000E+00  0.00000000000E+00  0.50000000000E+03  0.50000000000E+03  0.00000000000E+00 0.  1.
         11   -1    0    0    0    0 -0.00000000000E+00 -0.00000000000E+00 -0.50000000000E+03  0.50000000000E+03  0.00000000000E+00 0. -1.
        -11    1    1    2    0    0  0.76098747536E+00 -0.44975421998E+01  0.27138087121E+03  0.27141920390E+03  0.00000000000E+00 0.  1.
         11    1    1    2    0    0  0.20756352721E+02  0.41178285494E+01 -0.49753950612E+03  0.49798929992E+03  0.00000000000E+00 0. -1.
        -15    1    1    2    0    0  0.48394839167E+01  0.33462298390E+01  0.14621444452E+03  0.14634356622E+03  0.17770000000E+01 0.  1.
         15    1    1    2    0    0 -0.26356824113E+02 -0.29665161886E+01  0.79944190388E+02  0.84247929953E+02  0.17770000000E+01 0. -1.
</event>
<event>
 6    1  0.1860328E-003  0.4843692E+03  0.7546771E-02  0.9435480E-01
        -11   -1    0    0    0    0  0.00000000000E+00  0.00000000000E+00  0.50000000000E+03  0.50000000000E+03  0.00000000000E+00 0. -1.
         11   -1    0    0    0    0 -0.00000000000E+00 -0.00000000000E+00 -0.50000000000E+03  0.50000000000E+03  0.00000000000E+00 0.  1.
        -11    1    1    2    0    0 -0.73406173881E+01 -0.74468852217E+01  0.48306802954E+03  0.48318118954E+03  0.00000000000E+00 0. -1.
         11    1    1    2    0    0  0.88364311420E+01 -0.14925530599E+01 -0.48552004766E+03  0.48560274599E+03  0.00000000000E+00 0.  1.
        -15    1    1    2    0    0  0.72175433903E+01  0.80974984326E+01  0.13241254628E+02  0.17209037352E+02  0.17770000000E+01 0. -1.
         15    1    1    2    0    0 -0.87133571443E+01  0.84193984908E+00 -0.10789236506E+02  0.14007027123E+02  0.17770000000E+01 0. -1.
</event>
<event>
 6    1  0.1860328E-003  0.5022614E+03  0.7546771E-02  0.9394764E-01
        -11   -1    0    0    0    0  0.00000000000E+00  0.00000000000E+00  0.50000000000E+03  0.50000000000E+03  0.00000000000E+00 0.  1.
         11   -1    0    0    0    0 -0.00000000000E+00 -0.00000000000E+00 -0.50000000000E+03  0.50000000000E+03  0.00000000000E+00 0. -1.
        -11    1    1    2    0    0 -0.38488186747E+01 -0.86215723734E+01  0.38887017229E+03  0.38898477581E+03  0.00000000000E+00 0.  1.
         11    1    1    2    0    0 -0.14163201798E+02 -0.55560093489E+01 -0.49750600885E+03  0.49773858035E+03  0.00000000000E+00 0. -1.
        -15    1    1    2    0    0  0.14480786238E+01  0.66642378993E+01  0.71916805206E+02  0.72261286998E+02  0.17770000000E+01 0. -1.
         15    1    1    2    0    0  0.16563941848E+02  0.75133438230E+01  0.36719031355E+02  0.41015356851E+02  0.17770000000E+01 0.  1.
</event>
<event>
 6    1  0.1860328E-003  0.4870997E+03  0.7546771E-02  0.9429147E-01
        -11   -1    0    0    0    0  0.00000000000E+00  0.00000000000E+00  0.50000000000E+03  0.50000000000E+03  0.00000000000E+00 0. -1.
         11   -1    0    0    0    0 -0.00000000000E+00 -0.00000000000E+00 -0.50000000000E+03  0.50000000000E+03  0.00000000000E+00 0.  1.
        -11    1    1    2    0    0 -0.51056986299E+01  0.53258610916E+01  0.49065265130E+03  0.49070811811E+03  0.00000000000E+00 0. -1.
         11    1    1    2    0    0  0.74585439128E+01  0.74582281220E+01 -0.48348926315E+03  0.48360430377E+03  0.00000000000E+00 0.  1.
        -15    1    1    2    0    0  0.58016863979E+01 -0.63220933827E+01  0.45884934138E+01  0.98914321818E+01  0.17770000000E+01 0.  1.
         15    1    1    2    0    0 -0.81545316808E+01 -0.64619958309E+01 -0.11751881570E+02  0.15796145938E+02  0.17770000000E+01 0.  1.
</event>
<event>
 6    1  0.1860328E-003  0.5173510E+03  0.7546771E-02  0.9361801E-01
        -11   -1    0    0    0    0  0.00000000000E+00  0.00000000000E+00  0.50000000000E+03  0.50000000000E+03  0.00000000000E+00 0. -1.
         11   -1    0    0    0    0 -0.00000000000E+00 -0.00000000000E+00 -0.50000000000E+03  0.50000000000E+03  0.00000000000E+00 0.  1.
        -11    1    1    2    0    0 -0.61027111308E+01 -0.11406708770E+02  0.48247563911E+03  0.48264904270E+03  0.00000000000E+00 0. -1.
         11    1    1    2    0    0 -0.85921513021E+00 -0.18297779101E+02 -0.45957230386E+03  0.45993722337E+03  0.00000000000E+00 0.  1.
        -15    1    1    2    0    0  0.34113095567E+01 -0.22868838132E+01  0.10242124499E+02  0.11177017210E+02  0.17770000000E+01 0. -1.
         15    1    1    2    0    0  0.35506167044E+01  0.31991371684E+02 -0.33145459754E+02  0.46236716714E+02  0.17770000000E+01 0.  1.
</event>
<event>
 6    1  0.1860328E-003  0.5030034E+03  0.7546771E-02  0.9393114E-01
        -11   -1    0    0    0    0  0.00000000000E+00  0.00000000000E+00  0.50000000000E+03  0.50000000000E+03  0.00000000000E+00 0. -1.
         11   -1    0    0    0    0 -0.00000000000E+00 -0.00000000000E+00 -0.50000000000E+03  0.50000000000E+03  0.00000000000E+00 0. -1.
        -11    1    1    2    0    0  0.65140062733E+01 -0.11889989655E+02  0.16792860883E+03  0.16847498864E+03  0.00000000000E+00 0. -1.
         11    1    1    2    0    0  0.13679582565E+02 -0.15066924928E+01 -0.49680601161E+03  0.49699659383E+03  0.00000000000E+00 0. -1.
        -15    1    1    2    0    0 -0.67219273833E+01  0.38706272047E+01  0.30683184500E+03  0.30693501739E+03  0.17770000000E+01 0. -1.
         15    1    1    2    0    0 -0.13471661455E+02  0.95260549428E+01  0.22045557777E+02  0.27593400150E+02  0.17770000000E+01 0.  1.
</event>
<event>
 6    1  0.1860328E-003  0.5011858E+03  0.7546771E-02  0.9397160E-01
        -11   -1    0    0    0    0  0.00000000000E+00  0.00000000000E+00  0.50000000000E+03  0.50000000000E+03  0.00000000000E+00 0. -1.
         11   -1    0    0    0    0 -0.00000000000E+00 -0.00000000000E+00 -0.50000000000E+03  0.50000000000E+03  0.00000000000E+00 0.  1.
        -11    1    1    2    0    0 -0.21306208523E+01  0.66086916905E+01  0.49876587311E+03  0.49881420442E+03  0.00000000000E+00 0. -1.
         11    1    1    2    0    0  0.60847746279E+01  0.73591315789E+01 -0.41445197313E+03  0.41456196079E+03  0.00000000000E+00 0.  1.
        -15    1    1    2    0    0  0.13374224736E+01 -0.31488861612E+01 -0.46735764358E+01  0.60584014914E+01  0.17770000000E+01 0.  1.
         15    1    1    2    0    0 -0.52915762492E+01 -0.10818937108E+02 -0.79640323546E+02  0.80565433300E+02  0.17770000000E+01 0. -1.
</event>
<event>
 6    1  0.1860328E-003  0.5063654E+03  0.7546771E-02  0.9385678E-01
        -11   -1    0    0    0    0  0.00000000000E+00  0.00000000000E+00  0.50000000000E+03  0.50000000000E+03  0.00000000000E+00 0.  1.
         11   -1    0    0    0    0 -0.00000000000E+00 -0.00000000000E+00 -0.50000000000E+03  0.50000000000E+03  0.00000000000E+00 0. -1.
        -11    1    1    2    0    0 -0.46111303285E+01  0.51183074221E+01  0.46653868621E+03  0.46658954695E+03  0.00000000000E+00 0.  1.
         11    1    1    2    0    0 -0.81999609034E+01 -0.87938198616E+01 -0.49348816771E+03  0.49363462429E+03  0.00000000000E+00 0. -1.
        -15    1    1    2    0    0  0.37917528253E+01 -0.94308641048E+01  0.26103755849E+01  0.10643795232E+02  0.17770000000E+01 0.  1.
         15    1    1    2    0    0  0.90193384067E+01  0.13106376544E+02  0.24339105916E+02  0.29132033523E+02  0.17770000000E+01 0. -1.
</event>
<event>
 6    1  0.1860328E-003  0.5002670E+03  0.7546771E-02  0.9399212E-01
        -11   -1    0    0    0    0  0.00000000000E+00  0.00000000000E+00  0.50000000000E+03  0.50000000000E+03  0.00000000000E+00 0.  1.
         11   -1    0    0    0    0 -0.00000000000E+00 -0.00000000000E+00 -0.50000000000E+03  0.50000000000E+03  0.00000000000E+00 0.  1.
        -11    1    1    2    0    0 -0.82302274177E+01  0.67803788476E+01  0.49961922215E+03  0.49973300604E+03  0.00000000000E+00 0.  1.
         11    1    1    2    0    0 -0.25066407663E+01 -0.92778480340E+00 -0.14090474893E+03  0.14093009722E+03  0.00000000000E+00 0.  1.
        -15    1    1    2    0    0  0.20209860363E+01 -0.34505394733E+01 -0.28694998295E+03  0.28698334629E+03  0.17770000000E+01 0. -1.
         15    1    1    2    0    0  0.87158821477E+01 -0.24020545710E+01 -0.71764490284E+02  0.72353550449E+02  0.17770000000E+01 0.  1.
</event>
<event>
 6    1  0.1860328E-003  0.5123049E+03  0.7546771E-02  0.9372690E-01
        -11   -1    0    0    0    0  0.00000000000E+00  0.00000000000E+00  0.50000000000E+03  0.50000000000E+03  0.00000000000E+00 0. -1.
         11   -1    0    0    0    0 -0.00000000000E+00 -0.00000000000E+00 -0.50000000000E+03  0.50000000000E+03  0.00000000000E+00 0. -1.
        -11    1    1    2    0    0  0.31388307682E+02 -0.52045534430E+00  0.48668364604E+03  0.48769505642E+03  0.00000000000E+00 0. -1.
         11    1    1    2    0    0  0.22033427523E+01 -0.31402855059E+01 -0.21191889269E+03  0.21195361094E+03  0.00000000000E+00 0. -1.
        -15    1    1    2    0    0 -0.36486205122E+01  0.41096919557E+01 -0.26989831415E+03  0.26996010763E+03  0.17770000000E+01 0. -1.
         15    1    1    2    0    0 -0.29943029922E+02 -0.44895110552E+00 -0.48664392002E+01  0.30391225008E+02  0.17770000000E+01 0.  1.
</event>
<event>
 6    1  0.1860328E-003  0.5001480E+03  0.7546771E-02  0.9399479E-01
        -11   -1    0    0    0    0  0.00000000000E+00  0.00000000000E+00  0.50000000000E+03  0.50000000000E+03  0.00000000000E+00 0. -1.
         11   -1    0    0    0    0 -0.00000000000E+00 -0.00000000000E+00 -0.50000000000E+03  0.50000000000E+03  0.00000000000E+00 0.  1.
        -11    1    1    2    0    0  0.44386575932E+01 -0.77422258154E+01  0.49977233922E+03  0.49985201289E+03  0.00000000000E+00 0. -1.
         11    1    1    2    0    0  0.14371090212E+01  0.46228221491E+01 -0.31391229132E+03  0.31394961763E+03  0.00000000000E+00 0.  1.
        -15    1    1    2    0    0 -0.59631509717E+01 -0.58712804135E+00 -0.74234705008E+02  0.74497335828E+02  0.17770000000E+01 0.  1.
         15    1    1    2    0    0  0.87384357276E-01  0.37065317076E+01 -0.11162534289E+03  0.11170103365E+03  0.17770000000E+01 0. -1.
</event>
<event>
 6    1  0.1860328E-003  0.5006962E+03  0.7546771E-02  0.9398253E-01
        -11   -1    0    0    0    0  0.00000000000E+00  0.00000000000E+00  0.50000000000E+03  0.50000000000E+03  0.00000000000E+00 0. -1.
         11   -1    0    0    0    0 -0.00000000000E+00 -0.00000000000E+00 -0.50000000000E+03  0.50000000000E+03  0.00000000000E+00 0. -1.
        -11    1    1    2    0    0 -0.34631933594E+01  0.33291180860E+01  0.30631226258E+03  0.30634992891E+03  0.00000000000E+00 0. -1.
         11    1    1    2    0    0 -0.33172770028E+01  0.14013468188E+02 -0.49909610727E+03  0.49930382125E+03  0.00000000000E+00 0. -1.
        -15    1    1    2    0    0  0.63635218235E+00 -0.14445560617E+01  0.97805644188E+02  0.97834520750E+02  0.17770000000E+01 0.  1.
         15    1    1    2    0    0  0.61441181798E+01 -0.15898030213E+02  0.94978200507E+02  0.96511729098E+02  0.17770000000E+01 0. -1.
</event>
<event>
 6    1  0.1860328E-003  0.5076716E+03  0.7546771E-02  0.9382806E-01
        -11   -1    0    0    0    0  0.00000000000E+00  0.00000000000E+00  0.50000000000E+03  0.50000000000E+03  0.00000000000E+00 0.  1.
         11   -1    0    0    0    0 -0.00000000000E+00 -0.00000000000E+00 -0.50000000000E+03  0.50000000000E+03  0.00000000000E+00 0. -1.
        -11    1    1    2    0    0  0.13073362204E+02 -0.19387684708E+01  0.49215093442E+03  0.49232835981E+03  0.00000000000E+00 0.  1.
         11    1    1    2    0    0 -0.17295507584E+01 -0.83217372042E+01 -0.47706059592E+03  0.47713630635E+03  0.00000000000E+00 0. -1.
        -15    1    1    2    0    0 -0.11703658472E+02 -0.10085583116E+01 -0.34129517375E+00  0.11885580461E+02  0.17770000000E+01 0. -1.
         15    1    1    2    0    0  0.35984702613E+00  0.11269063987E+02 -0.14749043327E+02  0.18649753379E+02  0.17770000000E+01 0.  1.
</event>
<event>
 6    1  0.1860328E-003  0.5116540E+03  0.7546771E-02  0.9374104E-01
        -11   -1    0    0    0    0  0.00000000000E+00  0.00000000000E+00  0.50000000000E+03  0.50000000000E+03  0.00000000000E+00 0.  1.
         11   -1    0    0    0    0 -0.00000000000E+00 -0.00000000000E+00 -0.50000000000E+03  0.50000000000E+03  0.00000000000E+00 0. -1.
        -11    1    1    2    0    0  0.12477127868E+02 -0.10980683848E+02  0.48806310318E+03  0.48834603185E+03  0.00000000000E+00 0.  1.
         11    1    1    2    0    0 -0.43597047443E+01  0.76208419811E+01 -0.42221948651E+03  0.42231076123E+03  0.00000000000E+00 0. -1.
        -15    1    1    2    0    0  0.72124428400E+01 -0.40359758368E+01 -0.70975454692E+02  0.71477138516E+02  0.17770000000E+01 0. -1.
         15    1    1    2    0    0 -0.15329865964E+02  0.73958177038E+01  0.51318380238E+01  0.17866068411E+02  0.17770000000E+01 0.  1.
</event>
<event>
 6    1  0.1860328E-003  0.5008493E+03  0.7546771E-02  0.9397911E-01
        -11   -1    0    0    0    0  0.00000000000E+00  0.00000000000E+00  0.50000000000E+03  0.50000000000E+03  0.00000000000E+00 0. -1.
         11   -1    0    0    0    0 -0.00000000000E+00 -0.00000000000E+00 -0.50000000000E+03  0.50000000000E+03  0.00000000000E+00 0.  1.
        -11    1    1    2    0    0  0.14032640862E+02 -0.46399606309E+01  0.22363637793E+03  0.22412423737E+03  0.00000000000E+00 0. -1.
         11    1    1    2    0    0 -0.94348376263E+01 -0.10522306439E+02 -0.49895061878E+03  0.49915073382E+03  0.00000000000E+00 0.  1.
        -15    1    1    2    0    0 -0.29586843080E+01  0.57370750129E+01  0.24003999762E+03  0.24013335052E+03  0.17770000000E+01 0. -1.
         15    1    1    2    0    0 -0.16391189275E+01  0.94251920567E+01  0.35274243225E+02  0.36591678293E+02  0.17770000000E+01 0.  1.
</event>
<event>
 6    1  0.1860328E-003  0.5185195E+03  0.7546771E-02  0.9359298E-01
        -11   -1    0    0    0    0  0.00000000000E+00  0.00000000000E+00  0.50000000000E+03  0.50000000000E+03  0.00000000000E+00 0.  1.
         11   -1    0    0    0    0 -0.00000000000E+00 -0.00000000000E+00 -0.50000000000E+03  0.50000000000E+03  0.00000000000E+00 0. -1.
        -11    1    1    2    0    0 -0.65749635540E+01 -0.30007407944E+01  0.48142622585E+03  0.48148047263E+03  0.00000000000E+00 0.  1.
         11    1    1    2    0    0 -0.64751511075E+01  0.29332906828E+01 -0.28246079866E+03  0.28255023369E+03  0.00000000000E+00 0. -1.
        -15    1    1    2    0    0  0.13747445708E+02  0.36190647176E+01  0.15706834074E+02  0.21259168812E+02  0.17770000000E+01 0.  1.
         15    1    1    2    0    0 -0.69733104655E+00 -0.35516146060E+01 -0.21467226126E+03  0.21471012487E+03  0.17770000000E+01 0. -1.
</event>
<event>
 6    1  0.1860328E-003  0.5355306E+03  0.7546771E-02  0.9323639E-01
        -11   -1    0    0    0    0  0.00000000000E+00  0.00000000000E+00  0.50000000000E+03  0.50000000000E+03  0.00000000000E+00 0. -1.
         11   -1    0    0    0    0 -0.00000000000E+00 -0.00000000000E+00 -0.50000000000E+03  0.50000000000E+03  0.00000000000E+00 0. -1.
        -11    1    1    2    0    0 -0.43108207770E+01  0.20826013442E+02  0.42720856837E+03  0.42773761455E+03  0.00000000000E+00 0. -1.
         11    1    1    2    0    0  0.83238277032E+01 -0.87196218857E+01 -0.46431289632E+03  0.46446935702E+03  0.00000000000E+00 0. -1.
        -15    1    1    2    0    0 -0.11439708745E+02 -0.36544472966E+02  0.61473295810E+02  0.72446457935E+02  0.17770000000E+01 0. -1.
         15    1    1    2    0    0  0.74267018188E+01  0.24438081410E+02 -0.24368967855E+02  0.35346570502E+02  0.17770000000E+01 0.  1.
</event>
<event>
 6    1  0.1860328E-003  0.5041539E+03  0.7546771E-02  0.9390563E-01
        -11   -1    0    0    0    0  0.00000000000E+00  0.00000000000E+00  0.50000000000E+03  0.50000000000E+03  0.00000000000E+00 0. -1.
         11   -1    0    0    0    0 -0.00000000000E+00 -0.00000000000E+00 -0.50000000000E+03  0.50000000000E+03  0.00000000000E+00 0.  1.
        -11    1    1    2    0    0 -0.62244998544E+01 -0.98193203890E+01  0.42489259620E+03  0.42505162246E+03  0.00000000000E+00 0. -1.
         11    1    1    2    0    0 -0.58431811987E+01 -0.66919540878E+01 -0.49576650039E+03  0.49584609298E+03  0.00000000000E+00 0.  1.
        -15    1    1    2    0    0  0.31386832353E+01 -0.12224382509E+01 -0.14549042024E+01  0.40767834093E+01  0.17770000000E+01 0. -1.
         15    1    1    2    0    0  0.89289978179E+01  0.17733712728E+02  0.72328808400E+02  0.75025501149E+02  0.17770000000E+01 0.  1.
</event>
<event>
 6    1  0.1860328E-003  0.5832007E+03  0.7546771E-02  0.9230755E-01
        -11   -1    0    0    0    0  0.00000000000E+00  0.00000000000E+00  0.50000000000E+03  0.50000000000E+03  0.00000000000E+00 0. -1.
         11   -1    0    0    0    0 -0.00000000000E+00 -0.00000000000E+00 -0.50000000000E+03  0.50000000000E+03  0.00000000000E+00 0.  1.
        -11    1    1    2    0    0 -0.33713212103E+01 -0.29774827575E+02  0.41572078081E+03  0.41679932073E+03  0.00000000000E+00 0. -1.
         11    1    1    2    0    0  0.19259285052E+01 -0.50521208540E+01 -0.32931363819E+03  0.32935802013E+03  0.00000000000E+00 0.  1.
        -15    1    1    2    0    0 -0.19713673118E+02  0.14092775627E+02 -0.16658538205E+03  0.16834809911E+03  0.17770000000E+01 0.  1.
         15    1    1    2    0    0  0.21159065823E+02  0.20734172802E+02  0.80178239430E+02  0.85494560034E+02  0.17770000000E+01 0. -1.
</event>
<event>
 6    1  0.1860328E-003  0.5094024E+03  0.7546771E-02  0.9379013E-01
        -11   -1    0    0    0    0  0.00000000000E+00  0.00000000000E+00  0.50000000000E+03  0.50000000000E+03  0.00000000000E+00 0.  1.
         11   -1    0    0    0    0 -0.00000000000E+00 -0.00000000000E+00 -0.50000000000E+03  0.50000000000E+03  0.00000000000E+00 0.  1.
        -11    1    1    2    0    0 -0.28080868621E+01  0.69891173394E+00  0.14500896133E+03  0.14503783195E+03  0.00000000000E+00 0.  1.
         11    1    1    2    0    0  0.17663732076E+02  0.54650661534E+00 -0.49027920825E+03  0.49059760307E+03  0.00000000000E+00 0.  1.
        -15    1    1    2    0    0 -0.29642350604E+02  0.15215792723E+02  0.21193899846E+02  0.39528830203E+02  0.17770000000E+01 0. -1.
         15    1    1    2    0    0  0.14786705389E+02 -0.16461211073E+02  0.32407634707E+03  0.32483573478E+03  0.17770000000E+01 0.  1.
</event>
<event>
 6    1  0.1860328E-003  0.5006672E+03  0.7546771E-02  0.9398318E-01
        -11   -1    0    0    0    0  0.00000000000E+00  0.00000000000E+00  0.50000000000E+03  0.50000000000E+03  0.00000000000E+00 0. -1.
         11   -1    0    0    0    0 -0.00000000000E+00 -0.00000000000E+00 -0.50000000000E+03  0.50000000000E+03  0.00000000000E+00 0.  1.
        -11    1    1    2    0    0  0.23563205039E+01  0.75619310186E+01  0.49926999974E+03  0.49933282256E+03  0.00000000000E+00 0. -1.
         11    1    1    2    0    0  0.21568559725E+01  0.37911306906E+01 -0.31818837544E+03  0.31821826938E+03  0.00000000000E+00 0.  1.
        -15    1    1    2    0    0 -0.82341143901E+01 -0.63056898480E+01 -0.16084066423E+03  0.16118448859E+03  0.17770000000E+01 0.  1.
         15    1    1    2    0    0  0.37209379138E+01 -0.50473718612E+01 -0.20240960069E+02  0.21264419465E+02  0.17770000000E+01 0. -1.
</event>
<event>
 6    1  0.1860328E-003  0.5120396E+03  0.7546771E-02  0.9373266E-01
        -11   -1    0    0    0    0  0.00000000000E+00  0.00000000000E+00  0.50000000000E+03  0.50000000000E+03  0.00000000000E+00 0. -1.
         11   -1    0    0    0    0 -0.00000000000E+00 -0.00000000000E+00 -0.50000000000E+03  0.50000000000E+03  0.00000000000E+00 0.  1.
        -11    1    1    2    0    0 -0.11676702865E+02  0.43851299742E+01  0.46878039480E+03  0.46894630109E+03  0.00000000000E+00 0. -1.
         11    1    1    2    0    0 -0.81523227812E+01 -0.16937797474E+01 -0.48788934355E+03  0.48796038857E+03  0.00000000000E+00 0.  1.
        -15    1    1    2    0    0  0.14599947564E+02 -0.42720416570E+00 -0.70118437335E+01  0.16299222491E+02  0.17770000000E+01 0. -1.
         15    1    1    2    0    0  0.52290780822E+01 -0.22641460612E+01  0.26120792482E+02  0.26794087853E+02  0.17770000000E+01 0.  1.
</event>
<event>
 6    1  0.1860328E-003  0.5108193E+03  0.7546771E-02  0.9375921E-01
        -11   -1    0    0    0    0  0.00000000000E+00  0.00000000000E+00  0.50000000000E+03  0.50000000000E+03  0.00000000000E+00 0.  1.
         11   -1    0    0    0    0 -0.00000000000E+00 -0.00000000000E+00 -0.50000000000E+03  0.50000000000E+03  0.00000000000E+00 0.  1.
        -11    1    1    2    0    0  0.10187802718E+02 -0.21757972543E+01  0.48906972477E+03  0.48918066305E+03  0.00000000000E+00 0.  1.
         11    1    1    2    0    0  0.30572420400E+01  0.46225137404E+01 -0.12996239966E+03  0.13008051232E+03  0.00000000000E+00 0.  1.
        -15    1    1    2    0    0  0.28585745761E+01 -0.17445880890E+02 -0.35820138072E+03  0.35864176707E+03  0.17770000000E+01 0.  1.
         15    1    1    2    0    0 -0.16103619334E+02  0.14999164403E+02 -0.90594438940E+00  0.22097057557E+02  0.17770000000E+01 0. -1.
</event>
<event>
 6    1  0.1860328E-003  0.5086319E+03  0.7546771E-02  0.9380700E-01
        -11   -1    0    0    0    0  0.00000000000E+00  0.00000000000E+00  0.50000000000E+03  0.50000000000E+03  0.00000000000E+00 0. -1.
         11   -1    0    0    0    0 -0.00000000000E+00 -0.00000000000E+00 -0.50000000000E+03  0.50000000000E+03  0.00000000000E+00 0.  1.
        -11    1    1    2    0    0  0.63722197490E+01 -0.15004025352E+02  0.49109761366E+03  0.49136808209E+03  0.00000000000E+00 0. -1.
         11    1    1    2    0    0  0.14983162996E+01 -0.76581468409E+01 -0.29474710342E+03  0.29485038094E+03  0.00000000000E+00 0.  1.
        -15    1    1    2    0    0  0.37565548531E+01  0.24027866402E+02 -0.89009145939E+01  0.25958314232E+02  0.17770000000E+01 0. -1.
         15    1    1    2    0    0 -0.11627090902E+02 -0.13656942083E+01 -0.18744959564E+03  0.18782322273E+03  0.17770000000E+01 0.  1.
</event>
<event>
 6    1  0.1860328E-003  0.5010319E+03  0.7546771E-02  0.9397504E-01
        -11   -1    0    0    0    0  0.00000000000E+00  0.00000000000E+00  0.50000000000E+03  0.50000000000E+03  0.00000000000E+00 0.  1.
         11   -1    0    0    0    0 -0.00000000000E+00 -0.00000000000E+00 -0.50000000000E+03  0.50000000000E+03  0.00000000000E+00 0. -1.
        -11    1    1    2    0    0  0.81732350752E+01 -0.49873883716E+00  0.49890090332E+03  0.49896809702E+03  0.00000000000E+00 0.  1.
         11    1    1    2    0    0  0.38646078147E+00 -0.62108472486E+01 -0.44304695003E+03  0.44309064976E+03  0.00000000000E+00 0. -1.
        -15    1    1    2    0    0  0.74777364416E+00 -0.18152693509E+01 -0.85978749407E+01  0.89964187727E+01  0.17770000000E+01 0. -1.
         15    1    1    2    0    0 -0.93074695008E+01  0.85248554367E+01 -0.47256078348E+02  0.48944834442E+02  0.17770000000E+01 0. -1.
</event>
<event>
 6    1  0.1860328E-003  0.5014530E+03  0.7546771E-02  0.9396564E-01
        -11   -1    0    0    0    0  0.00000000000E+00  0.00000000000E+00  0.50000000000E+03  0.50000000000E+03  0.00000000000E+00 0.  1.
         11   -1    0    0    0    0 -0.00000000000E+00 -0.00000000000E+00 -0.50000000000E+03  0.50000000000E+03  0.00000000000E+00 0.  1.
        -11    1    1    2    0    0  0.11046908521E+02 -0.12604340493E+02  0.49826518527E+03  0.49854698719E+03  0.00000000000E+00 0.  1.
         11    1    1    2    0    0 -0.60450899541E+01  0.12881594323E+02 -0.38058726058E+03  0.38085317578E+03  0.00000000000E+00 0.  1.
        -15    1    1    2    0    0 -0.68263746339E+01  0.75418425645E+01 -0.19388746466E+02  0.21967248313E+02  0.17770000000E+01 0. -1.
         15    1    1    2    0    0  0.18245560668E+01 -0.78190963954E+01 -0.98289178219E+02  0.98632588718E+02  0.17770000000E+01 0.  1.
</event>
<event>
 6    1  0.1860328E-003  0.5027743E+03  0.7546771E-02  0.9393623E-01
        -11   -1    0    0    0    0  0.00000000000E+00  0.00000000000E+00  0.50000000000E+03  0.50000000000E+03  0.00000000000E+00 0.  1.
         11   -1    0    0    0    0 -0.00000000000E+00 -0.00000000000E+00 -0.50000000000E+03  0.50000000000E+03  0.00000000000E+00 0. -1.
        -11    1    1    2    0    0  0.21862823520E+01 -0.60143699044E+00  0.16238053703E+03  0.16239636807E+03  0.00000000000E+00 0.  1.
         11    1    1    2    0    0  0.30280899031E+01  0.61086446134E+01 -0.49717895630E+03  0.49722570273E+03  0.00000000000E+00 0. -1.
        -15    1    1    2    0    0 -0.70531055639E+01  0.17383789569E+02  0.35472779130E+02  0.40167377635E+02  0.17770000000E+01 0. -1.
         15    1    1    2    0    0  0.18387333088E+01 -0.22890997192E+02  0.29932564014E+03  0.30021055156E+03  0.17770000000E+01 0.  1.
</event>
<event>
 6    1  0.1860328E-003  0.5015063E+03  0.7546771E-02  0.9396446E-01
        -11   -1    0    0    0    0  0.00000000000E+00  0.00000000000E+00  0.50000000000E+03  0.50000000000E+03  0.00000000000E+00 0. -1.
         11   -1    0    0    0    0 -0.00000000000E+00 -0.00000000000E+00 -0.50000000000E+03  0.50000000000E+03  0.00000000000E+00 0.  1.
        -11    1    1    2    0    0 -0.84159104690E+01  0.51565181455E+01  0.28289220612E+03  0.28306433458E+03  0.00000000000E+00 0. -1.
         11    1    1    2    0    0  0.22769613340E+01  0.11723099189E+02 -0.49835067218E+03  0.49849373925E+03  0.00000000000E+00 0.  1.
        -15    1    1    2    0    0 -0.11462621514E+02 -0.57067563929E+01  0.49120402866E+02  0.50793015929E+02  0.17770000000E+01 0.  1.
         15    1    1    2    0    0  0.17601570649E+02 -0.11172860941E+02  0.16633806319E+03  0.16764891024E+03  0.17770000000E+01 0. -1.
</event>
<event>
 6    1  0.1860328E-003  0.5059309E+03  0.7546771E-02  0.9386636E-01
        -11   -1    0    0    0    0  0.00000000000E+00  0.00000000000E+00  0.50000000000E+03  0.50000000000E+03  0.00000000000E+00 0. -1.
         11   -1    0    0    0    0 -0.00000000000E+00 -0.00000000000E+00 -0.50000000000E+03  0.50000000000E+03  0.00000000000E+00 0.  1.
        -11    1    1    2    0    0 -0.73804718785E+01 -0.58553252331E+00  0.49401365423E+03  0.49406912956E+03  0.00000000000E+00 0. -1.
         11    1    1    2    0    0  0.16342669769E+02  0.68548608755E+01 -0.44861572240E+03  0.44896563160E+03  0.00000000000E+00 0.  1.
        -15    1    1    2    0    0 -0.16037317101E+02 -0.12613836275E+02 -0.41982497595E+02  0.46711799780E+02  0.17770000000E+01 0. -1.
         15    1    1    2    0    0  0.70751192109E+01  0.63445079230E+01 -0.34154342377E+01  0.10253439065E+02  0.17770000000E+01 0.  1.
</event>
<event>
 6    1  0.1860328E-003  0.5219537E+03  0.7546771E-02  0.9351984E-01
        -11   -1    0    0    0    0  0.00000000000E+00  0.00000000000E+00  0.50000000000E+03  0.50000000000E+03  0.00000000000E+00 0.  1.
         11   -1    0    0    0    0 -0.00000000000E+00 -0.00000000000E+00 -0.50000000000E+03  0.50000000000E+03  0.00000000000E+00 0.  1.
        -11    1    1    2    0    0 -0.86367214323E+01 -0.73265356042E+00  0.45217178911E+03  0.45225485803E+03  0.00000000000E+00 0.  1.
         11    1    1    2    0    0  0.52056305240E+01  0.22138767185E+02 -0.47750500399E+03  0.47804628692E+03  0.00000000000E+00 0.  1.
        -15    1    1    2    0    0  0.62737915882E+01  0.12843917247E+01  0.41248993682E+02  0.41780944601E+02  0.17770000000E+01 0. -1.
         15    1    1    2    0    0 -0.28427006799E+01 -0.22690505350E+02 -0.15915778804E+02  0.27917910454E+02  0.17770000000E+01 0. -1.
</event>
<event>
 6    1  0.1860328E-003  0.5080037E+03  0.7546771E-02  0.9382077E-01
        -11   -1    0    0    0    0  0.00000000000E+00  0.00000000000E+00  0.50000000000E+03  0.50000000000E+03  0.00000000000E+00 0.  1.
         11   -1    0    0    0    0 -0.00000000000E+00 -0.00000000000E+00 -0.50000000000E+03  0.50000000000E+03  0.00000000000E+00 0.  1.
        -11    1    1    2    0    0  0.56251896039E+01 -0.15421525902E+02  0.49172234767E+03  0.49199627379E+03  0.00000000000E+00 0.  1.
         11    1    1    2    0    0  0.26346476815E+02  0.10295829913E+02 -0.40814747049E+03  0.40912650687E+03  0.00000000000E+00 0.  1.
        -15    1    1    2    0    0 -0.12155898303E+02 -0.12664232789E+02 -0.62288100355E+02  0.64738812397E+02  0.17770000000E+01 0. -1.
         15    1    1    2    0    0 -0.19815768116E+02  0.17789928778E+02 -0.21286776826E+02  0.34138406943E+02  0.17770000000E+01 0.  1.
</event>
<event>
 6    1  0.1860328E-003  0.5014679E+03  0.7546771E-02  0.9396531E-01
        -11   -1    0    0    0    0  0.00000000000E+00  0.00000000000E+00  0.50000000000E+03  0.50000000000E+03  0.00000000000E+00 0.  1.
         11   -1    0    0    0    0 -0.00000000000E+00 -0.00000000000E+00 -0.50000000000E+03  0.50000000000E+03  0.00000000000E+00 0.  1.
        -11    1    1    2    0    0 -0.18365549598E+02  0.28688524553E+01  0.42998301725E+03  0.43038461734E+03  0.00000000000E+00 0.  1.
         11    1    1    2    0    0  0.66004464138E+01  0.30931450132E+01 -0.49847879588E+03  0.49853208862E+03  0.00000000000E+00 0.  1.
        -15    1    1    2    0    0 -0.15686715369E+01 -0.29610516027E+01  0.29102309364E+02  0.29348436011E+02  0.17770000000E+01 0.  1.
         15    1    1    2    0    0  0.13333774721E+02 -0.30009458658E+01  0.39393469272E+02  0.41734858028E+02  0.17770000000E+01 0. -1.
</event>
<event>
 6    1  0.1860328E-003  0.5056416E+03  0.7546771E-02  0.9387274E-01
        -11   -1    0    0    0    0  0.00000000000E+00  0.00000000000E+00  0.50000000000E+03  0.50000000000E+03  0.00000000000E+00 0. -1.
         11   -1    0    0    0    0 -0.00000000000E+00 -0.00000000000E+00 -0.50000000000E+03  0.50000000000E+03  0.00000000000E+00 0. -1.
        -11    1    1    2    0    0  0.80420681965E+01 -0.94731220805E+00  0.23374179291E+03  0.23388201729E+03  0.00000000000E+00 0. -1.
         11    1    1    2    0    0 -0.13159931054E+02  0.29637681335E+02 -0.49329370782E+03  0.49435843081E+03  0.00000000000E+00 0. -1.
        -15    1    1    2    0    0 -0.56629952615E+01  0.70972406446E+00  0.22505997274E+03  0.22513933970E+03  0.17770000000E+01 0. -1.
         15    1    1    2    0    0  0.10780858119E+02 -0.29400093192E+02  0.34491942167E+02  0.46620212193E+02  0.17770000000E+01 0.  1.
</event>
<event>
 6    1  0.1860328E-003  0.5055244E+03  0.7546771E-02  0.9387533E-01
        -11   -1    0    0    0    0  0.00000000000E+00  0.00000000000E+00  0.50000000000E+03  0.50000000000E+03  0.00000000000E+00 0.  1.
         11   -1    0    0    0    0 -0.00000000000E+00 -0.00000000000E+00 -0.50000000000E+03  0.50000000000E+03  0.00000000000E+00 0. -1.
        -11    1    1    2    0    0 -0.47034439742E+01 -0.32265425067E+00  0.27681487051E+03  0.27685501445E+03  0.00000000000E+00 0.  1.
         11    1    1    2    0    0  0.14196457426E+02 -0.50874522642E+01 -0.49424557704E+03  0.49447559292E+03  0.00000000000E+00 0. -1.
        -15    1    1    2    0    0 -0.83705776103E+01  0.88104387005E+00 -0.22820550786E+01  0.88999051800E+01  0.17770000000E+01 0. -1.
         15    1    1    2    0    0 -0.11224358413E+01  0.45290626448E+01  0.21971276160E+03  0.21976948744E+03  0.17770000000E+01 0.  1.
</event>
<event>
 6    1  0.1860328E-003  0.5070771E+03  0.7546771E-02  0.9384112E-01
        -11   -1    0    0    0    0  0.00000000000E+00  0.00000000000E+00  0.50000000000E+03  0.50000000000E+03  0.00000000000E+00 0. -1.
         11   -1    0    0    0    0 -0.00000000000E+00 -0.00000000000E+00 -0.50000000000E+03  0.50000000000E+03  0.00000000000E+00 0. -1.
        -11    1    1    2    0    0  0.51879032378E+01 -0.60897276136E+01  0.45438644840E+03  0.45445686662E+03  0.00000000000E+00 0. -1.
         11    1    1    2    0    0  0.10865877548E+02  0.27377107296E+02 -0.49204211529E+03  0.49292293162E+03  0.00000000000E+00 0. -1.
        -15    1    1    2    0    0 -0.21512440963E+02 -0.94816504899E+01  0.25504835875E+02  0.34732422809E+02  0.17770000000E+01 0.  1.
         15    1    1    2    0    0  0.54586601770E+01 -0.11805729193E+02  0.12150831011E+02  0.17887778956E+02  0.17770000000E+01 0. -1.
</event>
<event>
 6    1  0.1860328E-003  0.3973627E+03  0.7546771E-02  0.9664225E-01
        -11   -1    0    0    0    0  0.00000000000E+00  0.00000000000E+00  0.50000000000E+03  0.50000000000E+03  0.00000000000E+00 0. -1.
         11   -1    0    0    0    0 -0.00000000000E+00 -0.00000000000E+00 -0.50000000000E+03  0.50000000000E+03  0.00000000000E+00 0.  1.
        -11    1    1    2    0    0 -0.14857792438E+01  0.83094966201E+01  0.44299676915E+03  0.44307718600E+03  0.00000000000E+00 0. -1.
         11    1    1    2    0    0  0.26962035823E+02 -0.18048294815E+02 -0.10950381567E+03  0.11420936025E+03  0.00000000000E+00 0.  1.
        -15    1    1    2    0    0 -0.78449140333E+02  0.23420144088E+02  0.20578301283E+02  0.84435744687E+02  0.17770000000E+01 0. -1.
         15    1    1    2    0    0  0.52972883754E+02 -0.13681345893E+02 -0.35407125476E+03  0.35827770907E+03  0.17770000000E+01 0.  1.
</event>
<event>
 6    1  0.1860328E-003  0.5032695E+03  0.7546771E-02  0.9392524E-01
        -11   -1    0    0    0    0  0.00000000000E+00  0.00000000000E+00  0.50000000000E+03  0.50000000000E+03  0.00000000000E+00 0.  1.
         11   -1    0    0    0    0 -0.00000000000E+00 -0.00000000000E+00 -0.50000000000E+03  0.50000000000E+03  0.00000000000E+00 0. -1.
        -11    1    1    2    0    0 -0.12946418963E+02  0.73646076652E+01  0.45268460497E+03  0.45292957377E+03  0.00000000000E+00 0.  1.
         11    1    1    2    0    0  0.73978639279E+01  0.39807940572E+01 -0.49665947738E+03  0.49673052210E+03  0.00000000000E+00 0. -1.
        -15    1    1    2    0    0 -0.60026749114E+01 -0.34735814974E+01  0.45753727470E+01  0.84964486278E+01  0.17770000000E+01 0.  1.
         15    1    1    2    0    0  0.11551229947E+02 -0.78718202250E+01  0.39399499656E+02  0.41843455511E+02  0.17770000000E+01 0.  1.
</event>
<event>
 6    1  0.1860328E-003  0.5078994E+03  0.7546771E-02  0.9382306E-01
        -11   -1    0    0    0    0  0.00000000000E+00  0.00000000000E+00  0.50000000000E+03  0.50000000000E+03  0.00000000000E+00 0. -1.
         11   -1    0    0    0    0 -0.00000000000E+00 -0.00000000000E+00 -0.50000000000E+03  0.50000000000E+03  0.00000000000E+00 0. -1.
        -11    1    1    2    0    0  0.29082495610E+00  0.96458391362E+01  0.31268842964E+03  0.31283730727E+03  0.00000000000E+00 0. -1.
         11    1    1    2    0    0 -0.16714862413E+02 -0.28479655706E+02 -0.49099140545E+03  0.49210063771E+03  0.00000000000E+00 0. -1.
        -15    1    1    2    0    0  0.19424496505E+02  0.26018514077E+02  0.23664310031E+02  0.40217302713E+02  0.17770000000E+01 0. -1.
         15    1    1    2    0    0 -0.30004590486E+01 -0.71846975075E+01  0.15463866578E+03  0.15484475230E+03  0.17770000000E+01 0.  1.
</event>
<event>
 6    1  0.1860328E-003  0.5109841E+03  0.7546771E-02  0.9375562E-01
        -11   -1    0    0    0    0  0.00000000000E+00  0.00000000000E+00  0.50000000000E+03  0.50000000000E+03  0.00000000000E+00 0.  1.
         11   -1    0    0    0    0 -0.00000000000E+00 -0.00000000000E+00 -0.50000000000E+03  0.50000000000E+03  0.00000000000E+00 0.  1.
        -11    1    1    2    0    0  0.76131164402E+01 -0.13959326560E+02  0.42515131767E+03  0.42544854595E+03  0.00000000000E+00 0.  1.
         11    1    1    2    0    0 -0.71829280955E+01 -0.20025833655E+02 -0.48855286341E+03  0.48901587788E+03  0.00000000000E+00 0.  1.
        -15    1    1    2    0    0 -0.94452879544E+01  0.29360838333E+02  0.12044872174E+02  0.33158844474E+02  0.17770000000E+01 0. -1.
         15    1    1    2    0    0  0.90150996098E+01  0.46243218817E+01  0.51356673570E+02  0.52376731695E+02  0.17770000000E+01 0.  1.
</event>
<event>
 6    1  0.1860328E-003  0.5112342E+03  0.7546771E-02  0.9375017E-01
        -11   -1    0    0    0    0  0.00000000000E+00  0.00000000000E+00  0.50000000000E+03  0.50000000000E+03  0.00000000000E+00 0. -1.
         11   -1    0    0    0    0 -0.00000000000E+00 -0.00000000000E+00 -0.50000000000E+03  0.50000000000E+03  0.00000000000E+00 0.  1.
        -11    1    1    2    0    0 -0.10629865478E+02 -0.82323548618E+01  0.47355894878E+03  0.47374976905E+03  0.00000000000E+00 0. -1.
         11    1    1    2    0    0 -0.90499138145E+01  0.97055062181E+01 -0.48858557289E+03  0.48876575149E+03  0.00000000000E+00 0.  1.
        -15    1    1    2    0    0  0.14473389701E+02  0.24435114212E+01  0.22808161037E+02  0.27181237948E+02  0.17770000000E+01 0.  1.
         15    1    1    2    0    0  0.52063895919E+01 -0.39166627774E+01 -0.77815369223E+01  0.10303241518E+02  0.17770000000E+01 0. -1.
</event>
<event>
 6    1  0.1860328E-003  0.5055808E+03  0.7546771E-02  0.9387408E-01
        -11   -1    0    0    0    0  0.00000000000E+00  0.00000000000E+00  0.50000000000E+03  0.50000000000E+03  0.00000000000E+00 0. -1.
         11   -1    0    0    0    0 -0.00000000000E+00 -0.00000000000E+00 -0.50000000000E+03  0.50000000000E+03  0.00000000000E+00 0.  1.
        -11    1    1    2    0    0  0.10976743276E+01 -0.87048923193E+01  0.44417504448E+03  0.44426169110E+03  0.00000000000E+00 0. -1.
         11    1    1    2    0    0  0.12814436197E+02  0.10143636625E+02 -0.49414901587E+03  0.49441920778E+03  0.00000000000E+00 0.  1.
        -15    1    1    2    0    0 -0.10541019805E+02 -0.13825549556E+02  0.12012817119E+02  0.21206707033E+02  0.17770000000E+01 0. -1.
         15    1    1    2    0    0 -0.33710907188E+01  0.12386805250E+02  0.37961154273E+02  0.40112394091E+02  0.17770000000E+01 0.  1.
</event>
<event>
 6    1  0.1860328E-003  0.5010049E+03  0.7546771E-02  0.9397564E-01
        -11   -1    0    0    0    0  0.00000000000E+00  0.00000000000E+00  0.50000000000E+03  0.50000000000E+03  0.00000000000E+00 0. -1.
         11   -1    0    0    0    0 -0.00000000000E+00 -0.00000000000E+00 -0.50000000000E+03  0.50000000000E+03  0.00000000000E+00 0.  1.
        -11    1    1    2    0    0 -0.54977766433E+01 -0.26932044145E+01  0.29436827545E+03  0.29443192845E+03  0.00000000000E+00 0. -1.
         11    1    1    2    0    0 -0.12067055187E+02  0.39096736769E+01 -0.49883389494E+03  0.49899514438E+03  0.00000000000E+00 0.  1.
        -15    1    1    2    0    0 -0.50046810363E+00  0.85961537183E+01  0.62645217456E+02  0.63259191634E+02  0.17770000000E+01 0.  1.
         15    1    1    2    0    0  0.18065299934E+02 -0.98126229807E+01  0.14182040204E+03  0.14331373554E+03  0.17770000000E+01 0. -1.
</event>
<event>
 6    1  0.1860328E-003  0.5701162E+03  0.7546771E-02  0.9255287E-01
        -11   -1    0    0    0    0  0.00000000000E+00  0.00000000000E+00  0.50000000000E+03  0.50000000000E+03  0.00000000000E+00 0.  1.
         11   -1    0    0    0    0 -0.00000000000E+00 -0.00000000000E+00 -0.50000000000E+03  0.50000000000E+03  0.00000000000E+00 0. -1.
        -11    1    1    2    0    0 -0.19624823496E+02  0.60226303742E+01  0.25949222245E+03  0.26030293753E+03  0.00000000000E+00 0.  1.
         11    1    1    2    0    0  0.16775811317E+01 -0.27349146897E+02 -0.42900962554E+03  0.42988376210E+03  0.00000000000E+00 0. -1.
        -15    1    1    2    0    0  0.15453872946E+02 -0.51952697869E+01  0.23683118036E+03  0.23739835454E+03  0.17770000000E+01 0.  1.
         15    1    1    2    0    0  0.24933694181E+01  0.26521786310E+02 -0.67313777274E+02  0.72414945833E+02  0.17770000000E+01 0.  1.
</event>
<event>
 6    1  0.1860328E-003  0.5008291E+03  0.7546771E-02  0.9397956E-01
        -11   -1    0    0    0    0  0.00000000000E+00  0.00000000000E+00  0.50000000000E+03  0.50000000000E+03  0.00000000000E+00 0. -1.
         11   -1    0    0    0    0 -0.00000000000E+00 -0.00000000000E+00 -0.50000000000E+03  0.50000000000E+03  0.00000000000E+00 0.  1.
        -11    1    1    2    0    0 -0.19201138578E+00 -0.20658240089E+01  0.30529286149E+02  0.30599702776E+02  0.00000000000E+00 0. -1.
         11    1    1    2    0    0  0.12164411645E+02  0.13535590805E+02 -0.49883907329E+03  0.49917091880E+03  0.00000000000E+00 0.  1.
        -15    1    1    2    0    0 -0.10067311723E+02  0.50806717459E+01  0.38908331060E+03  0.38925074735E+03  0.17770000000E+01 0. -1.
         15    1    1    2    0    0 -0.19050885365E+01 -0.16550438542E+02  0.79226476537E+02  0.80978631081E+02  0.17770000000E+01 0.  1.
</event>
<event>
 6    1  0.1860328E-003  0.5009508E+03  0.7546771E-02  0.9397685E-01
        -11   -1    0    0    0    0  0.00000000000E+00  0.00000000000E+00  0.50000000000E+03  0.50000000000E+03  0.00000000000E+00 0.  1.
         11   -1    0    0    0    0 -0.00000000000E+00 -0.00000000000E+00 -0.50000000000E+03  0.50000000000E+03  0.00000000000E+00 0.  1.
        -11    1    1    2    0    0 -0.93811883769E+01 -0.78577786305E+01  0.49889913213E+03  0.49904919139E+03  0.00000000000E+00 0.  1.
         11    1    1    2    0    0  0.63834515683E+01 -0.49386118383E+01 -0.40537520673E+03  0.40545554204E+03  0.00000000000E+00 0.  1.
        -15    1    1    2    0    0  0.61744863377E+00  0.18362614298E+01 -0.60805241838E+02  0.60862042874E+02  0.17770000000E+01 0.  1.
         15    1    1    2    0    0  0.23802881749E+01  0.10960129039E+02 -0.32718683571E+02  0.34633223701E+02  0.17770000000E+01 0. -1.
</event>
<event>
 6    1  0.1860328E-003  0.5133884E+03  0.7546771E-02  0.9370341E-01
        -11   -1    0    0    0    0  0.00000000000E+00  0.00000000000E+00  0.50000000000E+03  0.50000000000E+03  0.00000000000E+00 0.  1.
         11   -1    0    0    0    0 -0.00000000000E+00 -0.00000000000E+00 -0.50000000000E+03  0.50000000000E+03  0.00000000000E+00 0.  1.
        -11    1    1    2    0    0  0.30958803772E+02  0.30335928756E+02  0.37722170750E+03  0.37970374335E+03  0.00000000000E+00 0.  1.
         11    1    1    2    0    0  0.10130117968E+02  0.13591775816E+02 -0.48631624071E+03  0.48661159217E+03  0.00000000000E+00 0.  1.
        -15    1    1    2    0    0 -0.22228563460E+02 -0.55075170106E+01  0.76452656809E+02  0.79828617922E+02  0.17770000000E+01 0. -1.
         15    1    1    2    0    0 -0.18860358280E+02 -0.38420187561E+02  0.32641876400E+02  0.53856046555E+02  0.17770000000E+01 0.  1.
</event>
<event>
 6    1  0.1860328E-003  0.5009709E+03  0.7546771E-02  0.9397640E-01
        -11   -1    0    0    0    0  0.00000000000E+00  0.00000000000E+00  0.50000000000E+03  0.50000000000E+03  0.00000000000E+00 0.  1.
         11   -1    0    0    0    0 -0.00000000000E+00 -0.00000000000E+00 -0.50000000000E+03  0.50000000000E+03  0.00000000000E+00 0. -1.
        -11    1    1    2    0    0  0.12612958712E+01 -0.40912505291E+01  0.31304092184E+03  0.31307019651E+03  0.00000000000E+00 0.  1.
         11    1    1    2    0    0 -0.48669575296E+01 -0.10088688242E+02 -0.49890341891E+03  0.49902914775E+03  0.00000000000E+00 0. -1.
        -15    1    1    2    0    0  0.80146258842E+01  0.13575889059E+02  0.63759073384E+02  0.65703243144E+02  0.17770000000E+01 0.  1.
         15    1    1    2    0    0 -0.44089642259E+01  0.60404971215E+00  0.12210342368E+03  0.12219741259E+03  0.17770000000E+01 0.  1.
</event>
<event>
 6    1  0.1860328E-003  0.4727744E+03  0.7546771E-02  0.9462878E-01
        -11   -1    0    0    0    0  0.00000000000E+00  0.00000000000E+00  0.50000000000E+03  0.50000000000E+03  0.00000000000E+00 0.  1.
         11   -1    0    0    0    0 -0.00000000000E+00 -0.00000000000E+00 -0.50000000000E+03  0.50000000000E+03  0.00000000000E+00 0.  1.
        -11    1    1    2    0    0 -0.71986840121E+01 -0.45205165581E+01  0.46934129703E+03  0.46941826682E+03  0.00000000000E+00 0.  1.
         11    1    1    2    0    0  0.31902966889E+01 -0.13403836500E+02 -0.47613403123E+03  0.47633334601E+03  0.00000000000E+00 0.  1.
        -15    1    1    2    0    0 -0.15431224657E+02  0.27351733039E+02 -0.24829387673E+00  0.31455673153E+02  0.17770000000E+01 0. -1.
         15    1    1    2    0    0  0.19439611980E+02 -0.94273799804E+01  0.70410280729E+01  0.22792714023E+02  0.17770000000E+01 0.  1.
</event>
<event>
 6    1  0.1860328E-003  0.5180510E+03  0.7546771E-02  0.9360301E-01
        -11   -1    0    0    0    0  0.00000000000E+00  0.00000000000E+00  0.50000000000E+03  0.50000000000E+03  0.00000000000E+00 0. -1.
         11   -1    0    0    0    0 -0.00000000000E+00 -0.00000000000E+00 -0.50000000000E+03  0.50000000000E+03  0.00000000000E+00 0.  1.
        -11    1    1    2    0    0 -0.42602656193E+01  0.16362631215E+02  0.48165236109E+03  0.48194904555E+03  0.00000000000E+00 0. -1.
         11    1    1    2    0    0  0.17570795217E+02  0.57003584171E+01 -0.43528025734E+03  0.43567204335E+03  0.00000000000E+00 0.  1.
        -15    1    1    2    0    0 -0.55504432741E+01 -0.13832035028E+02 -0.61556897727E+02  0.63360413511E+02  0.17770000000E+01 0. -1.
         15    1    1    2    0    0 -0.77600863236E+01 -0.82309546034E+01  0.15184793969E+02  0.19018497583E+02  0.17770000000E+01 0.  1.
</event>
<event>
 6    1  0.1860328E-003  0.4450719E+03  0.7546771E-02  0.9531868E-01
        -11   -1    0    0    0    0  0.00000000000E+00  0.00000000000E+00  0.50000000000E+03  0.50000000000E+03  0.00000000000E+00 0.  1.
         11   -1    0    0    0    0 -0.00000000000E+00 -0.00000000000E+00 -0.50000000000E+03  0.50000000000E+03  0.00000000000E+00 0. -1.
        -11    1    1    2    0    0 -0.49143966797E+02  0.50937340607E+01  0.43872056340E+03  0.44149383727E+03  0.00000000000E+00 0.  1.
         11    1    1    2    0    0  0.10234097841E+02 -0.42475461284E+01 -0.44942821171E+03  0.44956478497E+03  0.00000000000E+00 0. -1.
        -15    1    1    2    0    0  0.13263718024E+01  0.17463324913E+01 -0.43122095745E+02  0.43214370408E+02  0.17770000000E+01 0. -1.
         15    1    1    2    0    0  0.37583497153E+02 -0.25925204237E+01  0.53829744056E+02  0.65727007345E+02  0.17770000000E+01 0.  1.
</event>
<event>
 6    1  0.1860328E-003  0.5009123E+03  0.7546771E-02  0.9397771E-01
        -11   -1    0    0    0    0  0.00000000000E+00  0.00000000000E+00  0.50000000000E+03  0.50000000000E+03  0.00000000000E+00 0.  1.
         11   -1    0    0    0    0 -0.00000000000E+00 -0.00000000000E+00 -0.50000000000E+03  0.50000000000E+03  0.00000000000E+00 0. -1.
        -11    1    1    2    0    0 -0.47457634196E+01 -0.62522307581E+01  0.49902600595E+03  0.49908773505E+03  0.00000000000E+00 0.  1.
         11    1    1    2    0    0  0.45281838806E+01  0.74755863811E+01 -0.40910353724E+03  0.40919688785E+03  0.00000000000E+00 0. -1.
        -15    1    1    2    0    0 -0.15449269939E+01  0.44503310592E+01 -0.73427037156E+01  0.89031046724E+01  0.17770000000E+01 0.  1.
         15    1    1    2    0    0  0.17625065329E+01 -0.56736866822E+01 -0.82579764996E+02  0.82812272433E+02  0.17770000000E+01 0. -1.
</event>
<event>
 6    1  0.1860328E-003  0.5004030E+03  0.7546771E-02  0.9398908E-01
        -11   -1    0    0    0    0  0.00000000000E+00  0.00000000000E+00  0.50000000000E+03  0.50000000000E+03  0.00000000000E+00 0. -1.
         11   -1    0    0    0    0 -0.00000000000E+00 -0.00000000000E+00 -0.50000000000E+03  0.50000000000E+03  0.00000000000E+00 0. -1.
        -11    1    1    2    0    0  0.15488934152E+02 -0.15191004057E+02  0.49912575189E+03  0.49959702750E+03  0.00000000000E+00 0. -1.
         11    1    1    2    0    0  0.53332098655E+00 -0.23671386316E+01 -0.43544661078E+02  0.43612214860E+02  0.00000000000E+00 0. -1.
        -15    1    1    2    0    0  0.62640216296E+00  0.34280553661E+01 -0.11083013646E+02  0.11753078905E+02  0.17770000000E+01 0.  1.
         15    1    1    2    0    0 -0.16648657302E+02  0.14130087322E+02 -0.44449807717E+03  0.44503767873E+03  0.17770000000E+01 0. -1.
</event>
<event>
 6    1  0.1860328E-003  0.5006090E+03  0.7546771E-02  0.9398448E-01
        -11   -1    0    0    0    0  0.00000000000E+00  0.00000000000E+00  0.50000000000E+03  0.50000000000E+03  0.00000000000E+00 0.  1.
         11   -1    0    0    0    0 -0.00000000000E+00 -0.00000000000E+00 -0.50000000000E+03  0.50000000000E+03  0.00000000000E+00 0.  1.
        -11    1    1    2    0    0  0.31420748443E+01 -0.20482921647E+01  0.22648878174E+03  0.22651983664E+03  0.00000000000E+00 0.  1.
         11    1    1    2    0    0  0.13451364473E+02 -0.35164364792E+01 -0.49919740328E+03  0.49939098107E+03  0.00000000000E+00 0.  1.
        -15    1    1    2    0    0  0.23371649341E+01  0.19757647724E+01  0.13298886168E+03  0.13303593893E+03  0.17770000000E+01 0. -1.
         15    1    1    2    0    0 -0.18930604251E+02  0.35889638715E+01  0.13971975986E+03  0.14105324336E+03  0.17770000000E+01 0.  1.
</event>
<event>
 6    1  0.1860328E-003  0.5110558E+03  0.7546771E-02  0.9375406E-01
        -11   -1    0    0    0    0  0.00000000000E+00  0.00000000000E+00  0.50000000000E+03  0.50000000000E+03  0.00000000000E+00 0. -1.
         11   -1    0    0    0    0 -0.00000000000E+00 -0.00000000000E+00 -0.50000000000E+03  0.50000000000E+03  0.00000000000E+00 0.  1.
        -11    1    1    2    0    0  0.97010764242E+01 -0.46887807859E+01  0.48422323913E+03  0.48434310242E+03  0.00000000000E+00 0. -1.
         11    1    1    2    0    0 -0.10746083070E+02 -0.20464001230E+01 -0.48882176333E+03  0.48894415055E+03  0.00000000000E+00 0.  1.
        -15    1    1    2    0    0  0.77117561756E+01 -0.35814735019E+01  0.99402064644E+01  0.13200892747E+02  0.17770000000E+01 0. -1.
         15    1    1    2    0    0 -0.66667495300E+01  0.10316654411E+02 -0.53416822678E+01  0.13511854276E+02  0.17770000000E+01 0.  1.
</event>
<event>
 6    1  0.1860328E-003  0.5056823E+03  0.7546771E-02  0.9387184E-01
        -11   -1    0    0    0    0  0.00000000000E+00  0.00000000000E+00  0.50000000000E+03  0.50000000000E+03  0.00000000000E+00 0.  1.
         11   -1    0    0    0    0 -0.00000000000E+00 -0.00000000000E+00 -0.50000000000E+03  0.50000000000E+03  0.00000000000E+00 0.  1.
        -11    1    1    2    0    0  0.48145567198E+01 -0.47548961944E+01  0.49427142678E+03  0.49431774430E+03  0.00000000000E+00 0.  1.
         11    1    1    2    0    0 -0.49061911859E+01  0.55421637519E+01 -0.48876670881E+03  0.48882275103E+03  0.00000000000E+00 0.  1.
        -15    1    1    2    0    0 -0.43740701132E+01 -0.40905819823E+01 -0.83033300006E+01  0.10390782858E+02  0.17770000000E+01 0. -1.
         15    1    1    2    0    0  0.44657045792E+01  0.33033144248E+01  0.27986120229E+01  0.64687218083E+01  0.17770000000E+01 0.  1.
</event>
<event>
 6    1  0.1860328E-003  0.5013989E+03  0.7546771E-02  0.9396685E-01
        -11   -1    0    0    0    0  0.00000000000E+00  0.00000000000E+00  0.50000000000E+03  0.50000000000E+03  0.00000000000E+00 0. -1.
         11   -1    0    0    0    0 -0.00000000000E+00 -0.00000000000E+00 -0.50000000000E+03  0.50000000000E+03  0.00000000000E+00 0. -1.
        -11    1    1    2    0    0 -0.32092300569E+01 -0.15950342685E+01  0.49314800538E+02  0.49444846485E+02  0.00000000000E+00 0. -1.
         11    1    1    2    0    0  0.20054775454E+01  0.94004357231E+01 -0.49850845086E+03  0.49860110882E+03  0.00000000000E+00 0. -1.
        -15    1    1    2    0    0 -0.18287656195E+02 -0.15865723586E+02  0.14440591302E+03  0.14643218566E+03  0.17770000000E+01 0.  1.
         15    1    1    2    0    0  0.19491408706E+02  0.80603221318E+01  0.30478773731E+03  0.30552185904E+03  0.17770000000E+01 0. -1.
</event>
<event>
 6    1  0.1860328E-003  0.5984380E+03  0.7546771E-02  0.9203032E-01
        -11   -1    0    0    0    0  0.00000000000E+00  0.00000000000E+00  0.50000000000E+03  0.50000000000E+03  0.00000000000E+00 0.  1.
         11   -1    0    0    0    0 -0.00000000000E+00 -0.00000000000E+00 -0.50000000000E+03  0.50000000000E+03  0.00000000000E+00 0.  1.
        -11    1    1    2    0    0 -0.10894425346E+02  0.78836638996E+01  0.40133675138E+03  0.40156198608E+03  0.00000000000E+00 0.  1.
         11    1    1    2    0    0 -0.46762438000E+01  0.21435938172E+01 -0.32644016975E+03  0.32648069879E+03  0.00000000000E+00 0.  1.
        -15    1    1    2    0    0 -0.15167875833E+02  0.18307811257E+02 -0.16810508653E+03  0.16978727355E+03  0.17770000000E+01 0.  1.
         15    1    1    2    0    0  0.30738544979E+02 -0.28335068974E+02  0.93208504910E+02  0.10217004159E+03  0.17770000000E+01 0. -1.
</event>
<event>
 6    1  0.1860328E-003  0.5223673E+03  0.7546771E-02  0.9351107E-01
        -11   -1    0    0    0    0  0.00000000000E+00  0.00000000000E+00  0.50000000000E+03  0.50000000000E+03  0.00000000000E+00 0. -1.
         11   -1    0    0    0    0 -0.00000000000E+00 -0.00000000000E+00 -0.50000000000E+03  0.50000000000E+03  0.00000000000E+00 0.  1.
        -11    1    1    2    0    0 -0.26780438067E+01  0.68263279789E+01  0.47757644000E+03  0.47763273204E+03  0.00000000000E+00 0. -1.
         11    1    1    2    0    0  0.23606901197E+02  0.23910595209E+01 -0.35732471116E+03  0.35811164761E+03  0.00000000000E+00 0.  1.
        -15    1    1    2    0    0 -0.31606232409E+02 -0.80039454269E-01 -0.13797906630E+03  0.14156391065E+03  0.17770000000E+01 0.  1.
         15    1    1    2    0    0  0.10677375019E+02 -0.91373480455E+01  0.17727337463E+02  0.22691709700E+02  0.17770000000E+01 0. -1.
</event>
<event>
 6    1  0.1860328E-003  0.5013575E+03  0.7546771E-02  0.9396777E-01
        -11   -1    0    0    0    0  0.00000000000E+00  0.00000000000E+00  0.50000000000E+03  0.50000000000E+03  0.00000000000E+00 0.  1.
         11   -1    0    0    0    0 -0.00000000000E+00 -0.00000000000E+00 -0.50000000000E+03  0.50000000000E+03  0.00000000000E+00 0.  1.
        -11    1    1    2    0    0  0.66894642471E+01 -0.77054124017E+01  0.49853812363E+03  0.49864254033E+03  0.00000000000E+00 0.  1.
         11    1    1    2    0    0 -0.90992153059E+01 -0.66561419158E+01 -0.15279479579E+03  0.15321014837E+03  0.00000000000E+00 0.  1.
        -15    1    1    2    0    0  0.54994773024E+01  0.77025459893E+01 -0.33428466107E+03  0.33442333325E+03  0.17770000000E+01 0.  1.
         15    1    1    2    0    0 -0.30897262436E+01  0.66590083282E+01 -0.11458666770E+02  0.13723978043E+02  0.17770000000E+01 0. -1.
</event>
<event>
 6    1  0.1860328E-003  0.4981658E+03  0.7546771E-02  0.9403923E-01
        -11   -1    0    0    0    0  0.00000000000E+00  0.00000000000E+00  0.50000000000E+03  0.50000000000E+03  0.00000000000E+00 0. -1.
         11   -1    0    0    0    0 -0.00000000000E+00 -0.00000000000E+00 -0.50000000000E+03  0.50000000000E+03  0.00000000000E+00 0.  1.
        -11    1    1    2    0    0 -0.29648045733E+00  0.75284567761E+00  0.39534740651E+01  0.40354224636E+01  0.00000000000E+00 0. -1.
         11    1    1    2    0    0  0.16798947362E+01 -0.66490482010E+01 -0.49972860695E+03  0.49977566217E+03  0.00000000000E+00 0.  1.
        -15    1    1    2    0    0 -0.67470623711E+01 -0.18838726904E+01  0.86667050421E+02  0.86967851443E+02  0.17770000000E+01 0.  1.
         15    1    1    2    0    0  0.53636480923E+01  0.77800752138E+01  0.40910808247E+03  0.40922106392E+03  0.17770000000E+01 0. -1.
</event>
<event>
 6    1  0.1860328E-003  0.5182450E+03  0.7546771E-02  0.9359886E-01
        -11   -1    0    0    0    0  0.00000000000E+00  0.00000000000E+00  0.50000000000E+03  0.50000000000E+03  0.00000000000E+00 0.  1.
         11   -1    0    0    0    0 -0.00000000000E+00 -0.00000000000E+00 -0.50000000000E+03  0.50000000000E+03  0.00000000000E+00 0.  1.
        -11    1    1    2    0    0 -0.21942677689E+01 -0.80172586020E+01  0.43103809712E+03  0.43111823484E+03  0.00000000000E+00 0.  1.
         11    1    1    2    0    0 -0.39674237378E+01  0.17748633682E+02 -0.48141159654E+03  0.48175499969E+03  0.00000000000E+00 0.  1.
        -15    1    1    2    0    0 -0.16605848993E+02 -0.29220479884E+02  0.70003203050E+01  0.34376632744E+02  0.17770000000E+01 0.  1.
         15    1    1    2    0    0  0.22767540500E+02  0.19489104804E+02  0.43373179117E+02  0.52750132722E+02  0.17770000000E+01 0. -1.
</event>
<event>
 6    1  0.1860328E-003  0.5079802E+03  0.7546771E-02  0.9382128E-01
        -11   -1    0    0    0    0  0.00000000000E+00  0.00000000000E+00  0.50000000000E+03  0.50000000000E+03  0.00000000000E+00 0. -1.
         11   -1    0    0    0    0 -0.00000000000E+00 -0.00000000000E+00 -0.50000000000E+03  0.50000000000E+03  0.00000000000E+00 0. -1.
        -11    1    1    2    0    0  0.12604156593E+02 -0.24439028504E+01  0.41560206039E+03  0.41580032470E+03  0.00000000000E+00 0. -1.
         11    1    1    2    0    0 -0.88211920111E+01  0.88913080963E+01 -0.49186035181E+03  0.49201979073E+03  0.00000000000E+00 0. -1.
        -15    1    1    2    0    0  0.76973170321E+00 -0.28339891161E+02  0.33723977386E+02  0.44093154771E+02  0.17770000000E+01 0.  1.
         15    1    1    2    0    0 -0.45526962853E+01  0.21892485915E+02  0.42534314036E+02  0.48086729796E+02  0.17770000000E+01 0. -1.
</event>
<event>
 6    1  0.1860328E-003  0.5061651E+03  0.7546771E-02  0.9386120E-01
        -11   -1    0    0    0    0  0.00000000000E+00  0.00000000000E+00  0.50000000000E+03  0.50000000000E+03  0.00000000000E+00 0.  1.
         11   -1    0    0    0    0 -0.00000000000E+00 -0.00000000000E+00 -0.50000000000E+03  0.50000000000E+03  0.00000000000E+00 0. -1.
        -11    1    1    2    0    0  0.50058297633E+01  0.91584114697E+01  0.49372461547E+03  0.49383492258E+03  0.00000000000E+00 0.  1.
         11    1    1    2    0    0 -0.61941457472E+00  0.64193950626E+01 -0.39116613767E+03  0.39121929856E+03  0.00000000000E+00 0. -1.
        -15    1    1    2    0    0 -0.11696875183E+02  0.41527242020E+01 -0.26312723961E+01  0.12811843379E+02  0.17770000000E+01 0. -1.
         15    1    1    2    0    0  0.73104599941E+01 -0.19730530734E+02 -0.99927205408E+02  0.10213393549E+03  0.17770000000E+01 0.  1.
</event>
<event>
 6    1  0.1860328E-003  0.5225864E+03  0.7546771E-02  0.9350642E-01
        -11   -1    0    0    0    0  0.00000000000E+00  0.00000000000E+00  0.50000000000E+03  0.50000000000E+03  0.00000000000E+00 0. -1.
         11   -1    0    0    0    0 -0.00000000000E+00 -0.00000000000E+00 -0.50000000000E+03  0.50000000000E+03  0.00000000000E+00 0.  1.
        -11    1    1    2    0    0  0.31456949110E+01 -0.63202075027E+01  0.47736139005E+03  0.47741359127E+03  0.00000000000E+00 0. -1.
         11    1    1    2    0    0 -0.21135743966E+01  0.61359339969E+01 -0.38669383449E+03  0.38674828832E+03  0.00000000000E+00 0.  1.
        -15    1    1    2    0    0  0.24554746351E+02  0.61283284743E+01 -0.10348935501E+03  0.10655372498E+03  0.17770000000E+01 0.  1.
         15    1    1    2    0    0 -0.25586866866E+02 -0.59440549685E+01  0.12821799455E+02  0.29284395430E+02  0.17770000000E+01 0. -1.
</event>
<event>
 6    1  0.1860328E-003  0.5010714E+03  0.7546771E-02  0.9397416E-01
        -11   -1    0    0    0    0  0.00000000000E+00  0.00000000000E+00  0.50000000000E+03  0.50000000000E+03  0.00000000000E+00 0. -1.
         11   -1    0    0    0    0 -0.00000000000E+00 -0.00000000000E+00 -0.50000000000E+03  0.50000000000E+03  0.00000000000E+00 0.  1.
        -11    1    1    2    0    0 -0.43008124094E+01 -0.13943185606E+01  0.26039248077E+03  0.26043172839E+03  0.00000000000E+00 0. -1.
         11    1    1    2    0    0  0.66826052760E+01 -0.40133211921E+01 -0.49886774212E+03  0.49892864028E+03  0.00000000000E+00 0.  1.
        -15    1    1    2    0    0 -0.81461746274E+01  0.32525876918E+01  0.18300210282E+02  0.20371423935E+02  0.17770000000E+01 0. -1.
         15    1    1    2    0    0  0.57643817608E+01  0.21550520609E+01  0.22017505107E+03  0.22026820740E+03  0.17770000000E+01 0.  1.
</event>
<event>
 6    1  0.1860328E-003  0.5022835E+03  0.7546771E-02  0.9394715E-01
        -11   -1    0    0    0    0  0.00000000000E+00  0.00000000000E+00  0.50000000000E+03  0.50000000000E+03  0.00000000000E+00 0. -1.
         11   -1    0    0    0    0 -0.00000000000E+00 -0.00000000000E+00 -0.50000000000E+03  0.50000000000E+03  0.00000000000E+00 0.  1.
        -11    1    1    2    0    0 -0.25408017922E+01 -0.75025794121E+01  0.48311366012E+03  0.48317859324E+03  0.00000000000E+00 0. -1.
         11    1    1    2    0    0 -0.45295076006E+01  0.49819521615E+01 -0.49767093383E+03  0.49771648020E+03  0.00000000000E+00 0.  1.
        -15    1    1    2    0    0  0.31070089671E+01 -0.52807835759E+00  0.79168406598E-02  0.36180330498E+01  0.17770000000E+01 0.  1.
         15    1    1    2    0    0  0.39633004257E+01  0.30487056082E+01  0.14549356872E+02  0.15486893508E+02  0.17770000000E+01 0. -1.
</event>
<event>
 6    1  0.1860328E-003  0.5042794E+03  0.7546771E-02  0.9390285E-01
        -11   -1    0    0    0    0  0.00000000000E+00  0.00000000000E+00  0.50000000000E+03  0.50000000000E+03  0.00000000000E+00 0. -1.
         11   -1    0    0    0    0 -0.00000000000E+00 -0.00000000000E+00 -0.50000000000E+03  0.50000000000E+03  0.00000000000E+00 0. -1.
        -11    1    1    2    0    0 -0.42775769529E+01  0.63643638224E+01  0.49566128215E+03  0.49572059611E+03  0.00000000000E+00 0. -1.
         11    1    1    2    0    0 -0.66750093233E+01 -0.58412628685E+01 -0.47037900204E+03  0.47046262515E+03  0.00000000000E+00 0. -1.
        -15    1    1    2    0    0  0.10796778771E+02 -0.47671008349E+01 -0.48681698654E+01  0.12890015090E+02  0.17770000000E+01 0. -1.
         15    1    1    2    0    0  0.15580750551E+00  0.42439998809E+01 -0.20414110238E+02  0.20926763648E+02  0.17770000000E+01 0.  1.
</event>
<event>
 6    1  0.1860328E-003  0.5054382E+03  0.7546771E-02  0.9387723E-01
        -11   -1    0    0    0    0  0.00000000000E+00  0.00000000000E+00  0.50000000000E+03  0.50000000000E+03  0.00000000000E+00 0. -1.
         11   -1    0    0    0    0 -0.00000000000E+00 -0.00000000000E+00 -0.50000000000E+03  0.50000000000E+03  0.00000000000E+00 0. -1.
        -11    1    1    2    0    0  0.59334138565E+01  0.11705375556E+02  0.45657817606E+03  0.45676673705E+03  0.00000000000E+00 0. -1.
         11    1    1    2    0    0  0.47125307247E+01  0.70577876727E+01 -0.49448896487E+03  0.49456178248E+03  0.00000000000E+00 0. -1.
        -15    1    1    2    0    0 -0.63532776405E+01 -0.48703411985E+01  0.31728972298E+02  0.32771478030E+02  0.17770000000E+01 0.  1.
         15    1    1    2    0    0 -0.42926669407E+01 -0.13892822030E+02  0.61818165066E+01  0.15900002445E+02  0.17770000000E+01 0. -1.
</event>
<event>
 6    1  0.1860328E-003  0.5257787E+03  0.7546771E-02  0.9343906E-01
        -11   -1    0    0    0    0  0.00000000000E+00  0.00000000000E+00  0.50000000000E+03  0.50000000000E+03  0.00000000000E+00 0. -1.
         11   -1    0    0    0    0 -0.00000000000E+00 -0.00000000000E+00 -0.50000000000E+03  0.50000000000E+03  0.00000000000E+00 0. -1.
        -11    1    1    2    0    0 -0.22135286849E+02  0.26170238943E+02  0.47298091165E+03  0.47422125123E+03  0.00000000000E+00 0. -1.
         11    1    1    2    0    0  0.52580852962E+02  0.66688835473E+02 -0.20660566211E+03  0.22337870644E+03  0.00000000000E+00 0. -1.
        -15    1    1    2    0    0  0.12654371874E+02 -0.94407023715E+02 -0.14423950265E+03  0.17286124814E+03  0.17770000000E+01 0.  1.
         15    1    1    2    0    0 -0.43099937987E+02  0.15479493002E+01 -0.12213574689E+03  0.12953879419E+03  0.17770000000E+01 0. -1.
</event>
<event>
 6    1  0.1860328E-003  0.5035452E+03  0.7546771E-02  0.9391912E-01
        -11   -1    0    0    0    0  0.00000000000E+00  0.00000000000E+00  0.50000000000E+03  0.50000000000E+03  0.00000000000E+00 0. -1.
         11   -1    0    0    0    0 -0.00000000000E+00 -0.00000000000E+00 -0.50000000000E+03  0.50000000000E+03  0.00000000000E+00 0.  1.
        -11    1    1    2    0    0 -0.17961726142E+02 -0.57251087914E+01  0.36963954308E+03  0.37011997012E+03  0.00000000000E+00 0. -1.
         11    1    1    2    0    0  0.13020355528E+02 -0.21575541424E+01 -0.49627930073E+03  0.49645476030E+03  0.00000000000E+00 0.  1.
        -15    1    1    2    0    0  0.95476222975E+01 -0.91284836788E+01  0.13732493041E+02  0.19137016485E+02  0.17770000000E+01 0.  1.
         15    1    1    2    0    0 -0.46062516834E+01  0.17011146613E+02  0.11290726461E+03  0.11428825309E+03  0.17770000000E+01 0. -1.
</event>
<event>
 6    1  0.1860328E-003  0.5061721E+03  0.7546771E-02  0.9386104E-01
        -11   -1    0    0    0    0  0.00000000000E+00  0.00000000000E+00  0.50000000000E+03  0.50000000000E+03  0.00000000000E+00 0.  1.
         11   -1    0    0    0    0 -0.00000000000E+00 -0.00000000000E+00 -0.50000000000E+03  0.50000000000E+03  0.00000000000E+00 0. -1.
        -11    1    1    2    0    0 -0.85222688414E+01 -0.39496177273E+01  0.47350600268E+03  0.47359915870E+03  0.00000000000E+00 0.  1.
         11    1    1    2    0    0 -0.74276096416E+01  0.55897401709E+01 -0.49374043418E+03  0.49382793656E+03  0.00000000000E+00 0. -1.
        -15    1    1    2    0    0  0.13143188270E+01  0.16416127308E+01  0.16877353896E+02  0.17100442388E+02  0.17770000000E+01 0. -1.
         15    1    1    2    0    0  0.14635559656E+02 -0.32817351744E+01  0.33570776121E+01  0.15472462354E+02  0.17770000000E+01 0.  1.
</event>
<event>
 6    1  0.1860328E-003  0.5018396E+03  0.7546771E-02  0.9395703E-01
        -11   -1    0    0    0    0  0.00000000000E+00  0.00000000000E+00  0.50000000000E+03  0.50000000000E+03  0.00000000000E+00 0. -1.
         11   -1    0    0    0    0 -0.00000000000E+00 -0.00000000000E+00 -0.50000000000E+03  0.50000000000E+03  0.00000000000E+00 0. -1.
        -11    1    1    2    0    0 -0.36394300149E+01  0.60220922000E+01  0.27836176678E+03  0.27845068549E+03  0.00000000000E+00 0. -1.
         11    1    1    2    0    0 -0.92164040477E+01  0.25125522223E+01 -0.49806881490E+03  0.49816041533E+03  0.00000000000E+00 0. -1.
        -15    1    1    2    0    0  0.51171202241E+01 -0.26972599164E+01  0.20799190297E+03  0.20807991148E+03  0.17770000000E+01 0. -1.
         15    1    1    2    0    0  0.77387138386E+01 -0.58373845059E+01  0.11715145149E+02  0.15308987707E+02  0.17770000000E+01 0.  1.
</event>
<event>
 6    1  0.1860328E-003  0.5112231E+03  0.7546771E-02  0.9375041E-01
        -11   -1    0    0    0    0  0.00000000000E+00  0.00000000000E+00  0.50000000000E+03  0.50000000000E+03  0.00000000000E+00 0. -1.
         11   -1    0    0    0    0 -0.00000000000E+00 -0.00000000000E+00 -0.50000000000E+03  0.50000000000E+03  0.00000000000E+00 0.  1.
        -11    1    1    2    0    0  0.70058425255E+01  0.21707575499E+01  0.48872183295E+03  0.48877686527E+03  0.00000000000E+00 0. -1.
         11    1    1    2    0    0 -0.30076310810E+01 -0.72699219872E+01 -0.32512851848E+03  0.32522369400E+03  0.00000000000E+00 0.  1.
        -15    1    1    2    0    0  0.40280906144E+01  0.95909396431E+01 -0.17264839990E+03  0.17297063148E+03  0.17770000000E+01 0.  1.
         15    1    1    2    0    0 -0.80263020588E+01 -0.44917752058E+01  0.90550854342E+01  0.13028809250E+02  0.17770000000E+01 0. -1.
</event>
<event>
 6    1  0.1860328E-003  0.5004466E+03  0.7546771E-02  0.9398811E-01
        -11   -1    0    0    0    0  0.00000000000E+00  0.00000000000E+00  0.50000000000E+03  0.50000000000E+03  0.00000000000E+00 0. -1.
         11   -1    0    0    0    0 -0.00000000000E+00 -0.00000000000E+00 -0.50000000000E+03  0.50000000000E+03  0.00000000000E+00 0.  1.
        -11    1    1    2    0    0  0.48638274250E+01  0.48852044837E+01  0.49950586563E+03  0.49955343241E+03  0.00000000000E+00 0. -1.
         11    1    1    2    0    0  0.43373563413E+01  0.25198921737E+01 -0.34124586066E+03  0.34128272727E+03  0.00000000000E+00 0.  1.
        -15    1    1    2    0    0  0.18559790877E+01 -0.42889494453E+01 -0.34720448586E+02  0.35078583562E+02  0.17770000000E+01 0.  1.
         15    1    1    2    0    0 -0.11057162854E+02 -0.31161472121E+01 -0.12353955639E+03  0.12408525676E+03  0.17770000000E+01 0. -1.
</event>
<event>
 6    1  0.1860328E-003  0.5078703E+03  0.7546771E-02  0.9382369E-01
        -11   -1    0    0    0    0  0.00000000000E+00  0.00000000000E+00  0.50000000000E+03  0.50000000000E+03  0.00000000000E+00 0. -1.
         11   -1    0    0    0    0 -0.00000000000E+00 -0.00000000000E+00 -0.50000000000E+03  0.50000000000E+03  0.00000000000E+00 0. -1.
        -11    1    1    2    0    0  0.64469128603E+01  0.46541910596E+01  0.45827569319E+03  0.45834466851E+03  0.00000000000E+00 0. -1.
         11    1    1    2    0    0  0.10158266822E+02  0.75502813485E+01 -0.49196688417E+03  0.49212967016E+03  0.00000000000E+00 0. -1.
        -15    1    1    2    0    0 -0.97385318753E+01 -0.92832118463E+01  0.38261144376E+02  0.40596673796E+02  0.17770000000E+01 0. -1.
         15    1    1    2    0    0 -0.68666478070E+01 -0.29212605619E+01 -0.45699534022E+01  0.89289875392E+01  0.17770000000E+01 0.  1.
</event>
<event>
 6    1  0.1860328E-003  0.5159970E+03  0.7546771E-02  0.9364710E-01
        -11   -1    0    0    0    0  0.00000000000E+00  0.00000000000E+00  0.50000000000E+03  0.50000000000E+03  0.00000000000E+00 0.  1.
         11   -1    0    0    0    0 -0.00000000000E+00 -0.00000000000E+00 -0.50000000000E+03  0.50000000000E+03  0.00000000000E+00 0. -1.
        -11    1    1    2    0    0 -0.13765716182E+02 -0.15233993437E+01  0.40952388246E+03  0.40975800907E+03  0.00000000000E+00 0.  1.
         11    1    1    2    0    0 -0.67864818374E+01 -0.61753886716E+01 -0.48391598568E+03  0.48400296792E+03  0.00000000000E+00 0. -1.
        -15    1    1    2    0    0  0.27321135662E+02 -0.15473275887E+01  0.85737410998E+02  0.90016109948E+02  0.17770000000E+01 0.  1.
         15    1    1    2    0    0 -0.67689376427E+01  0.92461156039E+01 -0.11345307784E+02  0.16222913064E+02  0.17770000000E+01 0. -1.
</event>
<event>
 6    1  0.1860328E-003  0.4495972E+03  0.7546771E-02  0.9520239E-01
        -11   -1    0    0    0    0  0.00000000000E+00  0.00000000000E+00  0.50000000000E+03  0.50000000000E+03  0.00000000000E+00 0. -1.
         11   -1    0    0    0    0 -0.00000000000E+00 -0.00000000000E+00 -0.50000000000E+03  0.50000000000E+03  0.00000000000E+00 0. -1.
        -11    1    1    2    0    0  0.11165819841E+02 -0.14602812830E+02  0.45984977870E+03  0.46021705384E+03  0.00000000000E+00 0. -1.
         11    1    1    2    0    0  0.11743265487E+02 -0.34635241510E+02 -0.43932983866E+03  0.44084942030E+03  0.00000000000E+00 0. -1.
        -15    1    1    2    0    0 -0.34587933795E+02  0.19597584839E+02  0.22235194355E+02  0.45584559806E+02  0.17770000000E+01 0.  1.
         15    1    1    2    0    0  0.11678848467E+02  0.29640469500E+02 -0.42755134389E+02  0.53348966057E+02  0.17770000000E+01 0. -1.
</event>
<event>
 6    1  0.1860328E-003  0.5053133E+03  0.7546771E-02  0.9387999E-01
        -11   -1    0    0    0    0  0.00000000000E+00  0.00000000000E+00  0.50000000000E+03  0.50000000000E+03  0.00000000000E+00 0.  1.
         11   -1    0    0    0    0 -0.00000000000E+00 -0.00000000000E+00 -0.50000000000E+03  0.50000000000E+03  0.00000000000E+00 0.  1.
        -11    1    1    2    0    0  0.71547427944E+01  0.33771711114E+01  0.44260755564E+03  0.44267826233E+03  0.00000000000E+00 0.  1.
         11    1    1    2    0    0 -0.21901793592E+01  0.68780254281E+01 -0.49463402808E+03  0.49468669464E+03  0.00000000000E+00 0.  1.
        -15    1    1    2    0    0 -0.51469718552E+01 -0.92333353316E+01  0.56607243693E+02  0.57613223900E+02  0.17770000000E+01 0. -1.
         15    1    1    2    0    0  0.18240841999E+00 -0.10218612078E+01 -0.45807712537E+01  0.50218191363E+01  0.17770000000E+01 0.  1.
</event>
<event>
 6    1  0.1860328E-003  0.5025518E+03  0.7546771E-02  0.9394118E-01
        -11   -1    0    0    0    0  0.00000000000E+00  0.00000000000E+00  0.50000000000E+03  0.50000000000E+03  0.00000000000E+00 0.  1.
         11   -1    0    0    0    0 -0.00000000000E+00 -0.00000000000E+00 -0.50000000000E+03  0.50000000000E+03  0.00000000000E+00 0. -1.
        -11    1    1    2    0    0 -0.10186139746E+02 -0.29049736233E+02  0.49649481643E+03  0.49744823586E+03  0.00000000000E+00 0.  1.
         11    1    1    2    0    0 -0.45788731841E+01 -0.46136775811E+01 -0.33522218436E+03  0.33528519948E+03  0.00000000000E+00 0. -1.
        -15    1    1    2    0    0  0.15633718971E+01  0.98874944249E+01 -0.12966143310E+02  0.16476810342E+02  0.17770000000E+01 0.  1.
         15    1    1    2    0    0  0.13201641033E+02  0.23775919390E+02 -0.14830648876E+03  0.15078975432E+03  0.17770000000E+01 0. -1.
</event>
<event>
 6    1  0.1860328E-003  0.5037530E+03  0.7546771E-02  0.9391451E-01
        -11   -1    0    0    0    0  0.00000000000E+00  0.00000000000E+00  0.50000000000E+03  0.50000000000E+03  0.00000000000E+00 0. -1.
         11   -1    0    0    0    0 -0.00000000000E+00 -0.00000000000E+00 -0.50000000000E+03  0.50000000000E+03  0.00000000000E+00 0. -1.
        -11    1    1    2    0    0  0.64060399829E+01  0.57605030094E+01  0.49617220484E+03  0.49624699253E+03  0.00000000000E+00 0. -1.
         11    1    1    2    0    0 -0.10265209798E+02  0.11300600997E+01 -0.42366557037E+03  0.42379141932E+03  0.00000000000E+00 0. -1.
        -15    1    1    2    0    0 -0.43082106449E+01 -0.18322639213E+02 -0.33543471891E+02  0.38504571445E+02  0.17770000000E+01 0. -1.
         15    1    1    2    0    0  0.81673804605E+01  0.11432076104E+02 -0.38963162574E+02  0.41457016709E+02  0.17770000000E+01 0.  1.
</event>
<event>
 6    1  0.1860328E-003  0.5217930E+03  0.7546771E-02  0.9352325E-01
        -11   -1    0    0    0    0  0.00000000000E+00  0.00000000000E+00  0.50000000000E+03  0.50000000000E+03  0.00000000000E+00 0.  1.
         11   -1    0    0    0    0 -0.00000000000E+00 -0.00000000000E+00 -0.50000000000E+03  0.50000000000E+03  0.00000000000E+00 0.  1.
        -11    1    1    2    0    0  0.11152900671E+02 -0.12163900519E+02  0.47792214324E+03  0.47820698726E+03  0.00000000000E+00 0.  1.
         11    1    1    2    0    0  0.10138492664E+02 -0.51361816201E+01 -0.38775341113E+03  0.38791993663E+03  0.00000000000E+00 0.  1.
        -15    1    1    2    0    0 -0.53380924620E+02  0.83724043783E+01 -0.22750493740E+02  0.58654607345E+02  0.17770000000E+01 0.  1.
         15    1    1    2    0    0  0.32089531285E+02  0.89276777612E+01 -0.67418238372E+02  0.75218468759E+02  0.17770000000E+01 0. -1.
</event>
<event>
 6    1  0.1860328E-003  0.5061637E+03  0.7546771E-02  0.9386123E-01
        -11   -1    0    0    0    0  0.00000000000E+00  0.00000000000E+00  0.50000000000E+03  0.50000000000E+03  0.00000000000E+00 0.  1.
         11   -1    0    0    0    0 -0.00000000000E+00 -0.00000000000E+00 -0.50000000000E+03  0.50000000000E+03  0.00000000000E+00 0. -1.
        -11    1    1    2    0    0 -0.11095112080E+02  0.35921907647E+02  0.43382687215E+03  0.43545291359E+03  0.00000000000E+00 0.  1.
         11    1    1    2    0    0  0.64980374002E+01 -0.83819952352E+01 -0.49372244767E+03  0.49383634705E+03  0.00000000000E+00 0. -1.
        -15    1    1    2    0    0  0.20101323268E+01 -0.16958588228E+01 -0.18691873993E+01  0.36834982899E+01  0.17770000000E+01 0. -1.
         15    1    1    2    0    0  0.25869423526E+01 -0.25844053589E+02  0.61764762924E+02  0.67027241064E+02  0.17770000000E+01 0.  1.
</event>
<event>
 6    1  0.1860328E-003  0.5054259E+03  0.7546771E-02  0.9387750E-01
        -11   -1    0    0    0    0  0.00000000000E+00  0.00000000000E+00  0.50000000000E+03  0.50000000000E+03  0.00000000000E+00 0.  1.
         11   -1    0    0    0    0 -0.00000000000E+00 -0.00000000000E+00 -0.50000000000E+03  0.50000000000E+03  0.00000000000E+00 0.  1.
        -11    1    1    2    0    0 -0.72034049260E+01  0.62295858377E+01  0.46813412502E+03  0.46823098551E+03  0.00000000000E+00 0.  1.
         11    1    1    2    0    0  0.33802738137E+01  0.70581474367E+01 -0.49451216111E+03  0.49457408058E+03  0.00000000000E+00 0.  1.
        -15    1    1    2    0    0 -0.40376013445E+01 -0.73367130098E+01 -0.43462489879E+00  0.85718265386E+01  0.17770000000E+01 0.  1.
         15    1    1    2    0    0  0.78607324569E+01 -0.59510202645E+01  0.26812660995E+02  0.28623107371E+02  0.17770000000E+01 0.  1.
</event>
<event>
 6    1  0.1860328E-003  0.5008591E+03  0.7546771E-02  0.9397889E-01
        -11   -1    0    0    0    0  0.00000000000E+00  0.00000000000E+00  0.50000000000E+03  0.50000000000E+03  0.00000000000E+00 0. -1.
         11   -1    0    0    0    0 -0.00000000000E+00 -0.00000000000E+00 -0.50000000000E+03  0.50000000000E+03  0.00000000000E+00 0.  1.
        -11    1    1    2    0    0 -0.42760062384E+01  0.52791213826E+01  0.37360862320E+03  0.37367038508E+03  0.00000000000E+00 0. -1.
         11    1    1    2    0    0 -0.31761426857E+01  0.89577410181E+01 -0.49905039206E+03  0.49914088475E+03  0.00000000000E+00 0.  1.
        -15    1    1    2    0    0  0.10046847611E+02 -0.14208119298E+02  0.11349076222E+03  0.11483083488E+03  0.17770000000E+01 0.  1.
         15    1    1    2    0    0 -0.25946986869E+01 -0.28743102279E-01  0.11951006638E+02  0.12357895295E+02  0.17770000000E+01 0. -1.
</event>
<event>
 6    1  0.1860328E-003  0.5004988E+03  0.7546771E-02  0.9398694E-01
        -11   -1    0    0    0    0  0.00000000000E+00  0.00000000000E+00  0.50000000000E+03  0.50000000000E+03  0.00000000000E+00 0.  1.
         11   -1    0    0    0    0 -0.00000000000E+00 -0.00000000000E+00 -0.50000000000E+03  0.50000000000E+03  0.00000000000E+00 0. -1.
        -11    1    1    2    0    0 -0.84358675163E+01  0.95155019828E+01  0.49933925516E+03  0.49950115153E+03  0.00000000000E+00 0.  1.
         11    1    1    2    0    0  0.14937854568E+01  0.59780912274E+00 -0.49364541850E+02  0.49390755844E+02  0.00000000000E+00 0. -1.
        -15    1    1    2    0    0 -0.73487658851E+01  0.30477189072E+00 -0.29822730238E+03  0.29832327912E+03  0.17770000000E+01 0. -1.
         15    1    1    2    0    0  0.14290847945E+02 -0.10418082996E+02 -0.15174741092E+03  0.15278481351E+03  0.17770000000E+01 0.  1.
</event>
<event>
 6    1  0.1860328E-003  0.5154311E+03  0.7546771E-02  0.9365928E-01
        -11   -1    0    0    0    0  0.00000000000E+00  0.00000000000E+00  0.50000000000E+03  0.50000000000E+03  0.00000000000E+00 0.  1.
         11   -1    0    0    0    0 -0.00000000000E+00 -0.00000000000E+00 -0.50000000000E+03  0.50000000000E+03  0.00000000000E+00 0. -1.
        -11    1    1    2    0    0 -0.16137632178E+02  0.19366884079E+01  0.46369423712E+03  0.46397900758E+03  0.00000000000E+00 0.  1.
         11    1    1    2    0    0 -0.52891823238E+01 -0.89219011164E+01 -0.48445790565E+03  0.48456891988E+03  0.00000000000E+00 0. -1.
        -15    1    1    2    0    0  0.10847015539E+02  0.16480809070E+02 -0.63359106793E+01  0.20798468858E+02  0.17770000000E+01 0.  1.
         15    1    1    2    0    0  0.10579798963E+02 -0.94955963615E+01  0.27099579207E+02  0.30653603680E+02  0.17770000000E+01 0. -1.
</event>
<event>
 6    1  0.1860328E-003  0.5026507E+03  0.7546771E-02  0.9393898E-01
        -11   -1    0    0    0    0  0.00000000000E+00  0.00000000000E+00  0.50000000000E+03  0.50000000000E+03  0.00000000000E+00 0. -1.
         11   -1    0    0    0    0 -0.00000000000E+00 -0.00000000000E+00 -0.50000000000E+03  0.50000000000E+03  0.00000000000E+00 0. -1.
        -11    1    1    2    0    0 -0.73987230482E+01  0.26315084331E+01  0.49728726537E+03  0.49734926383E+03  0.00000000000E+00 0. -1.
         11    1    1    2    0    0 -0.38002640736E+01  0.14125619358E+02 -0.43151392752E+03  0.43176179170E+03  0.00000000000E+00 0. -1.
        -15    1    1    2    0    0  0.13273964741E+02 -0.14580024601E+02 -0.37540445564E+02  0.42440759176E+02  0.17770000000E+01 0.  1.
         15    1    1    2    0    0 -0.20749776188E+01 -0.21771031902E+01 -0.28232892289E+02  0.28448185293E+02  0.17770000000E+01 0. -1.
</event>
<event>
 6    1  0.1860328E-003  0.5016215E+03  0.7546771E-02  0.9396189E-01
        -11   -1    0    0    0    0  0.00000000000E+00  0.00000000000E+00  0.50000000000E+03  0.50000000000E+03  0.00000000000E+00 0.  1.
         11   -1    0    0    0    0 -0.00000000000E+00 -0.00000000000E+00 -0.50000000000E+03  0.50000000000E+03  0.00000000000E+00 0. -1.
        -11    1    1    2    0    0  0.10188299410E+01 -0.28441465632E+01  0.17496408117E+03  0.17499016225E+03  0.00000000000E+00 0.  1.
         11    1    1    2    0    0  0.50467126754E+01 -0.95436008486E+01 -0.49826152896E+03  0.49837847151E+03  0.00000000000E+00 0. -1.
        -15    1    1    2    0    0 -0.82576974282E+01  0.59537772727E+01  0.31708394360E+03  0.31725230030E+03  0.17770000000E+01 0.  1.
         15    1    1    2    0    0  0.21921548119E+01  0.64339701390E+01  0.62135041939E+01  0.93790659363E+01  0.17770000000E+01 0. -1.
</event>
<event>
 6    1  0.1860328E-003  0.5021071E+03  0.7546771E-02  0.9395107E-01
        -11   -1    0    0    0    0  0.00000000000E+00  0.00000000000E+00  0.50000000000E+03  0.50000000000E+03  0.00000000000E+00 0.  1.
         11   -1    0    0    0    0 -0.00000000000E+00 -0.00000000000E+00 -0.50000000000E+03  0.50000000000E+03  0.00000000000E+00 0. -1.
        -11    1    1    2    0    0 -0.22825248934E+01  0.26756723905E+01  0.15686925984E+03  0.15690867989E+03  0.00000000000E+00 0.  1.
         11    1    1    2    0    0 -0.36122974024E+01 -0.10431132751E+02 -0.49777056185E+03  0.49789294980E+03  0.00000000000E+00 0. -1.
        -15    1    1    2    0    0  0.81588628308E+01 -0.22497716395E+01  0.33003983315E+03  0.33015311253E+03  0.17770000000E+01 0.  1.
         15    1    1    2    0    0 -0.22640405350E+01  0.10005232000E+02  0.10861468858E+02  0.15045257780E+02  0.17770000000E+01 0.  1.
</event>
<event>
 6    1  0.1860328E-003  0.4875786E+03  0.7546771E-02  0.9428041E-01
        -11   -1    0    0    0    0  0.00000000000E+00  0.00000000000E+00  0.50000000000E+03  0.50000000000E+03  0.00000000000E+00 0.  1.
         11   -1    0    0    0    0 -0.00000000000E+00 -0.00000000000E+00 -0.50000000000E+03  0.50000000000E+03  0.00000000000E+00 0. -1.
        -11    1    1    2    0    0 -0.19258759751E+01 -0.76394983276E+01  0.49170157032E+03  0.49176468477E+03  0.00000000000E+00 0.  1.
         11    1    1    2    0    0 -0.12260365229E+02 -0.31262441840E+01 -0.48342459439E+03  0.48359014508E+03  0.00000000000E+00 0. -1.
        -15    1    1    2    0    0  0.82590595738E+01  0.70628662626E+01 -0.12201194860E+02  0.16435419979E+02  0.17770000000E+01 0.  1.
         15    1    1    2    0    0  0.59271816298E+01  0.37028762490E+01  0.39242189367E+01  0.82097501699E+01  0.17770000000E+01 0. -1.
</event>
<event>
 6    1  0.1860328E-003  0.5008182E+03  0.7546771E-02  0.9397981E-01
        -11   -1    0    0    0    0  0.00000000000E+00  0.00000000000E+00  0.50000000000E+03  0.50000000000E+03  0.00000000000E+00 0. -1.
         11   -1    0    0    0    0 -0.00000000000E+00 -0.00000000000E+00 -0.50000000000E+03  0.50000000000E+03  0.00000000000E+00 0.  1.
        -11    1    1    2    0    0 -0.19517426359E+01 -0.79607328270E+01  0.49911447251E+03  0.49918176974E+03  0.00000000000E+00 0. -1.
         11    1    1    2    0    0  0.47556306007E+01 -0.16809537815E+01 -0.35442379753E+03  0.35445968725E+03  0.00000000000E+00 0.  1.
        -15    1    1    2    0    0  0.15661072631E+01 -0.35958372617E+01 -0.81961064110E+02  0.82074091506E+02  0.17770000000E+01 0. -1.
         15    1    1    2    0    0 -0.43699952279E+01  0.13237523870E+02 -0.62729610875E+02  0.64284451511E+02  0.17770000000E+01 0. -1.
</event>
<event>
 6    1  0.1860328E-003  0.5030056E+03  0.7546771E-02  0.9393110E-01
        -11   -1    0    0    0    0  0.00000000000E+00  0.00000000000E+00  0.50000000000E+03  0.50000000000E+03  0.00000000000E+00 0.  1.
         11   -1    0    0    0    0 -0.00000000000E+00 -0.00000000000E+00 -0.50000000000E+03  0.50000000000E+03  0.00000000000E+00 0. -1.
        -11    1    1    2    0    0 -0.22983392470E+00  0.11443785620E+02  0.36995791473E+03  0.37013493719E+03  0.00000000000E+00 0.  1.
         11    1    1    2    0    0  0.56230783253E+01  0.41766599486E+01 -0.49694506821E+03  0.49699443088E+03  0.00000000000E+00 0. -1.
        -15    1    1    2    0    0 -0.12092892905E+00 -0.43098700691E+01 -0.56470037351E+00  0.46974694603E+01  0.17770000000E+01 0.  1.
         15    1    1    2    0    0 -0.52723154715E+01 -0.11310575500E+02  0.12755185386E+03  0.12817316248E+03  0.17770000000E+01 0. -1.
</event>
<event>
 6    1  0.1860328E-003  0.4551896E+03  0.7546771E-02  0.9506067E-01
        -11   -1    0    0    0    0  0.00000000000E+00  0.00000000000E+00  0.50000000000E+03  0.50000000000E+03  0.00000000000E+00 0. -1.
         11   -1    0    0    0    0 -0.00000000000E+00 -0.00000000000E+00 -0.50000000000E+03  0.50000000000E+03  0.00000000000E+00 0.  1.
        -11    1    1    2    0    0  0.56704973490E+01  0.57600607384E+01  0.44877693640E+03  0.44884972038E+03  0.00000000000E+00 0. -1.
         11    1    1    2    0    0  0.18533646264E+02  0.22838579644E+02 -0.13723215747E+02  0.32456484936E+02  0.00000000000E+00 0.  1.
        -15    1    1    2    0    0  0.10149924742E+02 -0.49006291563E+02  0.25644718026E+02  0.56262304225E+02  0.17770000000E+01 0. -1.
         15    1    1    2    0    0 -0.34354068356E+02  0.20407651181E+02 -0.46069843868E+03  0.46243149046E+03  0.17770000000E+01 0.  1.
</event>
<event>
 6    1  0.1860328E-003  0.5138989E+03  0.7546771E-02  0.9369236E-01
        -11   -1    0    0    0    0  0.00000000000E+00  0.00000000000E+00  0.50000000000E+03  0.50000000000E+03  0.00000000000E+00 0. -1.
         11   -1    0    0    0    0 -0.00000000000E+00 -0.00000000000E+00 -0.50000000000E+03  0.50000000000E+03  0.00000000000E+00 0. -1.
        -11    1    1    2    0    0 -0.11245551522E+02 -0.88640971740E-01  0.48597103768E+03  0.48610114148E+03  0.00000000000E+00 0. -1.
         11    1    1    2    0    0 -0.32378453978E+01  0.37084370038E+01 -0.32925091941E+03  0.32928772233E+03  0.00000000000E+00 0. -1.
        -15    1    1    2    0    0  0.10944825190E+02 -0.21948938173E+02 -0.16299316724E+03  0.16483772439E+03  0.17770000000E+01 0.  1.
         15    1    1    2    0    0  0.35385717295E+01  0.18329142141E+02  0.62730489696E+01  0.19773411791E+02  0.17770000000E+01 0. -1.
</event>
<event>
 6    1  0.1860328E-003  0.5190965E+03  0.7546771E-02  0.9358065E-01
        -11   -1    0    0    0    0  0.00000000000E+00  0.00000000000E+00  0.50000000000E+03  0.50000000000E+03  0.00000000000E+00 0. -1.
         11   -1    0    0    0    0 -0.00000000000E+00 -0.00000000000E+00 -0.50000000000E+03  0.50000000000E+03  0.00000000000E+00 0. -1.
        -11    1    1    2    0    0  0.12447235878E+02  0.47075955223E+01  0.44209465667E+03  0.44229490229E+03  0.00000000000E+00 0. -1.
         11    1    1    2    0    0 -0.20566357861E+02 -0.70796676628E+01 -0.48041132481E+03  0.48090345993E+03  0.00000000000E+00 0. -1.
        -15    1    1    2    0    0  0.27610496739E+02  0.15251480546E+02 -0.34491916278E+00  0.31594681313E+02  0.17770000000E+01 0.  1.
         15    1    1    2    0    0 -0.19491374756E+02 -0.12879408405E+02  0.38661587306E+02  0.45206956464E+02  0.17770000000E+01 0.  1.
</event>
<event>
 6    1  0.1860328E-003  0.5007175E+03  0.7546771E-02  0.9398206E-01
        -11   -1    0    0    0    0  0.00000000000E+00  0.00000000000E+00  0.50000000000E+03  0.50000000000E+03  0.00000000000E+00 0.  1.
         11   -1    0    0    0    0 -0.00000000000E+00 -0.00000000000E+00 -0.50000000000E+03  0.50000000000E+03  0.00000000000E+00 0. -1.
        -11    1    1    2    0    0 -0.18744756322E+01  0.59542293892E+01  0.41409268897E+03  0.41413973676E+03  0.00000000000E+00 0.  1.
         11    1    1    2    0    0 -0.10799072618E+02  0.82423116407E+00 -0.49916502284E+03  0.49928250456E+03  0.00000000000E+00 0. -1.
        -15    1    1    2    0    0  0.33340152359E+01 -0.28500214804E+01  0.43283736733E+02  0.43541679740E+02  0.17770000000E+01 0.  1.
         15    1    1    2    0    0  0.93395330144E+01 -0.39284390728E+01  0.41788597139E+02  0.43036078938E+02  0.17770000000E+01 0. -1.
</event>
<event>
 6    1  0.1860328E-003  0.4867361E+03  0.7546771E-02  0.9429988E-01
        -11   -1    0    0    0    0  0.00000000000E+00  0.00000000000E+00  0.50000000000E+03  0.50000000000E+03  0.00000000000E+00 0. -1.
         11   -1    0    0    0    0 -0.00000000000E+00 -0.00000000000E+00 -0.50000000000E+03  0.50000000000E+03  0.00000000000E+00 0. -1.
        -11    1    1    2    0    0  0.83963238075E+01  0.41671207788E+01  0.48776320179E+03  0.48785326090E+03  0.00000000000E+00 0. -1.
         11    1    1    2    0    0 -0.17617853713E+02 -0.22568032583E+01 -0.48534255526E+03  0.48566745606E+03  0.00000000000E+00 0. -1.
        -15    1    1    2    0    0  0.50187260423E+01  0.81159550981E+01 -0.93402538868E+01  0.13470501472E+02  0.17770000000E+01 0.  1.
         15    1    1    2    0    0  0.42028038628E+01 -0.10026272619E+02  0.69196073556E+01  0.13008781568E+02  0.17770000000E+01 0. -1.
</event>
<event>
 6    1  0.1860328E-003  0.4535266E+03  0.7546771E-02  0.9510258E-01
        -11   -1    0    0    0    0  0.00000000000E+00  0.00000000000E+00  0.50000000000E+03  0.50000000000E+03  0.00000000000E+00 0.  1.
         11   -1    0    0    0    0 -0.00000000000E+00 -0.00000000000E+00 -0.50000000000E+03  0.50000000000E+03  0.00000000000E+00 0.  1.
        -11    1    1    2    0    0  0.68484980769E+01 -0.59829470760E+01  0.45840167285E+03  0.45849186607E+03  0.00000000000E+00 0.  1.
         11    1    1    2    0    0  0.20589762503E+02 -0.25563513661E+01 -0.44858989861E+03  0.44906944941E+03  0.00000000000E+00 0.  1.
        -15    1    1    2    0    0 -0.19463679919E+02 -0.16169986796E+02  0.33432898613E+02  0.41966888706E+02  0.17770000000E+01 0.  1.
         15    1    1    2    0    0 -0.79745806602E+01  0.24709285238E+02 -0.43244672853E+02  0.50471795815E+02  0.17770000000E+01 0. -1.
</event>
<event>
 6    1  0.1860328E-003  0.5051534E+03  0.7546771E-02  0.9388352E-01
        -11   -1    0    0    0    0  0.00000000000E+00  0.00000000000E+00  0.50000000000E+03  0.50000000000E+03  0.00000000000E+00 0.  1.
         11   -1    0    0    0    0 -0.00000000000E+00 -0.00000000000E+00 -0.50000000000E+03  0.50000000000E+03  0.00000000000E+00 0.  1.
        -11    1    1    2    0    0  0.75132637329E+00 -0.16834905922E+02  0.49455962405E+03  0.49484664321E+03  0.00000000000E+00 0.  1.
         11    1    1    2    0    0 -0.61155531110E+01 -0.12033624252E+01 -0.43366677414E+03  0.43371156206E+03  0.00000000000E+00 0.  1.
        -15    1    1    2    0    0  0.15505850738E+02  0.38018860093E+01 -0.13797030943E+02  0.21175493764E+02  0.17770000000E+01 0.  1.
         15    1    1    2    0    0 -0.10141624000E+02  0.14236382338E+02 -0.47095818968E+02  0.50266300965E+02  0.17770000000E+01 0. -1.
</event>
<event>
 6    1  0.1860328E-003  0.5133560E+03  0.7546771E-02  0.9370411E-01
        -11   -1    0    0    0    0  0.00000000000E+00  0.00000000000E+00  0.50000000000E+03  0.50000000000E+03  0.00000000000E+00 0. -1.
         11   -1    0    0    0    0 -0.00000000000E+00 -0.00000000000E+00 -0.50000000000E+03  0.50000000000E+03  0.00000000000E+00 0.  1.
        -11    1    1    2    0    0  0.56851131236E+02 -0.77038226028E+01  0.48325041941E+03  0.48664398472E+03  0.00000000000E+00 0. -1.
         11    1    1    2    0    0 -0.13249546037E+01 -0.25305644321E+01 -0.16847040562E+03  0.16849461959E+03  0.00000000000E+00 0.  1.
        -15    1    1    2    0    0 -0.20330842360E+02  0.13039048169E+02 -0.30789448756E+03  0.30884548422E+03  0.17770000000E+01 0.  1.
         15    1    1    2    0    0 -0.35195334271E+02 -0.28046611336E+01 -0.68855262282E+01  0.36015911470E+02  0.17770000000E+01 0. -1.
</event>
<event>
 6    1  0.1860328E-003  0.5024575E+03  0.7546771E-02  0.9394327E-01
        -11   -1    0    0    0    0  0.00000000000E+00  0.00000000000E+00  0.50000000000E+03  0.50000000000E+03  0.00000000000E+00 0. -1.
         11   -1    0    0    0    0 -0.00000000000E+00 -0.00000000000E+00 -0.50000000000E+03  0.50000000000E+03  0.00000000000E+00 0.  1.
        -11    1    1    2    0    0 -0.32776128647E+00  0.10488587424E+02  0.49743177897E+03  0.49754245309E+03  0.00000000000E+00 0. -1.
         11    1    1    2    0    0  0.11316082066E+02  0.60374894948E+01 -0.41089282354E+03  0.41109295473E+03  0.00000000000E+00 0.  1.
        -15    1    1    2    0    0 -0.15634081789E+01 -0.47234518015E+01 -0.22972155679E+01  0.57610910790E+01  0.17770000000E+01 0. -1.
         15    1    1    2    0    0 -0.94249126010E+01 -0.11802625117E+02 -0.84241739859E+02  0.85603501101E+02  0.17770000000E+01 0.  1.
</event>
<event>
 6    1  0.1860328E-003  0.5058142E+03  0.7546771E-02  0.9386893E-01
        -11   -1    0    0    0    0  0.00000000000E+00  0.00000000000E+00  0.50000000000E+03  0.50000000000E+03  0.00000000000E+00 0.  1.
         11   -1    0    0    0    0 -0.00000000000E+00 -0.00000000000E+00 -0.50000000000E+03  0.50000000000E+03  0.00000000000E+00 0.  1.
        -11    1    1    2    0    0 -0.42619057719E+01 -0.12608042888E+02  0.49400654799E+03  0.49418579101E+03  0.00000000000E+00 0.  1.
         11    1    1    2    0    0 -0.19902925149E+01 -0.59637954202E+01 -0.18817179606E+03  0.18827679877E+03  0.00000000000E+00 0.  1.
        -15    1    1    2    0    0 -0.65343504560E+01  0.60207685776E+01 -0.29760112599E+03  0.29773903894E+03  0.17770000000E+01 0.  1.
         15    1    1    2    0    0  0.12786548743E+02  0.12551069731E+02 -0.82336259308E+01  0.19798371274E+02  0.17770000000E+01 0. -1.
</event>
<event>
 6    1  0.1860328E-003  0.5020760E+03  0.7546771E-02  0.9395177E-01
        -11   -1    0    0    0    0  0.00000000000E+00  0.00000000000E+00  0.50000000000E+03  0.50000000000E+03  0.00000000000E+00 0.  1.
         11   -1    0    0    0    0 -0.00000000000E+00 -0.00000000000E+00 -0.50000000000E+03  0.50000000000E+03  0.00000000000E+00 0.  1.
        -11    1    1    2    0    0 -0.10567801670E+02  0.31174422949E+01  0.49780210504E+03  0.49792402298E+03  0.00000000000E+00 0.  1.
         11    1    1    2    0    0 -0.19769168171E+01 -0.70078868615E+01 -0.36393702600E+03  0.36400985916E+03  0.00000000000E+00 0.  1.
        -15    1    1    2    0    0  0.13288925605E+02 -0.20160987021E+01 -0.20788162400E+02  0.24818654731E+02  0.17770000000E+01 0. -1.
         15    1    1    2    0    0 -0.74420711798E+00  0.59065432688E+01 -0.11307691664E+03  0.11324746312E+03  0.17770000000E+01 0.  1.
</event>
<event>
 6    1  0.1860328E-003  0.4671475E+03  0.7546771E-02  0.9476477E-01
        -11   -1    0    0    0    0  0.00000000000E+00  0.00000000000E+00  0.50000000000E+03  0.50000000000E+03  0.00000000000E+00 0.  1.
         11   -1    0    0    0    0 -0.00000000000E+00 -0.00000000000E+00 -0.50000000000E+03  0.50000000000E+03  0.00000000000E+00 0.  1.
        -11    1    1    2    0    0 -0.22284015459E+02 -0.17408156192E+02  0.47545879073E+03  0.47629894282E+03  0.00000000000E+00 0.  1.
         11    1    1    2    0    0  0.20294033688E+01 -0.64399069635E+01 -0.45862177491E+03  0.45867147644E+03  0.00000000000E+00 0.  1.
        -15    1    1    2    0    0  0.27138305884E+02  0.65536489412E+01  0.12178539156E+02  0.30510858815E+02  0.17770000000E+01 0.  1.
         15    1    1    2    0    0 -0.68836937931E+01  0.17294414215E+02 -0.29015554982E+02  0.34518721922E+02  0.17770000000E+01 0. -1.
</event>
<event>
 6    1  0.1860328E-003  0.5054069E+03  0.7546771E-02  0.9387792E-01
        -11   -1    0    0    0    0  0.00000000000E+00  0.00000000000E+00  0.50000000000E+03  0.50000000000E+03  0.00000000000E+00 0. -1.
         11   -1    0    0    0    0 -0.00000000000E+00 -0.00000000000E+00 -0.50000000000E+03  0.50000000000E+03  0.00000000000E+00 0. -1.
        -11    1    1    2    0    0  0.22296827063E+01  0.16217313466E+02  0.36536706401E+03  0.36573359731E+03  0.00000000000E+00 0. -1.
         11    1    1    2    0    0 -0.41644157176E+01  0.12048052456E+02 -0.49442875326E+03  0.49459305493E+03  0.00000000000E+00 0. -1.
        -15    1    1    2    0    0  0.16198108636E+02 -0.39642355815E+01  0.16140109775E+02  0.23275625871E+02  0.17770000000E+01 0. -1.
         15    1    1    2    0    0 -0.14263375625E+02 -0.24301130341E+02  0.11292157948E+03  0.11639772189E+03  0.17770000000E+01 0.  1.
</event>
<event>
 6    1  0.1860328E-003  0.5073475E+03  0.7546771E-02  0.9383518E-01
        -11   -1    0    0    0    0  0.00000000000E+00  0.00000000000E+00  0.50000000000E+03  0.50000000000E+03  0.00000000000E+00 0. -1.
         11   -1    0    0    0    0 -0.00000000000E+00 -0.00000000000E+00 -0.50000000000E+03  0.50000000000E+03  0.00000000000E+00 0.  1.
        -11    1    1    2    0    0  0.57997126592E+01 -0.37550770045E+01  0.47548511903E+03  0.47553531487E+03  0.00000000000E+00 0. -1.
         11    1    1    2    0    0  0.87826967535E+01 -0.18965988445E+01 -0.49257053056E+03  0.49265247429E+03  0.00000000000E+00 0.  1.
        -15    1    1    2    0    0 -0.10850050339E+02  0.56736518424E+01 -0.17796390732E+01  0.12499550465E+02  0.17770000000E+01 0. -1.
         15    1    1    2    0    0 -0.37323590737E+01 -0.21975993452E-01  0.18865050610E+02  0.19312660374E+02  0.17770000000E+01 0.  1.
</event>
<event>
 6    1  0.1860328E-003  0.5189531E+03  0.7546771E-02  0.9358372E-01
        -11   -1    0    0    0    0  0.00000000000E+00  0.00000000000E+00  0.50000000000E+03  0.50000000000E+03  0.00000000000E+00 0. -1.
         11   -1    0    0    0    0 -0.00000000000E+00 -0.00000000000E+00 -0.50000000000E+03  0.50000000000E+03  0.00000000000E+00 0. -1.
        -11    1    1    2    0    0  0.44081509391E+01  0.27052837832E+02  0.39888437622E+03  0.39982500350E+03  0.00000000000E+00 0. -1.
         11    1    1    2    0    0  0.54464368657E+01  0.38092664666E+01 -0.48100100178E+03  0.48104691861E+03  0.00000000000E+00 0. -1.
        -15    1    1    2    0    0  0.30726624372E+02  0.56220444073E+01  0.24388335389E+02  0.39669654154E+02  0.17770000000E+01 0.  1.
         15    1    1    2    0    0 -0.40581212177E+02 -0.36484148706E+02  0.57728290172E+02  0.79458423743E+02  0.17770000000E+01 0. -1.
</event>
<event>
 6    1  0.1860328E-003  0.5008870E+03  0.7546771E-02  0.9397827E-01
        -11   -1    0    0    0    0  0.00000000000E+00  0.00000000000E+00  0.50000000000E+03  0.50000000000E+03  0.00000000000E+00 0. -1.
         11   -1    0    0    0    0 -0.00000000000E+00 -0.00000000000E+00 -0.50000000000E+03  0.50000000000E+03  0.00000000000E+00 0.  1.
        -11    1    1    2    0    0 -0.82941024564E+01  0.38902350130E+01  0.49902894869E+03  0.49911303098E+03  0.00000000000E+00 0. -1.
         11    1    1    2    0    0 -0.65901868300E+01  0.68605298115E+00 -0.42481082087E+03  0.42486248923E+03  0.00000000000E+00 0.  1.
        -15    1    1    2    0    0  0.23885250851E+01 -0.13942176603E+01 -0.19817568648E+02  0.20088371041E+02  0.17770000000E+01 0. -1.
         15    1    1    2    0    0  0.12495764201E+02 -0.31820703338E+01 -0.54400559173E+02  0.55936108748E+02  0.17770000000E+01 0.  1.
</event>
<event>
 6    1  0.1860328E-003  0.5053639E+03  0.7546771E-02  0.9387887E-01
        -11   -1    0    0    0    0  0.00000000000E+00  0.00000000000E+00  0.50000000000E+03  0.50000000000E+03  0.00000000000E+00 0. -1.
         11   -1    0    0    0    0 -0.00000000000E+00 -0.00000000000E+00 -0.50000000000E+03  0.50000000000E+03  0.00000000000E+00 0.  1.
        -11    1    1    2    0    0  0.69840521134E+01 -0.45047957969E+01  0.46597409866E+03  0.46604820651E+03  0.00000000000E+00 0. -1.
         11    1    1    2    0    0 -0.11642102973E+02  0.17285724954E+01 -0.49449603039E+03  0.49463607895E+03  0.00000000000E+00 0.  1.
        -15    1    1    2    0    0  0.78367958164E+01 -0.10110789950E+02  0.18620698673E+02  0.22661235407E+02  0.17770000000E+01 0.  1.
         15    1    1    2    0    0 -0.31787449570E+01  0.12887013252E+02  0.99012330650E+01  0.16654479135E+02  0.17770000000E+01 0. -1.
</event>
<event>
 6    1  0.1860328E-003  0.5013328E+03  0.7546771E-02  0.9396832E-01
        -11   -1    0    0    0    0  0.00000000000E+00  0.00000000000E+00  0.50000000000E+03  0.50000000000E+03  0.00000000000E+00 0.  1.
         11   -1    0    0    0    0 -0.00000000000E+00 -0.00000000000E+00 -0.50000000000E+03  0.50000000000E+03  0.00000000000E+00 0. -1.
        -11    1    1    2    0    0 -0.95489467107E+01  0.27900223264E+01  0.49856796440E+03  0.49866720539E+03  0.00000000000E+00 0.  1.
         11    1    1    2    0    0 -0.24638054950E+01  0.35125084800E+01 -0.16233898802E+03  0.16239567446E+03  0.00000000000E+00 0. -1.
        -15    1    1    2    0    0  0.52496491729E+01  0.11513015973E+02 -0.37921484158E+02  0.40016309712E+02  0.17770000000E+01 0.  1.
         15    1    1    2    0    0  0.67631030328E+01 -0.17815546779E+02 -0.29830749222E+03  0.29892081044E+03  0.17770000000E+01 0. -1.
</event>
<event>
 6    1  0.1860328E-003  0.5002556E+03  0.7546771E-02  0.9399238E-01
        -11   -1    0    0    0    0  0.00000000000E+00  0.00000000000E+00  0.50000000000E+03  0.50000000000E+03  0.00000000000E+00 0.  1.
         11   -1    0    0    0    0 -0.00000000000E+00 -0.00000000000E+00 -0.50000000000E+03  0.50000000000E+03  0.00000000000E+00 0. -1.
        -11    1    1    2    0    0  0.21507453640E+01 -0.62646047283E+01  0.31558984320E+03  0.31565934187E+03  0.00000000000E+00 0.  1.
         11    1    1    2    0    0  0.46142826046E+01  0.66278761490E+01 -0.49967913717E+03  0.49974439514E+03  0.00000000000E+00 0. -1.
        -15    1    1    2    0    0 -0.92929673560E+00  0.47141354703E+01  0.47230304148E+02  0.47507326009E+02  0.17770000000E+01 0. -1.
         15    1    1    2    0    0 -0.58357312330E+01 -0.50774068910E+01  0.13685898982E+03  0.13708893699E+03  0.17770000000E+01 0.  1.
</event>
<event>
 6    1  0.1860328E-003  0.5035868E+03  0.7546771E-02  0.9391820E-01
        -11   -1    0    0    0    0  0.00000000000E+00  0.00000000000E+00  0.50000000000E+03  0.50000000000E+03  0.00000000000E+00 0.  1.
         11   -1    0    0    0    0 -0.00000000000E+00 -0.00000000000E+00 -0.50000000000E+03  0.50000000000E+03  0.00000000000E+00 0. -1.
        -11    1    1    2    0    0 -0.86021201458E+00  0.93104677323E+01  0.49632516176E+03  0.49641322602E+03  0.00000000000E+00 0.  1.
         11    1    1    2    0    0 -0.15206856493E+01  0.42741296399E+01 -0.25440397243E+03  0.25444441801E+03  0.00000000000E+00 0. -1.
        -15    1    1    2    0    0  0.27008578982E+02 -0.18968567284E+02 -0.16136051742E+03  0.16471078955E+03  0.17770000000E+01 0. -1.
         15    1    1    2    0    0 -0.24627681318E+02  0.53839699118E+01 -0.80560671916E+02  0.84431566417E+02  0.17770000000E+01 0.  1.
</event>
<event>
 6    1  0.1860328E-003  0.5084400E+03  0.7546771E-02  0.9381120E-01
        -11   -1    0    0    0    0  0.00000000000E+00  0.00000000000E+00  0.50000000000E+03  0.50000000000E+03  0.00000000000E+00 0. -1.
         11   -1    0    0    0    0 -0.00000000000E+00 -0.00000000000E+00 -0.50000000000E+03  0.50000000000E+03  0.00000000000E+00 0. -1.
        -11    1    1    2    0    0  0.82601665933E+01  0.10919754627E+02  0.46797470589E+03  0.46817496381E+03  0.00000000000E+00 0. -1.
         11    1    1    2    0    0 -0.37699531826E+01  0.14380275901E+02 -0.49133518653E+03  0.49156003744E+03  0.00000000000E+00 0. -1.
        -15    1    1    2    0    0  0.20579543393E+01 -0.28736643614E+01  0.14800379955E+02  0.15319990168E+02  0.17770000000E+01 0. -1.
         15    1    1    2    0    0 -0.65481677500E+01 -0.22426366167E+02  0.85601006883E+01  0.24945008581E+02  0.17770000000E+01 0.  1.
</event>
<event>
 6    1  0.1860328E-003  0.5114562E+03  0.7546771E-02  0.9374534E-01
        -11   -1    0    0    0    0  0.00000000000E+00  0.00000000000E+00  0.50000000000E+03  0.50000000000E+03  0.00000000000E+00 0.  1.
         11   -1    0    0    0    0 -0.00000000000E+00 -0.00000000000E+00 -0.50000000000E+03  0.50000000000E+03  0.00000000000E+00 0. -1.
        -11    1    1    2    0    0 -0.42105960576E+01  0.60456458288E+01  0.47825385370E+03  0.47831059734E+03  0.00000000000E+00 0.  1.
         11    1    1    2    0    0  0.11594900367E+02  0.15007028120E+00 -0.48840615192E+03  0.48854378869E+03  0.00000000000E+00 0. -1.
        -15    1    1    2    0    0 -0.62740368911E+01 -0.15752261389E+01 -0.10179063948E+02  0.12190814089E+02  0.17770000000E+01 0.  1.
         15    1    1    2    0    0 -0.11102674183E+01 -0.46204899712E+01  0.20331362170E+02  0.20954799879E+02  0.17770000000E+01 0. -1.
</event>
<event>
 6    1  0.1860328E-003  0.5026120E+03  0.7546771E-02  0.9393984E-01
        -11   -1    0    0    0    0  0.00000000000E+00  0.00000000000E+00  0.50000000000E+03  0.50000000000E+03  0.00000000000E+00 0. -1.
         11   -1    0    0    0    0 -0.00000000000E+00 -0.00000000000E+00 -0.50000000000E+03  0.50000000000E+03  0.00000000000E+00 0. -1.
        -11    1    1    2    0    0 -0.97493331180E+01  0.37321489922E+01  0.31400908520E+03  0.31418256479E+03  0.00000000000E+00 0. -1.
         11    1    1    2    0    0 -0.85204333104E+01 -0.23765261355E+01 -0.49730934596E+03  0.49738800874E+03  0.00000000000E+00 0. -1.
        -15    1    1    2    0    0  0.25611296767E+01 -0.50073865625E+01  0.15959086253E+03  0.15969982604E+03  0.17770000000E+01 0. -1.
         15    1    1    2    0    0  0.15708636752E+02  0.36517637058E+01  0.23709398236E+02  0.28729600423E+02  0.17770000000E+01 0.  1.
</event>
<event>
 6    1  0.1860328E-003  0.5208932E+03  0.7546771E-02  0.9354236E-01
        -11   -1    0    0    0    0  0.00000000000E+00  0.00000000000E+00  0.50000000000E+03  0.50000000000E+03  0.00000000000E+00 0.  1.
         11   -1    0    0    0    0 -0.00000000000E+00 -0.00000000000E+00 -0.50000000000E+03  0.50000000000E+03  0.00000000000E+00 0.  1.
        -11    1    1    2    0    0  0.13614106319E+02  0.24761186383E+00  0.47891325498E+03  0.47910678454E+03  0.00000000000E+00 0.  1.
         11    1    1    2    0    0  0.12155843702E+02  0.26041537235E+01 -0.21196016934E+03  0.21232442050E+03  0.00000000000E+00 0.  1.
        -15    1    1    2    0    0 -0.12397412478E+02 -0.10485462241E+02  0.17358393787E+02  0.23835106848E+02  0.17770000000E+01 0. -1.
         15    1    1    2    0    0 -0.13372537543E+02  0.76336966542E+01 -0.28431147942E+03  0.28473368811E+03  0.17770000000E+01 0.  1.
</event>
<event>
 6    1  0.1860328E-003  0.5064366E+03  0.7546771E-02  0.9385521E-01
        -11   -1    0    0    0    0  0.00000000000E+00  0.00000000000E+00  0.50000000000E+03  0.50000000000E+03  0.00000000000E+00 0. -1.
         11   -1    0    0    0    0 -0.00000000000E+00 -0.00000000000E+00 -0.50000000000E+03  0.50000000000E+03  0.00000000000E+00 0. -1.
        -11    1    1    2    0    0  0.15016993232E+02  0.48894801325E+01  0.49331067518E+03  0.49356340965E+03  0.00000000000E+00 0. -1.
         11    1    1    2    0    0  0.57384528169E+00  0.78356360166E+01 -0.45696098426E+03  0.45702851949E+03  0.00000000000E+00 0. -1.
        -15    1    1    2    0    0 -0.47893469694E+01  0.81396469019E+01 -0.13625347683E+02  0.16673317743E+02  0.17770000000E+01 0. -1.
         15    1    1    2    0    0 -0.10801491544E+02 -0.20864763051E+02 -0.22724343237E+02  0.32734753112E+02  0.17770000000E+01 0.  1.
</event>
<event>
 6    1  0.1860328E-003  0.5061138E+03  0.7546771E-02  0.9386233E-01
        -11   -1    0    0    0    0  0.00000000000E+00  0.00000000000E+00  0.50000000000E+03  0.50000000000E+03  0.00000000000E+00 0. -1.
         11   -1    0    0    0    0 -0.00000000000E+00 -0.00000000000E+00 -0.50000000000E+03  0.50000000000E+03  0.00000000000E+00 0.  1.
        -11    1    1    2    0    0  0.10616635511E+02 -0.52707657377E+01  0.49374393199E+03  0.49388618557E+03  0.00000000000E+00 0. -1.
         11    1    1    2    0    0 -0.62889260954E+00 -0.60959865031E+01 -0.39830667066E+03  0.39835381314E+03  0.00000000000E+00 0.  1.
        -15    1    1    2    0    0 -0.25410335471E+02  0.65937385904E+01 -0.83653075693E+02  0.87693542175E+02  0.17770000000E+01 0. -1.
         15    1    1    2    0    0  0.15422592570E+02  0.47730136504E+01 -0.11784185642E+02  0.20066459108E+02  0.17770000000E+01 0.  1.
</event>
<event>
 6    1  0.1860328E-003  0.5042463E+03  0.7546771E-02  0.9390358E-01
        -11   -1    0    0    0    0  0.00000000000E+00  0.00000000000E+00  0.50000000000E+03  0.50000000000E+03  0.00000000000E+00 0. -1.
         11   -1    0    0    0    0 -0.00000000000E+00 -0.00000000000E+00 -0.50000000000E+03  0.50000000000E+03  0.00000000000E+00 0. -1.
        -11    1    1    2    0    0  0.39762507048E+01 -0.28267684621E+01  0.18756223651E+03  0.18762567456E+03  0.00000000000E+00 0. -1.
         11    1    1    2    0    0  0.18191515487E+02  0.12434251458E+02 -0.49526376872E+03  0.49575371148E+03  0.00000000000E+00 0. -1.
        -15    1    1    2    0    0 -0.64774451942E+01 -0.18502324022E+02  0.19023252327E+02  0.27373986713E+02  0.17770000000E+01 0.  1.
         15    1    1    2    0    0 -0.15690320997E+02  0.88948410267E+01  0.28867827988E+03  0.28924662724E+03  0.17770000000E+01 0. -1.
</event>
<event>
 6    1  0.1860328E-003  0.5010171E+03  0.7546771E-02  0.9397537E-01
        -11   -1    0    0    0    0  0.00000000000E+00  0.00000000000E+00  0.50000000000E+03  0.50000000000E+03  0.00000000000E+00 0. -1.
         11   -1    0    0    0    0 -0.00000000000E+00 -0.00000000000E+00 -0.50000000000E+03  0.50000000000E+03  0.00000000000E+00 0.  1.
        -11    1    1    2    0    0 -0.31325315012E+00 -0.76114677382E+01  0.49892473328E+03  0.49898288753E+03  0.00000000000E+00 0. -1.
         11    1    1    2    0    0 -0.46263581178E+01  0.93468559522E+01 -0.45643463604E+03  0.45655376888E+03  0.00000000000E+00 0.  1.
        -15    1    1    2    0    0 -0.92690237967E-01  0.11743035551E+01 -0.71550280665E+00  0.22488338280E+01  0.17770000000E+01 0. -1.
         15    1    1    2    0    0  0.50323015059E+01 -0.29096917691E+01 -0.41774594438E+02  0.42214509758E+02  0.17770000000E+01 0.  1.
</event>
<event>
 6    1  0.1860328E-003  0.5046172E+03  0.7546771E-02  0.9389537E-01
        -11   -1    0    0    0    0  0.00000000000E+00  0.00000000000E+00  0.50000000000E+03  0.50000000000E+03  0.00000000000E+00 0. -1.
         11   -1    0    0    0    0 -0.00000000000E+00 -0.00000000000E+00 -0.50000000000E+03  0.50000000000E+03  0.00000000000E+00 0. -1.
        -11    1    1    2    0    0 -0.79119756016E+01 -0.34863537122E+00  0.48524188683E+03  0.48530651102E+03  0.00000000000E+00 0. -1.
         11    1    1    2    0    0  0.46623007563E+01  0.74753858141E+01 -0.49530448517E+03  0.49538283325E+03  0.00000000000E+00 0. -1.
        -15    1    1    2    0    0  0.62910581342E+01 -0.11995386140E+01  0.10472574763E+02  0.12403582406E+02  0.17770000000E+01 0.  1.
         15    1    1    2    0    0 -0.30413832889E+01 -0.59272118289E+01 -0.40997641479E+00  0.69070733335E+01  0.17770000000E+01 0.  1.
</event>
<event>
 6    1  0.1860328E-003  0.5057731E+03  0.7546771E-02  0.9386984E-01
        -11   -1    0    0    0    0  0.00000000000E+00  0.00000000000E+00  0.50000000000E+03  0.50000000000E+03  0.00000000000E+00 0. -1.
         11   -1    0    0    0    0 -0.00000000000E+00 -0.00000000000E+00 -0.50000000000E+03  0.50000000000E+03  0.00000000000E+00 0.  1.
        -11    1    1    2    0    0 -0.10685663922E+02  0.39177197461E+01  0.39854204542E+03  0.39870451955E+03  0.00000000000E+00 0. -1.
         11    1    1    2    0    0 -0.19019468339E+02 -0.40697867043E+01 -0.49384405763E+03  0.49422692824E+03  0.00000000000E+00 0.  1.
        -15    1    1    2    0    0  0.18534556869E+02 -0.86017852520E-01  0.93830032702E+02  0.95659656926E+02  0.17770000000E+01 0. -1.
         15    1    1    2    0    0  0.11170575393E+02  0.23808481079E+00  0.14719795103E+01  0.11408895286E+02  0.17770000000E+01 0.  1.
</event>
<event>
 6    1  0.1860328E-003  0.5043871E+03  0.7546771E-02  0.9390046E-01
        -11   -1    0    0    0    0  0.00000000000E+00  0.00000000000E+00  0.50000000000E+03  0.50000000000E+03  0.00000000000E+00 0. -1.
         11   -1    0    0    0    0 -0.00000000000E+00 -0.00000000000E+00 -0.50000000000E+03  0.50000000000E+03  0.00000000000E+00 0. -1.
        -11    1    1    2    0    0  0.20397374131E+01  0.14409150071E+02  0.49539916569E+03  0.49561287059E+03  0.00000000000E+00 0. -1.
         11    1    1    2    0    0 -0.57730004309E+01 -0.14401675891E+01 -0.35914707170E+03  0.35919635400E+03  0.00000000000E+00 0. -1.
        -15    1    1    2    0    0  0.61467347995E+01 -0.25721467072E+02 -0.39580254334E+02  0.47635391036E+02  0.17770000000E+01 0.  1.
         15    1    1    2    0    0 -0.24134717817E+01  0.12752484590E+02 -0.96671839655E+02  0.97555384375E+02  0.17770000000E+01 0. -1.
</event>
<event>
 6    1  0.1860328E-003  0.5042660E+03  0.7546771E-02  0.9390314E-01
        -11   -1    0    0    0    0  0.00000000000E+00  0.00000000000E+00  0.50000000000E+03  0.50000000000E+03  0.00000000000E+00 0.  1.
         11   -1    0    0    0    0 -0.00000000000E+00 -0.00000000000E+00 -0.50000000000E+03  0.50000000000E+03  0.00000000000E+00 0.  1.
        -11    1    1    2    0    0 -0.44802796568E+01  0.57286824655E+00  0.28459571842E+03  0.28463155838E+03  0.00000000000E+00 0.  1.
         11    1    1    2    0    0 -0.60087173765E+01 -0.68961571878E+01 -0.49564956219E+03  0.49573395099E+03  0.00000000000E+00 0.  1.
        -15    1    1    2    0    0 -0.54698425430E+01 -0.10054668839E+02  0.18314056145E+03  0.18350650811E+03  0.17770000000E+01 0.  1.
         15    1    1    2    0    0  0.15958839576E+02  0.16377957781E+02  0.27913282321E+02  0.36127982515E+02  0.17770000000E+01 0. -1.
</event>
<event>
 6    1  0.1860328E-003  0.4798161E+03  0.7546771E-02  0.9446141E-01
        -11   -1    0    0    0    0  0.00000000000E+00  0.00000000000E+00  0.50000000000E+03  0.50000000000E+03  0.00000000000E+00 0. -1.
         11   -1    0    0    0    0 -0.00000000000E+00 -0.00000000000E+00 -0.50000000000E+03  0.50000000000E+03  0.00000000000E+00 0.  1.
        -11    1    1    2    0    0  0.61961278548E+01  0.11704455875E+02  0.47924706130E+03  0.47943000746E+03  0.00000000000E+00 0. -1.
         11    1    1    2    0    0 -0.63877535012E+01 -0.15190021866E+01 -0.48021194781E+03  0.48025683293E+03  0.00000000000E+00 0.  1.
        -15    1    1    2    0    0 -0.43685008430E+01 -0.10607560346E+02  0.18644861702E+02  0.21963440828E+02  0.17770000000E+01 0.  1.
         15    1    1    2    0    0  0.45601264894E+01  0.42210665805E+00 -0.17679975193E+02  0.18349718784E+02  0.17770000000E+01 0.  1.
</event>
<event>
 6    1  0.1860328E-003  0.4786401E+03  0.7546771E-02  0.9448915E-01
        -11   -1    0    0    0    0  0.00000000000E+00  0.00000000000E+00  0.50000000000E+03  0.50000000000E+03  0.00000000000E+00 0.  1.
         11   -1    0    0    0    0 -0.00000000000E+00 -0.00000000000E+00 -0.50000000000E+03  0.50000000000E+03  0.00000000000E+00 0.  1.
        -11    1    1    2    0    0 -0.80935854208E+01 -0.49544586704E+01  0.47925570147E+03  0.47934964293E+03  0.00000000000E+00 0.  1.
         11    1    1    2    0    0  0.62809390251E+01 -0.16175548772E+01 -0.47791180567E+03  0.47795581456E+03  0.00000000000E+00 0.  1.
        -15    1    1    2    0    0  0.79916924439E+01  0.30464115302E+01  0.19085221856E+02  0.20989311414E+02  0.17770000000E+01 0.  1.
         15    1    1    2    0    0 -0.61790460482E+01  0.35256020175E+01 -0.20429117656E+02  0.21705231094E+02  0.17770000000E+01 0.  1.
</event>
<event>
 6    1  0.1860328E-003  0.3803900E+03  0.7546771E-02  0.9716185E-01
        -11   -1    0    0    0    0  0.00000000000E+00  0.00000000000E+00  0.50000000000E+03  0.50000000000E+03  0.00000000000E+00 0.  1.
         11   -1    0    0    0    0 -0.00000000000E+00 -0.00000000000E+00 -0.50000000000E+03  0.50000000000E+03  0.00000000000E+00 0. -1.
        -11    1    1    2    0    0 -0.72840325815E+01  0.24025178454E+01  0.40655443945E+03  0.40662678399E+03  0.00000000000E+00 0.  1.
         11    1    1    2    0    0 -0.16278227210E+01 -0.26020336118E+01 -0.14339112883E+03  0.14342397364E+03  0.00000000000E+00 0. -1.
        -15    1    1    2    0    0 -0.41128417323E+01 -0.16131325413E+02  0.92331365814E+02  0.93836954174E+02  0.17770000000E+01 0.  1.
         15    1    1    2    0    0  0.13024697035E+02  0.16330841179E+02 -0.35549467643E+03  0.35611228820E+03  0.17770000000E+01 0. -1.
</event>
<event>
 6    1  0.1860328E-003  0.5128657E+03  0.7546771E-02  0.9371473E-01
        -11   -1    0    0    0    0  0.00000000000E+00  0.00000000000E+00  0.50000000000E+03  0.50000000000E+03  0.00000000000E+00 0.  1.
         11   -1    0    0    0    0 -0.00000000000E+00 -0.00000000000E+00 -0.50000000000E+03  0.50000000000E+03  0.00000000000E+00 0. -1.
        -11    1    1    2    0    0  0.13511785536E+02 -0.40409373340E+02  0.25256371033E+03  0.25613260936E+03  0.00000000000E+00 0.  1.
         11    1    1    2    0    0 -0.16753411482E+02 -0.91757532094E+01 -0.48675964020E+03  0.48713429213E+03  0.00000000000E+00 0. -1.
        -15    1    1    2    0    0 -0.29704132961E+02  0.58520788530E+01  0.16843292696E+03  0.17114143553E+03  0.17770000000E+01 0.  1.
         15    1    1    2    0    0  0.32945758906E+02  0.43733047697E+02  0.65763002908E+02  0.85591662977E+02  0.17770000000E+01 0. -1.
</event>
<event>
 6    1  0.1860328E-003  0.5297017E+03  0.7546771E-02  0.9335697E-01
        -11   -1    0    0    0    0  0.00000000000E+00  0.00000000000E+00  0.50000000000E+03  0.50000000000E+03  0.00000000000E+00 0.  1.
         11   -1    0    0    0    0 -0.00000000000E+00 -0.00000000000E+00 -0.50000000000E+03  0.50000000000E+03  0.00000000000E+00 0. -1.
        -11    1    1    2    0    0  0.28844621973E+00  0.69824345795E+01  0.47024637179E+03  0.47029829659E+03  0.00000000000E+00 0.  1.
         11    1    1    2    0    0 -0.30190474101E+01 -0.59403707916E+02 -0.35178602722E+03  0.35677909708E+03  0.00000000000E+00 0. -1.
        -15    1    1    2    0    0 -0.80668549504E+01  0.29771107538E+01  0.21959785715E+02  0.23650100526E+02  0.17770000000E+01 0.  1.
         15    1    1    2    0    0  0.10797456141E+02  0.49444162583E+02 -0.14042013028E+03  0.14927250581E+03  0.17770000000E+01 0. -1.
</event>
<event>
 6    1  0.1860328E-003  0.5098183E+03  0.7546771E-02  0.9378105E-01
        -11   -1    0    0    0    0  0.00000000000E+00  0.00000000000E+00  0.50000000000E+03  0.50000000000E+03  0.00000000000E+00 0. -1.
         11   -1    0    0    0    0 -0.00000000000E+00 -0.00000000000E+00 -0.50000000000E+03  0.50000000000E+03  0.00000000000E+00 0. -1.
        -11    1    1    2    0    0 -0.12997881503E+02  0.83700085438E+01  0.47935126871E+03  0.47960050123E+03  0.00000000000E+00 0. -1.
         11    1    1    2    0    0  0.53925810220E+01  0.45891651227E+01 -0.49013052279E+03  0.49018167014E+03  0.00000000000E+00 0. -1.
        -15    1    1    2    0    0  0.15395920057E+02 -0.42986034859E+01  0.85865094409E+01  0.18231791456E+02  0.17770000000E+01 0. -1.
         15    1    1    2    0    0 -0.77906195763E+01 -0.86605701806E+01  0.21927446441E+01  0.11986037181E+02  0.17770000000E+01 0.  1.
</event>
<event>
 6    1  0.1860328E-003  0.4939351E+03  0.7546771E-02  0.9413484E-01
        -11   -1    0    0    0    0  0.00000000000E+00  0.00000000000E+00  0.50000000000E+03  0.50000000000E+03  0.00000000000E+00 0. -1.
         11   -1    0    0    0    0 -0.00000000000E+00 -0.00000000000E+00 -0.50000000000E+03  0.50000000000E+03  0.00000000000E+00 0.  1.
        -11    1    1    2    0    0  0.13510700262E+02  0.25904851574E+01  0.49251318406E+03  0.49270527306E+03  0.00000000000E+00 0. -1.
         11    1    1    2    0    0 -0.12384299911E+02  0.15706607739E+01 -0.49502017208E+03  0.49517755263E+03  0.00000000000E+00 0.  1.
        -15    1    1    2    0    0 -0.28401215314E+01 -0.33881997160E+01  0.60683150542E+01  0.77154626709E+01  0.17770000000E+01 0. -1.
         15    1    1    2    0    0  0.17137211801E+01 -0.77294621535E+00 -0.35613270323E+01  0.44017116405E+01  0.17770000000E+01 0.  1.
</event>
<event>
 6    1  0.1860328E-003  0.5007684E+03  0.7546771E-02  0.9398092E-01
        -11   -1    0    0    0    0  0.00000000000E+00  0.00000000000E+00  0.50000000000E+03  0.50000000000E+03  0.00000000000E+00 0. -1.
         11   -1    0    0    0    0 -0.00000000000E+00 -0.00000000000E+00 -0.50000000000E+03  0.50000000000E+03  0.00000000000E+00 0.  1.
        -11    1    1    2    0    0  0.46013626542E+01 -0.57691154242E+01  0.43121604838E+03  0.43127918522E+03  0.00000000000E+00 0. -1.
         11    1    1    2    0    0  0.61441123381E+01  0.40689208387E+01 -0.49917719435E+03  0.49923158714E+03  0.00000000000E+00 0.  1.
        -15    1    1    2    0    0 -0.25379436890E+00  0.15886063632E+01  0.41146469827E+01  0.47619460887E+01  0.17770000000E+01 0.  1.
         15    1    1    2    0    0 -0.10491680623E+02  0.11158822232E+00  0.63846498993E+02  0.64727281550E+02  0.17770000000E+01 0.  1.
</event>
<event>
 6    1  0.1860328E-003  0.4765134E+03  0.7546771E-02  0.9453953E-01
        -11   -1    0    0    0    0  0.00000000000E+00  0.00000000000E+00  0.50000000000E+03  0.50000000000E+03  0.00000000000E+00 0. -1.
         11   -1    0    0    0    0 -0.00000000000E+00 -0.00000000000E+00 -0.50000000000E+03  0.50000000000E+03  0.00000000000E+00 0. -1.
        -11    1    1    2    0    0 -0.12034361469E+02 -0.16392327051E+01  0.46986247651E+03  0.47001942489E+03  0.00000000000E+00 0. -1.
         11    1    1    2    0    0 -0.11048094536E+02 -0.77030386394E+01 -0.48323873023E+03  0.48342638281E+03  0.00000000000E+00 0. -1.
        -15    1    1    2    0    0  0.20384062239E+02  0.15461429700E+01  0.24903298227E+02  0.32268135103E+02  0.17770000000E+01 0. -1.
         15    1    1    2    0    0  0.26983937666E+01  0.77961283745E+01 -0.11527044503E+02  0.14286057207E+02  0.17770000000E+01 0.  1.
</event>
<event>
 6    1  0.1860328E-003  0.5033145E+03  0.7546771E-02  0.9392424E-01
        -11   -1    0    0    0    0  0.00000000000E+00  0.00000000000E+00  0.50000000000E+03  0.50000000000E+03  0.00000000000E+00 0.  1.
         11   -1    0    0    0    0 -0.00000000000E+00 -0.00000000000E+00 -0.50000000000E+03  0.50000000000E+03  0.00000000000E+00 0.  1.
        -11    1    1    2    0    0  0.70923077304E+01  0.68871617055E+01  0.44286251575E+03  0.44297284531E+03  0.00000000000E+00 0.  1.
         11    1    1    2    0    0  0.23532403868E+01  0.11257481802E+02 -0.49655235877E+03  0.49668552791E+03  0.00000000000E+00 0.  1.
        -15    1    1    2    0    0 -0.30202538075E+01 -0.90672669819E+01  0.45211443234E+02  0.46244670957E+02  0.17770000000E+01 0. -1.
         15    1    1    2    0    0 -0.64252943097E+01 -0.90773765254E+01  0.84783997873E+01  0.14096955824E+02  0.17770000000E+01 0.  1.
</event>
<event>
 6    1  0.1860328E-003  0.5017384E+03  0.7546771E-02  0.9395928E-01
        -11   -1    0    0    0    0  0.00000000000E+00  0.00000000000E+00  0.50000000000E+03  0.50000000000E+03  0.00000000000E+00 0. -1.
         11   -1    0    0    0    0 -0.00000000000E+00 -0.00000000000E+00 -0.50000000000E+03  0.50000000000E+03  0.00000000000E+00 0.  1.
        -11    1    1    2    0    0  0.83801184947E+01  0.63077720076E+01  0.36084410573E+03  0.36099651385E+03  0.00000000000E+00 0. -1.
         11    1    1    2    0    0  0.40769221797E+01  0.82741989551E+01 -0.49817623049E+03  0.49826161831E+03  0.00000000000E+00 0.  1.
        -15    1    1    2    0    0 -0.54964198454E+01 -0.19994617607E+02  0.77870065761E+02  0.80603351264E+02  0.17770000000E+01 0.  1.
         15    1    1    2    0    0 -0.69606208290E+01  0.54126466441E+01  0.59462058997E+02  0.60138516569E+02  0.17770000000E+01 0. -1.
</event>
<event>
 6    1  0.1860328E-003  0.5240117E+03  0.7546771E-02  0.9347629E-01
        -11   -1    0    0    0    0  0.00000000000E+00  0.00000000000E+00  0.50000000000E+03  0.50000000000E+03  0.00000000000E+00 0.  1.
         11   -1    0    0    0    0 -0.00000000000E+00 -0.00000000000E+00 -0.50000000000E+03  0.50000000000E+03  0.00000000000E+00 0. -1.
        -11    1    1    2    0    0 -0.37868878271E+02  0.14775992052E+02  0.23437377712E+03  0.23787275860E+03  0.00000000000E+00 0.  1.
         11    1    1    2    0    0 -0.11220950573E+02  0.50292004862E+01 -0.47582941036E+03  0.47598826703E+03  0.00000000000E+00 0. -1.
        -15    1    1    2    0    0  0.27797606076E+02  0.15248340351E+02  0.24299209997E+03  0.24505823219E+03  0.17770000000E+01 0. -1.
         15    1    1    2    0    0  0.21292222768E+02 -0.35053532890E+02 -0.15364667343E+01  0.41080742173E+02  0.17770000000E+01 0.  1.
</event>
<event>
 6    1  0.1860328E-003  0.5029823E+03  0.7546771E-02  0.9393161E-01
        -11   -1    0    0    0    0  0.00000000000E+00  0.00000000000E+00  0.50000000000E+03  0.50000000000E+03  0.00000000000E+00 0.  1.
         11   -1    0    0    0    0 -0.00000000000E+00 -0.00000000000E+00 -0.50000000000E+03  0.50000000000E+03  0.00000000000E+00 0.  1.
        -11    1    1    2    0    0  0.66015104384E+01  0.26812174453E+01  0.49696657850E+03  0.49701765463E+03  0.00000000000E+00 0.  1.
         11    1    1    2    0    0  0.84162815514E+01 -0.14589926416E+01 -0.46940197546E+03  0.46947968754E+03  0.00000000000E+00 0.  1.
        -15    1    1    2    0    0 -0.14307575237E+02  0.67902751996E+00 -0.15663032581E+02  0.21299204355E+02  0.17770000000E+01 0.  1.
         15    1    1    2    0    0 -0.71021675256E+00 -0.19012523237E+01 -0.11901570462E+02  0.12203453474E+02  0.17770000000E+01 0. -1.
</event>
<event>
 6    1  0.1860328E-003  0.5014417E+03  0.7546771E-02  0.9396589E-01
        -11   -1    0    0    0    0  0.00000000000E+00  0.00000000000E+00  0.50000000000E+03  0.50000000000E+03  0.00000000000E+00 0. -1.
         11   -1    0    0    0    0 -0.00000000000E+00 -0.00000000000E+00 -0.50000000000E+03  0.50000000000E+03  0.00000000000E+00 0.  1.
        -11    1    1    2    0    0 -0.24171312359E+01  0.10588842330E+02  0.43645702937E+03  0.43659214903E+03  0.00000000000E+00 0. -1.
         11    1    1    2    0    0  0.11449730608E+02 -0.33007761788E+01 -0.49841584309E+03  0.49855826550E+03  0.00000000000E+00 0.  1.
        -15    1    1    2    0    0  0.23388261991E+01 -0.70422121476E+01  0.24064987185E+02  0.25245676801E+02  0.17770000000E+01 0. -1.
         15    1    1    2    0    0 -0.11371425571E+02 -0.24585400388E+00  0.37893826533E+02  0.39603908671E+02  0.17770000000E+01 0.  1.
</event>
<event>
 6    1  0.1860328E-003  0.5008240E+03  0.7546771E-02  0.9397968E-01
        -11   -1    0    0    0    0  0.00000000000E+00  0.00000000000E+00  0.50000000000E+03  0.50000000000E+03  0.00000000000E+00 0. -1.
         11   -1    0    0    0    0 -0.00000000000E+00 -0.00000000000E+00 -0.50000000000E+03  0.50000000000E+03  0.00000000000E+00 0. -1.
        -11    1    1    2    0    0 -0.60452570294E+01 -0.32725189405E+01  0.42467655712E+03  0.42473218937E+03  0.00000000000E+00 0. -1.
         11    1    1    2    0    0  0.66416591575E+01 -0.66228324534E+01 -0.49908785583E+03  0.49917598238E+03  0.00000000000E+00 0. -1.
        -15    1    1    2    0    0 -0.36141821459E+01  0.15169929149E+01  0.47399624798E+02  0.47594597804E+02  0.17770000000E+01 0. -1.
         15    1    1    2    0    0  0.30177800179E+01  0.83783584790E+01  0.27011673908E+02  0.28497230450E+02  0.17770000000E+01 0.  1.
</event>
<event>
 6    1  0.1860328E-003  0.5031471E+03  0.7546771E-02  0.9392795E-01
        -11   -1    0    0    0    0  0.00000000000E+00  0.00000000000E+00  0.50000000000E+03  0.50000000000E+03  0.00000000000E+00 0. -1.
         11   -1    0    0    0    0 -0.00000000000E+00 -0.00000000000E+00 -0.50000000000E+03  0.50000000000E+03  0.00000000000E+00 0.  1.
        -11    1    1    2    0    0  0.10522129178E+02  0.27872572322E+01  0.49673369839E+03  0.49685294718E+03  0.00000000000E+00 0. -1.
         11    1    1    2    0    0 -0.10728540386E+01 -0.10144936928E+02 -0.42511894575E+03  0.42524133006E+03  0.00000000000E+00 0.  1.
        -15    1    1    2    0    0 -0.61089354700E+01  0.16877549230E+02 -0.29620283138E+02  0.34679816360E+02  0.17770000000E+01 0.  1.
         15    1    1    2    0    0 -0.33403396692E+01 -0.95198695337E+01 -0.41994469511E+02  0.43225906394E+02  0.17770000000E+01 0. -1.
</event>
<event>
 6    1  0.1860328E-003  0.5018338E+03  0.7546771E-02  0.9395716E-01
        -11   -1    0    0    0    0  0.00000000000E+00  0.00000000000E+00  0.50000000000E+03  0.50000000000E+03  0.00000000000E+00 0. -1.
         11   -1    0    0    0    0 -0.00000000000E+00 -0.00000000000E+00 -0.50000000000E+03  0.50000000000E+03  0.00000000000E+00 0.  1.
        -11    1    1    2    0    0 -0.18437221827E+02  0.22384738409E+01  0.33813980704E+03  0.33864948105E+03  0.00000000000E+00 0. -1.
         11    1    1    2    0    0 -0.84627040883E+01  0.15958807898E+01 -0.49809177293E+03  0.49816621569E+03  0.00000000000E+00 0.  1.
        -15    1    1    2    0    0  0.46941695749E+01  0.57709330617E+01  0.50517373022E+02  0.51093068047E+02  0.17770000000E+01 0.  1.
         15    1    1    2    0    0  0.22205756340E+02 -0.96052876924E+01  0.10943459287E+03  0.11209123521E+03  0.17770000000E+01 0. -1.
</event>
<event>
 6    1  0.1860328E-003  0.5064603E+03  0.7546771E-02  0.9385469E-01
        -11   -1    0    0    0    0  0.00000000000E+00  0.00000000000E+00  0.50000000000E+03  0.50000000000E+03  0.00000000000E+00 0.  1.
         11   -1    0    0    0    0 -0.00000000000E+00 -0.00000000000E+00 -0.50000000000E+03  0.50000000000E+03  0.00000000000E+00 0. -1.
        -11    1    1    2    0    0  0.10728365767E+02 -0.13987691216E+02  0.49322482471E+03  0.49353974617E+03  0.00000000000E+00 0.  1.
         11    1    1    2    0    0  0.12806406267E+01 -0.12242806446E+01 -0.12139198141E+03  0.12140490951E+03  0.00000000000E+00 0. -1.
        -15    1    1    2    0    0 -0.45833375901E+01  0.57144838827E+02 -0.21995949265E+03  0.22731448639E+03  0.17770000000E+01 0.  1.
         15    1    1    2    0    0 -0.74256688035E+01 -0.41932866967E+02 -0.15187335066E+03  0.15774085792E+03  0.17770000000E+01 0. -1.
</event>
<event>
 6    1  0.1860328E-003  0.4794075E+03  0.7546771E-02  0.9447104E-01
        -11   -1    0    0    0    0  0.00000000000E+00  0.00000000000E+00  0.50000000000E+03  0.50000000000E+03  0.00000000000E+00 0. -1.
         11   -1    0    0    0    0 -0.00000000000E+00 -0.00000000000E+00 -0.50000000000E+03  0.50000000000E+03  0.00000000000E+00 0. -1.
        -11    1    1    2    0    0  0.79262388479E+01  0.22696289555E+01  0.47852109331E+03  0.47859211571E+03  0.00000000000E+00 0. -1.
         11    1    1    2    0    0  0.69918491385E+01 -0.14869160236E+01 -0.48028769694E+03  0.48034088802E+03  0.00000000000E+00 0. -1.
        -15    1    1    2    0    0 -0.51671219912E+01  0.10509430102E+01 -0.18020739482E+02  0.18860233597E+02  0.17770000000E+01 0.  1.
         15    1    1    2    0    0 -0.97509659953E+01 -0.18336559421E+01  0.19787343115E+02  0.22206762675E+02  0.17770000000E+01 0. -1.
</event>
<event>
 6    1  0.1860328E-003  0.5057454E+03  0.7546771E-02  0.9387045E-01
        -11   -1    0    0    0    0  0.00000000000E+00  0.00000000000E+00  0.50000000000E+03  0.50000000000E+03  0.00000000000E+00 0. -1.
         11   -1    0    0    0    0 -0.00000000000E+00 -0.00000000000E+00 -0.50000000000E+03  0.50000000000E+03  0.00000000000E+00 0.  1.
        -11    1    1    2    0    0  0.74461511365E+01 -0.54733433310E+00  0.35747739036E+03  0.35755535146E+03  0.00000000000E+00 0. -1.
         11    1    1    2    0    0  0.16001856490E+02  0.21969615984E+02 -0.49350668541E+03  0.49425456192E+03  0.00000000000E+00 0.  1.
        -15    1    1    2    0    0 -0.17489462109E+01 -0.72933280796E+01  0.11367469567E+03  0.11393570824E+03  0.17770000000E+01 0. -1.
         15    1    1    2    0    0 -0.21699061416E+02 -0.14128953571E+02  0.22354599378E+02  0.34254378373E+02  0.17770000000E+01 0.  1.
</event>
<event>
 6    1  0.1860328E-003  0.5000896E+03  0.7546771E-02  0.9399609E-01
        -11   -1    0    0    0    0  0.00000000000E+00  0.00000000000E+00  0.50000000000E+03  0.50000000000E+03  0.00000000000E+00 0. -1.
         11   -1    0    0    0    0 -0.00000000000E+00 -0.00000000000E+00 -0.50000000000E+03  0.50000000000E+03  0.00000000000E+00 0.  1.
        -11    1    1    2    0    0  0.22620510740E+01  0.14088949875E+00  0.78699446490E+02  0.78732074803E+02  0.00000000000E+00 0. -1.
         11    1    1    2    0    0  0.22380371497E+01 -0.11666591929E+02 -0.49976924997E+03  0.49991041336E+03  0.00000000000E+00 0.  1.
        -15    1    1    2    0    0 -0.23623113276E+01  0.12182029122E+02  0.36472064355E+03  0.36493600523E+03  0.17770000000E+01 0. -1.
         15    1    1    2    0    0 -0.21377768961E+01 -0.65632669111E+00  0.56349159921E+02  0.56421506605E+02  0.17770000000E+01 0. -1.
</event>
<event>
 6    1  0.1860328E-003  0.5109024E+03  0.7546771E-02  0.9375740E-01
        -11   -1    0    0    0    0  0.00000000000E+00  0.00000000000E+00  0.50000000000E+03  0.50000000000E+03  0.00000000000E+00 0. -1.
         11   -1    0    0    0    0 -0.00000000000E+00 -0.00000000000E+00 -0.50000000000E+03  0.50000000000E+03  0.00000000000E+00 0. -1.
        -11    1    1    2    0    0  0.79692013667E+01  0.13023692330E+02  0.48885922819E+03  0.48909760756E+03  0.00000000000E+00 0. -1.
         11    1    1    2    0    0  0.12751848506E+02  0.76461193269E+01 -0.29219258662E+03  0.29257064182E+03  0.00000000000E+00 0. -1.
        -15    1    1    2    0    0 -0.17793081185E+02 -0.18489427689E+02 -0.44882017126E+01  0.26110426230E+02  0.17770000000E+01 0.  1.
         15    1    1    2    0    0 -0.29279686884E+01 -0.21803839681E+01 -0.19217843986E+03  0.19222132439E+03  0.17770000000E+01 0. -1.
</event>
<event>
 6    1  0.1860328E-003  0.5108289E+03  0.7546771E-02  0.9375900E-01
        -11   -1    0    0    0    0  0.00000000000E+00  0.00000000000E+00  0.50000000000E+03  0.50000000000E+03  0.00000000000E+00 0.  1.
         11   -1    0    0    0    0 -0.00000000000E+00 -0.00000000000E+00 -0.50000000000E+03  0.50000000000E+03  0.00000000000E+00 0.  1.
        -11    1    1    2    0    0 -0.12397269292E+02  0.12291894059E+02  0.79189884172E+02  0.81091434200E+02  0.00000000000E+00 0.  1.
         11    1    1    2    0    0 -0.21840311168E+01  0.71486984699E+01 -0.48911403338E+03  0.48917114748E+03  0.00000000000E+00 0.  1.
        -15    1    1    2    0    0  0.27712725236E+02 -0.14921224284E+02  0.41396637001E+03  0.41516496878E+03  0.17770000000E+01 0.  1.
         15    1    1    2    0    0 -0.13131424827E+02 -0.45193682447E+01 -0.40422208071E+01  0.14572449532E+02  0.17770000000E+01 0. -1.
</event>
<event>
 6    1  0.1860328E-003  0.5021853E+03  0.7546771E-02  0.9394933E-01
        -11   -1    0    0    0    0  0.00000000000E+00  0.00000000000E+00  0.50000000000E+03  0.50000000000E+03  0.00000000000E+00 0. -1.
         11   -1    0    0    0    0 -0.00000000000E+00 -0.00000000000E+00 -0.50000000000E+03  0.50000000000E+03  0.00000000000E+00 0. -1.
        -11    1    1    2    0    0  0.16355614920E+02  0.37395269328E+01  0.49753189301E+03  0.49781469922E+03  0.00000000000E+00 0. -1.
         11    1    1    2    0    0 -0.55384864862E+01 -0.73121631472E+01 -0.47079858327E+03  0.47088793632E+03  0.00000000000E+00 0. -1.
        -15    1    1    2    0    0 -0.12533224766E+02  0.37824132114E+01 -0.24987220209E+02  0.28264947824E+02  0.17770000000E+01 0.  1.
         15    1    1    2    0    0  0.17160963319E+01 -0.20977699699E+00 -0.17460895271E+01  0.30324166346E+01  0.17770000000E+01 0. -1.
</event>
<event>
 6    1  0.1860328E-003  0.5123036E+03  0.7546771E-02  0.9372693E-01
        -11   -1    0    0    0    0  0.00000000000E+00  0.00000000000E+00  0.50000000000E+03  0.50000000000E+03  0.00000000000E+00 0. -1.
         11   -1    0    0    0    0 -0.00000000000E+00 -0.00000000000E+00 -0.50000000000E+03  0.50000000000E+03  0.00000000000E+00 0.  1.
        -11    1    1    2    0    0 -0.88470837196E+01 -0.73095563212E+00  0.48761563091E+03  0.48769643088E+03  0.00000000000E+00 0. -1.
         11    1    1    2    0    0  0.79312758626E+01 -0.68542437093E+01 -0.19879880038E+03  0.19907498293E+03  0.00000000000E+00 0.  1.
        -15    1    1    2    0    0  0.83693249365E+01  0.20872524140E+02 -0.29559842062E+03  0.29645790910E+03  0.17770000000E+01 0.  1.
         15    1    1    2    0    0 -0.74535170795E+01 -0.13287324798E+02  0.67815900956E+01  0.16770677099E+02  0.17770000000E+01 0. -1.
</event>
<event>
 6    1  0.1860328E-003  0.5081487E+03  0.7546771E-02  0.9381759E-01
        -11   -1    0    0    0    0  0.00000000000E+00  0.00000000000E+00  0.50000000000E+03  0.50000000000E+03  0.00000000000E+00 0. -1.
         11   -1    0    0    0    0 -0.00000000000E+00 -0.00000000000E+00 -0.50000000000E+03  0.50000000000E+03  0.00000000000E+00 0. -1.
        -11    1    1    2    0    0 -0.92587668224E+01  0.18884229493E+01  0.46101564653E+03  0.46111247787E+03  0.00000000000E+00 0. -1.
         11    1    1    2    0    0 -0.15238278594E+02  0.11523063015E+02 -0.49148012144E+03  0.49185129448E+03  0.00000000000E+00 0. -1.
        -15    1    1    2    0    0  0.15960801556E+02 -0.14256322013E+02  0.79861632671E+01  0.22911273128E+02  0.17770000000E+01 0.  1.
         15    1    1    2    0    0  0.85362438604E+01  0.84483604784E+00  0.22478311639E+02  0.24124954515E+02  0.17770000000E+01 0. -1.
</event>
<event>
 6    1  0.1860328E-003  0.5039970E+03  0.7546771E-02  0.9390910E-01
        -11   -1    0    0    0    0  0.00000000000E+00  0.00000000000E+00  0.50000000000E+03  0.50000000000E+03  0.00000000000E+00 0. -1.
         11   -1    0    0    0    0 -0.00000000000E+00 -0.00000000000E+00 -0.50000000000E+03  0.50000000000E+03  0.00000000000E+00 0.  1.
        -11    1    1    2    0    0  0.11851335898E+02  0.80988854793E+01  0.28511933036E+03  0.28548043480E+03  0.00000000000E+00 0. -1.
         11    1    1    2    0    0  0.75705689359E+01 -0.52071615980E+01 -0.49591790537E+03  0.49600302107E+03  0.00000000000E+00 0.  1.
        -15    1    1    2    0    0 -0.45409654700E+01  0.93508139880E+01  0.18929134933E+03  0.18958489061E+03  0.17770000000E+01 0. -1.
         15    1    1    2    0    0 -0.14880939364E+02 -0.12242537869E+02  0.21507225674E+02  0.28931653513E+02  0.17770000000E+01 0.  1.
</event>
<event>
 6    1  0.1860328E-003  0.5111167E+03  0.7546771E-02  0.9375273E-01
        -11   -1    0    0    0    0  0.00000000000E+00  0.00000000000E+00  0.50000000000E+03  0.50000000000E+03  0.00000000000E+00 0.  1.
         11   -1    0    0    0    0 -0.00000000000E+00 -0.00000000000E+00 -0.50000000000E+03  0.50000000000E+03  0.00000000000E+00 0. -1.
        -11    1    1    2    0    0  0.21172189840E+02 -0.36904423252E+01  0.46855882006E+03  0.46905143518E+03  0.00000000000E+00 0.  1.
         11    1    1    2    0    0  0.63842727688E+01 -0.52867574359E+01 -0.48881300499E+03  0.48888328115E+03  0.00000000000E+00 0. -1.
        -15    1    1    2    0    0 -0.14095848519E+02  0.62669646682E+01 -0.22024474748E+01  0.15683631451E+02  0.17770000000E+01 0. -1.
         15    1    1    2    0    0 -0.13460614090E+02  0.27102350929E+01  0.22456632406E+02  0.26381652222E+02  0.17770000000E+01 0.  1.
</event>
<event>
 6    1  0.1860328E-003  0.5572113E+03  0.7546771E-02  0.9280175E-01
        -11   -1    0    0    0    0  0.00000000000E+00  0.00000000000E+00  0.50000000000E+03  0.50000000000E+03  0.00000000000E+00 0.  1.
         11   -1    0    0    0    0 -0.00000000000E+00 -0.00000000000E+00 -0.50000000000E+03  0.50000000000E+03  0.00000000000E+00 0.  1.
        -11    1    1    2    0    0  0.41408060690E+02 -0.43461777267E+02  0.38672312628E+03  0.39135448122E+03  0.00000000000E+00 0.  1.
         11    1    1    2    0    0  0.16269063922E+02  0.59010028241E+01 -0.44245041325E+03  0.44278874473E+03  0.00000000000E+00 0.  1.
        -15    1    1    2    0    0  0.23090177687E+02  0.25574456273E+02 -0.31246415801E+02  0.46547882322E+02  0.17770000000E+01 0. -1.
         15    1    1    2    0    0 -0.80767302299E+02  0.11986318170E+02  0.86973702769E+02  0.11930889173E+03  0.17770000000E+01 0.  1.
</event>
<event>
 6    1  0.1860328E-003  0.5020165E+03  0.7546771E-02  0.9395309E-01
        -11   -1    0    0    0    0  0.00000000000E+00  0.00000000000E+00  0.50000000000E+03  0.50000000000E+03  0.00000000000E+00 0. -1.
         11   -1    0    0    0    0 -0.00000000000E+00 -0.00000000000E+00 -0.50000000000E+03  0.50000000000E+03  0.00000000000E+00 0. -1.
        -11    1    1    2    0    0  0.18404823387E+01 -0.85773403229E+01  0.49790625210E+03  0.49798352786E+03  0.00000000000E+00 0. -1.
         11    1    1    2    0    0  0.71061678004E+01  0.90078994038E+00 -0.35577186029E+03  0.35584396245E+03  0.00000000000E+00 0. -1.
        -15    1    1    2    0    0  0.90115399164E+00  0.11063338108E+02 -0.15765567489E+02  0.19362860736E+02  0.17770000000E+01 0.  1.
         15    1    1    2    0    0 -0.98478041307E+01 -0.33867877257E+01 -0.12636882432E+03  0.12680964895E+03  0.17770000000E+01 0. -1.
</event>
<event>
 6    1  0.1860328E-003  0.5000964E+03  0.7546771E-02  0.9399594E-01
        -11   -1    0    0    0    0  0.00000000000E+00  0.00000000000E+00  0.50000000000E+03  0.50000000000E+03  0.00000000000E+00 0.  1.
         11   -1    0    0    0    0 -0.00000000000E+00 -0.00000000000E+00 -0.50000000000E+03  0.50000000000E+03  0.00000000000E+00 0. -1.
        -11    1    1    2    0    0  0.33787378866E+01  0.12470767398E+01  0.11014308765E+03  0.11020195473E+03  0.00000000000E+00 0.  1.
         11    1    1    2    0    0  0.42679655661E+01  0.59565835553E+01 -0.49984991325E+03  0.49990362291E+03  0.00000000000E+00 0. -1.
        -15    1    1    2    0    0 -0.43533322651E+01 -0.42577465396E+01  0.29473725139E+03  0.29480550366E+03  0.17770000000E+01 0. -1.
         15    1    1    2    0    0 -0.32933711875E+01 -0.29459137556E+01  0.94969574222E+02  0.95088918695E+02  0.17770000000E+01 0.  1.
</event>
<event>
 6    1  0.1860328E-003  0.2829491E+03  0.7546771E-02  0.1008403E+00
        -11   -1    0    0    0    0  0.00000000000E+00  0.00000000000E+00  0.50000000000E+03  0.50000000000E+03  0.00000000000E+00 0.  1.
         11   -1    0    0    0    0 -0.00000000000E+00 -0.00000000000E+00 -0.50000000000E+03  0.50000000000E+03  0.00000000000E+00 0.  1.
        -11    1    1    2    0    0 -0.42149214616E+01 -0.66659237455E+01  0.23411845706E+03  0.23425125835E+03  0.00000000000E+00 0.  1.
         11    1    1    2    0    0 -0.88911068167E+02  0.41252281446E+02 -0.39705620931E+03  0.40897501405E+03  0.00000000000E+00 0.  1.
        -15    1    1    2    0    0 -0.39359922010E+02  0.24107999011E+02  0.20157155599E+03  0.20679615323E+03  0.17770000000E+01 0. -1.
         15    1    1    2    0    0  0.13248591164E+03 -0.58694356712E+02 -0.38633803738E+02  0.14997757437E+03  0.17770000000E+01 0.  1.
</event>
<event>
 6    1  0.1860328E-003  0.5012473E+03  0.7546771E-02  0.9397023E-01
        -11   -1    0    0    0    0  0.00000000000E+00  0.00000000000E+00  0.50000000000E+03  0.50000000000E+03  0.00000000000E+00 0. -1.
         11   -1    0    0    0    0 -0.00000000000E+00 -0.00000000000E+00 -0.50000000000E+03  0.50000000000E+03  0.00000000000E+00 0.  1.
        -11    1    1    2    0    0  0.44842921292E+01  0.16575886467E+01  0.26211597168E+03  0.26215956799E+03  0.00000000000E+00 0. -1.
         11    1    1    2    0    0 -0.39091182942E+01 -0.57646766105E+01 -0.49870406912E+03  0.49875270552E+03  0.00000000000E+00 0.  1.
        -15    1    1    2    0    0 -0.62677464322E+01 -0.11180114508E+02  0.45728213553E+02  0.47523750372E+02  0.17770000000E+01 0.  1.
         15    1    1    2    0    0  0.56925725972E+01  0.15287202471E+02  0.19085988389E+03  0.19156397612E+03  0.17770000000E+01 0. -1.
</event>
<event>
 6    1  0.1860328E-003  0.5015516E+03  0.7546771E-02  0.9396344E-01
        -11   -1    0    0    0    0  0.00000000000E+00  0.00000000000E+00  0.50000000000E+03  0.50000000000E+03  0.00000000000E+00 0.  1.
         11   -1    0    0    0    0 -0.00000000000E+00 -0.00000000000E+00 -0.50000000000E+03  0.50000000000E+03  0.00000000000E+00 0.  1.
        -11    1    1    2    0    0 -0.30159819057E+01  0.77365154379E+01  0.49837918227E+03  0.49844835152E+03  0.00000000000E+00 0.  1.
         11    1    1    2    0    0 -0.69877380332E+01 -0.10443121267E+02 -0.32787730550E+03  0.32811798904E+03  0.00000000000E+00 0.  1.
        -15    1    1    2    0    0  0.88241500528E+01  0.10171648915E+02 -0.15886531867E+03  0.15944489729E+03  0.17770000000E+01 0.  1.
         15    1    1    2    0    0  0.11795698861E+01 -0.74650430858E+01 -0.11636558093E+02  0.13988762155E+02  0.17770000000E+01 0.  1.
</event>
<event>
 6    1  0.1860328E-003  0.5005142E+03  0.7546771E-02  0.9398660E-01
        -11   -1    0    0    0    0  0.00000000000E+00  0.00000000000E+00  0.50000000000E+03  0.50000000000E+03  0.00000000000E+00 0. -1.
         11   -1    0    0    0    0 -0.00000000000E+00 -0.00000000000E+00 -0.50000000000E+03  0.50000000000E+03  0.00000000000E+00 0. -1.
        -11    1    1    2    0    0  0.88342644947E+01  0.13668720742E+01  0.33118135998E+03  0.33130198575E+03  0.00000000000E+00 0. -1.
         11    1    1    2    0    0 -0.74784762370E+01 -0.10026829426E+02 -0.49932912984E+03  0.49948578040E+03  0.00000000000E+00 0. -1.
        -15    1    1    2    0    0 -0.69471347073E+01  0.44742373965E+01  0.13618394820E+03  0.13644598549E+03  0.17770000000E+01 0. -1.
         15    1    1    2    0    0  0.55913464495E+01  0.41857199555E+01  0.31963821670E+02  0.32766248357E+02  0.17770000000E+01 0.  1.
</event>
<event>
 6    1  0.1860328E-003  0.5005777E+03  0.7546771E-02  0.9398518E-01
        -11   -1    0    0    0    0  0.00000000000E+00  0.00000000000E+00  0.50000000000E+03  0.50000000000E+03  0.00000000000E+00 0.  1.
         11   -1    0    0    0    0 -0.00000000000E+00 -0.00000000000E+00 -0.50000000000E+03  0.50000000000E+03  0.00000000000E+00 0. -1.
        -11    1    1    2    0    0 -0.61187164578E+00  0.45362822444E+01  0.28988524581E+03  0.28992138242E+03  0.00000000000E+00 0.  1.
         11    1    1    2    0    0 -0.61733071645E+01 -0.10923835486E+02 -0.49926470129E+03  0.49942234817E+03  0.00000000000E+00 0. -1.
        -15    1    1    2    0    0  0.30573365958E+01 -0.73223462214E+01  0.10248968758E+03  0.10281175930E+03  0.17770000000E+01 0. -1.
         15    1    1    2    0    0  0.37278422144E+01  0.13709899463E+02  0.10688976789E+03  0.10784451011E+03  0.17770000000E+01 0.  1.
</event>
<event>
 6    1  0.1860328E-003  0.5010265E+03  0.7546771E-02  0.9397516E-01
        -11   -1    0    0    0    0  0.00000000000E+00  0.00000000000E+00  0.50000000000E+03  0.50000000000E+03  0.00000000000E+00 0.  1.
         11   -1    0    0    0    0 -0.00000000000E+00 -0.00000000000E+00 -0.50000000000E+03  0.50000000000E+03  0.00000000000E+00 0. -1.
        -11    1    1    2    0    0 -0.10304619917E+02  0.79963657954E+01  0.13894330518E+03  0.13955417984E+03  0.00000000000E+00 0.  1.
         11    1    1    2    0    0  0.69323018079E+01  0.55647811720E+01 -0.49889427483E+03  0.49897346728E+03  0.00000000000E+00 0. -1.
        -15    1    1    2    0    0 -0.13250070778E+01 -0.14038206612E+01  0.20497575082E+01  0.33295031233E+01  0.17770000000E+01 0. -1.
         15    1    1    2    0    0  0.46973251872E+01 -0.12157326306E+02  0.35790121214E+03  0.35814284975E+03  0.17770000000E+01 0.  1.
</event>
<event>
 6    1  0.1860328E-003  0.5040986E+03  0.7546771E-02  0.9390685E-01
        -11   -1    0    0    0    0  0.00000000000E+00  0.00000000000E+00  0.50000000000E+03  0.50000000000E+03  0.00000000000E+00 0.  1.
         11   -1    0    0    0    0 -0.00000000000E+00 -0.00000000000E+00 -0.50000000000E+03  0.50000000000E+03  0.00000000000E+00 0. -1.
        -11    1    1    2    0    0 -0.36160292465E+01  0.58651887747E+01  0.40269830701E+03  0.40275725019E+03  0.00000000000E+00 0.  1.
         11    1    1    2    0    0  0.33212876159E+01  0.15695796184E+02 -0.49564180232E+03  0.49590138654E+03  0.00000000000E+00 0. -1.
        -15    1    1    2    0    0 -0.54367836024E+01 -0.40832543397E+01  0.75830245924E+02  0.76155206702E+02  0.17770000000E+01 0.  1.
         15    1    1    2    0    0  0.57315252330E+01 -0.17477730619E+02  0.17113249382E+02  0.25186156565E+02  0.17770000000E+01 0. -1.
</event>
<event>
 6    1  0.1860328E-003  0.5036020E+03  0.7546771E-02  0.9391786E-01
        -11   -1    0    0    0    0  0.00000000000E+00  0.00000000000E+00  0.50000000000E+03  0.50000000000E+03  0.00000000000E+00 0.  1.
         11   -1    0    0    0    0 -0.00000000000E+00 -0.00000000000E+00 -0.50000000000E+03  0.50000000000E+03  0.00000000000E+00 0.  1.
        -11    1    1    2    0    0 -0.11919202539E+01  0.11177723926E+02  0.43906911687E+03  0.43921299113E+03  0.00000000000E+00 0.  1.
         11    1    1    2    0    0 -0.94733414063E+01 -0.16793895225E+02 -0.49602333357E+03  0.49639795181E+03  0.00000000000E+00 0.  1.
        -15    1    1    2    0    0  0.63265020091E+01 -0.97435776137E+01  0.12663324183E+02  0.17276557549E+02  0.17770000000E+01 0.  1.
         15    1    1    2    0    0  0.43387596511E+01  0.15359748912E+02  0.44290892516E+02  0.47112499518E+02  0.17770000000E+01 0. -1.
</event>
<event>
 6    1  0.1860328E-003  0.5189078E+03  0.7546771E-02  0.9358468E-01
        -11   -1    0    0    0    0  0.00000000000E+00  0.00000000000E+00  0.50000000000E+03  0.50000000000E+03  0.00000000000E+00 0. -1.
         11   -1    0    0    0    0 -0.00000000000E+00 -0.00000000000E+00 -0.50000000000E+03  0.50000000000E+03  0.00000000000E+00 0. -1.
        -11    1    1    2    0    0  0.65428032680E+01  0.36889687606E+01  0.48103360578E+03  0.48109224340E+03  0.00000000000E+00 0. -1.
         11    1    1    2    0    0 -0.66019490982E+01 -0.29524803338E+02 -0.43209747259E+03  0.43315531344E+03  0.00000000000E+00 0. -1.
        -15    1    1    2    0    0  0.13537014570E+02  0.47135315441E+01  0.12675527211E+02  0.19217046135E+02  0.17770000000E+01 0. -1.
         15    1    1    2    0    0 -0.13477868740E+02  0.21122303034E+02 -0.61611660398E+02  0.66535397025E+02  0.17770000000E+01 0.  1.
</event>
<event>
 6    1  0.1860328E-003  0.5002196E+03  0.7546771E-02  0.9399318E-01
        -11   -1    0    0    0    0  0.00000000000E+00  0.00000000000E+00  0.50000000000E+03  0.50000000000E+03  0.00000000000E+00 0.  1.
         11   -1    0    0    0    0 -0.00000000000E+00 -0.00000000000E+00 -0.50000000000E+03  0.50000000000E+03  0.00000000000E+00 0.  1.
        -11    1    1    2    0    0  0.16710155838E+01  0.31778893023E+00  0.11018136448E+03  0.11019449333E+03  0.00000000000E+00 0.  1.
         11    1    1    2    0    0  0.75542087432E+01 -0.94997066266E+01 -0.49963296613E+03  0.49978036310E+03  0.00000000000E+00 0.  1.
        -15    1    1    2    0    0 -0.92219416222E+01  0.32026153054E+01  0.96833535232E+02  0.97340599067E+02  0.17770000000E+01 0. -1.
         15    1    1    2    0    0 -0.32827048487E-02  0.59793023910E+01  0.29261806642E+03  0.29268454450E+03  0.17770000000E+01 0.  1.
</event>
<event>
 6    1  0.1860328E-003  0.5107961E+03  0.7546771E-02  0.9375971E-01
        -11   -1    0    0    0    0  0.00000000000E+00  0.00000000000E+00  0.50000000000E+03  0.50000000000E+03  0.00000000000E+00 0.  1.
         11   -1    0    0    0    0 -0.00000000000E+00 -0.00000000000E+00 -0.50000000000E+03  0.50000000000E+03  0.00000000000E+00 0.  1.
        -11    1    1    2    0    0 -0.18658026140E+02 -0.11943266716E+02  0.46708994950E+03  0.46761499600E+03  0.00000000000E+00 0.  1.
         11    1    1    2    0    0  0.63249520533E+01  0.17392858603E+02 -0.48885365476E+03  0.48920385558E+03  0.00000000000E+00 0.  1.
        -15    1    1    2    0    0  0.16919591867E+02  0.95996109925E+01  0.18725384477E+02  0.27059617014E+02  0.17770000000E+01 0. -1.
         15    1    1    2    0    0 -0.45865177798E+01 -0.15049202880E+02  0.30383207772E+01  0.16121531404E+02  0.17770000000E+01 0.  1.
</event>
<event>
 6    1  0.1860328E-003  0.5016365E+03  0.7546771E-02  0.9396155E-01
        -11   -1    0    0    0    0  0.00000000000E+00  0.00000000000E+00  0.50000000000E+03  0.50000000000E+03  0.00000000000E+00 0.  1.
         11   -1    0    0    0    0 -0.00000000000E+00 -0.00000000000E+00 -0.50000000000E+03  0.50000000000E+03  0.00000000000E+00 0.  1.
        -11    1    1    2    0    0  0.57417832872E+01  0.94760098366E+01  0.31153874758E+03  0.31173571191E+03  0.00000000000E+00 0.  1.
         11    1    1    2    0    0  0.88525817766E+01 -0.31076988984E+01 -0.49827520364E+03  0.49836352651E+03  0.00000000000E+00 0.  1.
        -15    1    1    2    0    0 -0.17210853739E+02 -0.22849091908E+01  0.48104148145E+02  0.51172268800E+02  0.17770000000E+01 0.  1.
         15    1    1    2    0    0  0.26164886749E+01 -0.40834017474E+01  0.13863230791E+03  0.13872849278E+03  0.17770000000E+01 0.  1.
</event>
<event>
 6    1  0.1860328E-003  0.5011795E+03  0.7546771E-02  0.9397174E-01
        -11   -1    0    0    0    0  0.00000000000E+00  0.00000000000E+00  0.50000000000E+03  0.50000000000E+03  0.00000000000E+00 0. -1.
         11   -1    0    0    0    0 -0.00000000000E+00 -0.00000000000E+00 -0.50000000000E+03  0.50000000000E+03  0.00000000000E+00 0.  1.
        -11    1    1    2    0    0 -0.13001618629E+02 -0.61473570371E+01  0.44170431895E+03  0.44193838650E+03  0.00000000000E+00 0. -1.
         11    1    1    2    0    0  0.11093249790E+02  0.19869505821E+01 -0.49869316185E+03  0.49882048659E+03  0.00000000000E+00 0.  1.
        -15    1    1    2    0    0  0.72019269920E+01  0.26054099938E+01  0.47314354663E+02  0.47963129588E+02  0.17770000000E+01 0.  1.
         15    1    1    2    0    0 -0.52935581525E+01  0.15549964613E+01  0.96744882368E+01  0.11277997320E+02  0.17770000000E+01 0. -1.
</event>
<event>
 6    1  0.1860328E-003  0.5098963E+03  0.7546771E-02  0.9377934E-01
        -11   -1    0    0    0    0  0.00000000000E+00  0.00000000000E+00  0.50000000000E+03  0.50000000000E+03  0.00000000000E+00 0.  1.
         11   -1    0    0    0    0 -0.00000000000E+00 -0.00000000000E+00 -0.50000000000E+03  0.50000000000E+03  0.00000000000E+00 0.  1.
        -11    1    1    2    0    0  0.15648763848E+02 -0.19616799710E+02  0.48946088537E+03  0.49010372468E+03  0.00000000000E+00 0.  1.
         11    1    1    2    0    0 -0.14940780922E+02 -0.14844280987E+02 -0.39413182436E+03  0.39469415322E+03  0.00000000000E+00 0.  1.
        -15    1    1    2    0    0 -0.10501022259E+02  0.44000025291E+02 -0.48321729724E+02  0.66214960444E+02  0.17770000000E+01 0.  1.
         15    1    1    2    0    0  0.97930393326E+01 -0.95389445943E+01 -0.47007331290E+02  0.48987161658E+02  0.17770000000E+01 0. -1.
</event>
<event>
 6    1  0.1860328E-003  0.5094497E+03  0.7546771E-02  0.9378910E-01
        -11   -1    0    0    0    0  0.00000000000E+00  0.00000000000E+00  0.50000000000E+03  0.50000000000E+03  0.00000000000E+00 0.  1.
         11   -1    0    0    0    0 -0.00000000000E+00 -0.00000000000E+00 -0.50000000000E+03  0.50000000000E+03  0.00000000000E+00 0.  1.
        -11    1    1    2    0    0 -0.82977505437E+01  0.23078315146E+00  0.48230412344E+03  0.48237555225E+03  0.00000000000E+00 0.  1.
         11    1    1    2    0    0  0.76855670597E+01 -0.40233825739E+01 -0.49047357423E+03  0.49055028546E+03  0.00000000000E+00 0.  1.
        -15    1    1    2    0    0 -0.50229144919E+01  0.12150686778E+02 -0.10360145858E+01  0.13307889178E+02  0.17770000000E+01 0.  1.
         15    1    1    2    0    0  0.56350979759E+01 -0.83580873552E+01  0.92054653770E+01  0.13766273106E+02  0.17770000000E+01 0. -1.
</event>
<event>
 6    1  0.1860328E-003  0.5114940E+03  0.7546771E-02  0.9374452E-01
        -11   -1    0    0    0    0  0.00000000000E+00  0.00000000000E+00  0.50000000000E+03  0.50000000000E+03  0.00000000000E+00 0. -1.
         11   -1    0    0    0    0 -0.00000000000E+00 -0.00000000000E+00 -0.50000000000E+03  0.50000000000E+03  0.00000000000E+00 0.  1.
        -11    1    1    2    0    0 -0.25467099050E+02 -0.10198770357E+02  0.48773513605E+03  0.48850603987E+03  0.00000000000E+00 0. -1.
         11    1    1    2    0    0  0.51162412907E+01  0.16431962078E+02 -0.45889386402E+03  0.45921646719E+03  0.00000000000E+00 0.  1.
        -15    1    1    2    0    0  0.30586785870E+02 -0.63189192937E+01 -0.27774067341E+02  0.41833440650E+02  0.17770000000E+01 0. -1.
         15    1    1    2    0    0 -0.10235928111E+02  0.85727572472E-01 -0.10672046874E+01  0.10444052296E+02  0.17770000000E+01 0.  1.
</event>
<event>
 6    1  0.1860328E-003  0.5767894E+03  0.7546771E-02  0.9242689E-01
        -11   -1    0    0    0    0  0.00000000000E+00  0.00000000000E+00  0.50000000000E+03  0.50000000000E+03  0.00000000000E+00 0. -1.
         11   -1    0    0    0    0 -0.00000000000E+00 -0.00000000000E+00 -0.50000000000E+03  0.50000000000E+03  0.00000000000E+00 0. -1.
        -11    1    1    2    0    0 -0.42661676960E+01 -0.10253895882E+02  0.35813685857E+03  0.35830901752E+03  0.00000000000E+00 0. -1.
         11    1    1    2    0    0  0.21617757654E+02 -0.41940947006E+02 -0.42057207548E+03  0.42321063450E+03  0.00000000000E+00 0. -1.
        -15    1    1    2    0    0 -0.34153290087E+02  0.49196438390E+02 -0.65863783112E+02  0.89038937711E+02  0.17770000000E+01 0. -1.
         15    1    1    2    0    0  0.16801700129E+02  0.29984044983E+01  0.12829900002E+03  0.12944141027E+03  0.17770000000E+01 0.  1.
</event>
<event>
 6    1  0.1860328E-003  0.5014809E+03  0.7546771E-02  0.9396502E-01
        -11   -1    0    0    0    0  0.00000000000E+00  0.00000000000E+00  0.50000000000E+03  0.50000000000E+03  0.00000000000E+00 0.  1.
         11   -1    0    0    0    0 -0.00000000000E+00 -0.00000000000E+00 -0.50000000000E+03  0.50000000000E+03  0.00000000000E+00 0. -1.
        -11    1    1    2    0    0  0.14724254530E+02  0.20151693097E+01  0.33468902234E+03  0.33501881477E+03  0.00000000000E+00 0.  1.
         11    1    1    2    0    0 -0.20323393931E+02 -0.16226335539E+00 -0.49810460608E+03  0.49851907212E+03  0.00000000000E+00 0. -1.
        -15    1    1    2    0    0 -0.93276258602E+01  0.79249595378E+01  0.92089538945E+02  0.92916362929E+02  0.17770000000E+01 0.  1.
         15    1    1    2    0    0  0.14926765261E+02 -0.97778654921E+01  0.71326044794E+02  0.73545750181E+02  0.17770000000E+01 0. -1.
</event>
<event>
 6    1  0.1860328E-003  0.5032370E+03  0.7546771E-02  0.9392596E-01
        -11   -1    0    0    0    0  0.00000000000E+00  0.00000000000E+00  0.50000000000E+03  0.50000000000E+03  0.00000000000E+00 0. -1.
         11   -1    0    0    0    0 -0.00000000000E+00 -0.00000000000E+00 -0.50000000000E+03  0.50000000000E+03  0.00000000000E+00 0. -1.
        -11    1    1    2    0    0  0.34352212247E+02  0.25837958401E+02  0.49489976575E+03  0.49676297438E+03  0.00000000000E+00 0. -1.
         11    1    1    2    0    0  0.40185707465E+01 -0.15608929352E+00 -0.29335376061E+03  0.29338132548E+03  0.00000000000E+00 0. -1.
        -15    1    1    2    0    0 -0.38601337849E+02 -0.31730811587E+02 -0.15452043222E+03  0.16240883409E+03  0.17770000000E+01 0. -1.
         15    1    1    2    0    0  0.23055485521E+00  0.60489424795E+01 -0.47025572912E+02  0.47446866043E+02  0.17770000000E+01 0.  1.
</event>
<event>
 6    1  0.1860328E-003  0.5080827E+03  0.7546771E-02  0.9381904E-01
        -11   -1    0    0    0    0  0.00000000000E+00  0.00000000000E+00  0.50000000000E+03  0.50000000000E+03  0.00000000000E+00 0. -1.
         11   -1    0    0    0    0 -0.00000000000E+00 -0.00000000000E+00 -0.50000000000E+03  0.50000000000E+03  0.00000000000E+00 0.  1.
        -11    1    1    2    0    0  0.14638599059E+02 -0.65356762957E-01  0.49169947006E+03  0.49191733219E+03  0.00000000000E+00 0. -1.
         11    1    1    2    0    0 -0.23960188254E+02  0.68450094654E+01 -0.45484429397E+03  0.45552637304E+03  0.00000000000E+00 0.  1.
        -15    1    1    2    0    0 -0.64302377942E+01 -0.72808859296E+01  0.24479260567E+01  0.10173953459E+02  0.17770000000E+01 0. -1.
         15    1    1    2    0    0  0.15751826989E+02  0.50123322714E+00 -0.39303102139E+02  0.42382341311E+02  0.17770000000E+01 0.  1.
</event>
<event>
 6    1  0.1860328E-003  0.5032322E+03  0.7546771E-02  0.9392606E-01
        -11   -1    0    0    0    0  0.00000000000E+00  0.00000000000E+00  0.50000000000E+03  0.50000000000E+03  0.00000000000E+00 0. -1.
         11   -1    0    0    0    0 -0.00000000000E+00 -0.00000000000E+00 -0.50000000000E+03  0.50000000000E+03  0.00000000000E+00 0.  1.
        -11    1    1    2    0    0 -0.74487433671E+01 -0.84945813112E+01  0.49663935769E+03  0.49676784648E+03  0.00000000000E+00 0. -1.
         11    1    1    2    0    0 -0.49624832230E+01 -0.25891955200E+01 -0.40668162832E+03  0.40672014578E+03  0.00000000000E+00 0.  1.
        -15    1    1    2    0    0  0.32514018894E+01 -0.25013713235E+01 -0.71997149364E+02  0.72135814394E+02  0.17770000000E+01 0.  1.
         15    1    1    2    0    0  0.91598247008E+01  0.13585148155E+02 -0.17960580009E+02  0.24376193349E+02  0.17770000000E+01 0. -1.
</event>
<event>
 6    1  0.1860328E-003  0.5117632E+03  0.7546771E-02  0.9373867E-01
        -11   -1    0    0    0    0  0.00000000000E+00  0.00000000000E+00  0.50000000000E+03  0.50000000000E+03  0.00000000000E+00 0. -1.
         11   -1    0    0    0    0 -0.00000000000E+00 -0.00000000000E+00 -0.50000000000E+03  0.50000000000E+03  0.00000000000E+00 0.  1.
        -11    1    1    2    0    0  0.83475295985E+00  0.69206349423E+01  0.41689364140E+03  0.41695191598E+03  0.00000000000E+00 0. -1.
         11    1    1    2    0    0 -0.29852536065E+01  0.98315004794E+01 -0.48812870302E+03  0.48823682866E+03  0.00000000000E+00 0.  1.
        -15    1    1    2    0    0 -0.16417398982E+02 -0.30948402278E+02  0.58297451011E+02  0.68037380286E+02  0.17770000000E+01 0. -1.
         15    1    1    2    0    0  0.18567899628E+02  0.14196266856E+02  0.12937610609E+02  0.26773875075E+02  0.17770000000E+01 0.  1.
</event>
<event>
 6    1  0.4987678E-003  0.5390027E+03  0.7546771E-02  0.9316533E-01
        -11   -1    0    0    0    0  0.00000000000E+00  0.00000000000E+00  0.50000000000E+03  0.50000000000E+03  0.00000000000E+00 0.  1.
         11   -1    0    0    0    0 -0.00000000000E+00 -0.00000000000E+00 -0.50000000000E+03  0.50000000000E+03  0.00000000000E+00 0. -1.
        -11    1    1    2    0    0 -0.75988824080E+01 -0.88416417678E+01  0.39509087107E+03  0.39526284172E+03  0.00000000000E+00 0.  1.
         11    1    1    2    0    0  0.73766632487E+01  0.31934336015E+01 -0.46092718026E+03  0.46099726538E+03  0.00000000000E+00 0. -1.
        -15    1    1    2    0    0  0.52868559223E+01  0.12344667070E+02  0.10387020450E+03  0.10474979123E+03  0.17770000000E+01 0. -1.
         15    1    1    2    0    0 -0.50646367631E+01 -0.66964589033E+01 -0.38033895305E+02  0.38990101673E+02  0.17770000000E+01 0.  1.
</event>
<event>
 6    1  0.1860328E-003  0.5001745E+03  0.7546771E-02  0.9399419E-01
        -11   -1    0    0    0    0  0.00000000000E+00  0.00000000000E+00  0.50000000000E+03  0.50000000000E+03  0.00000000000E+00 0. -1.
         11   -1    0    0    0    0 -0.00000000000E+00 -0.00000000000E+00 -0.50000000000E+03  0.50000000000E+03  0.00000000000E+00 0. -1.
        -11    1    1    2    0    0 -0.98793031293E+00 -0.12931891729E+01  0.41193160391E+02  0.41225293299E+02  0.00000000000E+00 0. -1.
         11    1    1    2    0    0  0.31566545830E+01  0.75433317589E+01 -0.49975857349E+03  0.49982546764E+03  0.00000000000E+00 0. -1.
        -15    1    1    2    0    0  0.50178635925E+01 -0.42466179260E+01  0.75346091951E+02  0.75653182485E+02  0.17770000000E+01 0.  1.
         15    1    1    2    0    0 -0.71865878626E+01 -0.20035246601E+01  0.38321932115E+03  0.38329605658E+03  0.17770000000E+01 0. -1.
</event>
<event>
 6    1  0.1860328E-003  0.4254982E+03  0.7546771E-02  0.9583924E-01
        -11   -1    0    0    0    0  0.00000000000E+00  0.00000000000E+00  0.50000000000E+03  0.50000000000E+03  0.00000000000E+00 0. -1.
         11   -1    0    0    0    0 -0.00000000000E+00 -0.00000000000E+00 -0.50000000000E+03  0.50000000000E+03  0.00000000000E+00 0. -1.
        -11    1    1    2    0    0 -0.42359905895E+01 -0.18030987558E+02  0.42139954537E+03  0.42180639749E+03  0.00000000000E+00 0. -1.
         11    1    1    2    0    0 -0.35635271172E+02  0.14489342740E+02 -0.42843635459E+03  0.43015988137E+03  0.00000000000E+00 0. -1.
        -15    1    1    2    0    0  0.43395145707E+02 -0.60405805000E+01 -0.63263118149E+02  0.76974067910E+02  0.17770000000E+01 0. -1.
         15    1    1    2    0    0 -0.35238839454E+01  0.95822253177E+01  0.70299927368E+02  0.71059653229E+02  0.17770000000E+01 0.  1.
</event>
<event>
 6    1  0.1860328E-003  0.5003121E+03  0.7546771E-02  0.9399112E-01
        -11   -1    0    0    0    0  0.00000000000E+00  0.00000000000E+00  0.50000000000E+03  0.50000000000E+03  0.00000000000E+00 0. -1.
         11   -1    0    0    0    0 -0.00000000000E+00 -0.00000000000E+00 -0.50000000000E+03  0.50000000000E+03  0.00000000000E+00 0.  1.
        -11    1    1    2    0    0  0.14748193296E+01 -0.13273874962E+01  0.64667314959E+02  0.64697748598E+02  0.00000000000E+00 0. -1.
         11    1    1    2    0    0  0.15226471623E+02 -0.13028267078E+02 -0.49928589482E+03  0.49968788853E+03  0.00000000000E+00 0.  1.
        -15    1    1    2    0    0 -0.48148992172E+01 -0.36895434871E+00  0.23504087687E+02  0.24060740819E+02  0.17770000000E+01 0.  1.
         15    1    1    2    0    0 -0.11886391735E+02  0.14724608923E+02  0.41111449217E+03  0.41155362205E+03  0.17770000000E+01 0. -1.
</event>
<event>
 6    1  0.1860328E-003  0.5008444E+03  0.7546771E-02  0.9397922E-01
        -11   -1    0    0    0    0  0.00000000000E+00  0.00000000000E+00  0.50000000000E+03  0.50000000000E+03  0.00000000000E+00 0.  1.
         11   -1    0    0    0    0 -0.00000000000E+00 -0.00000000000E+00 -0.50000000000E+03  0.50000000000E+03  0.00000000000E+00 0. -1.
        -11    1    1    2    0    0  0.61344535504E+00  0.58175921073E+01  0.38812321292E+03  0.38816729524E+03  0.00000000000E+00 0.  1.
         11    1    1    2    0    0  0.23421572234E+01 -0.86701388230E+01 -0.49907484229E+03  0.49915564227E+03  0.00000000000E+00 0. -1.
        -15    1    1    2    0    0 -0.29907331698E+00  0.37871032335E+01  0.10840213435E+03  0.10848323398E+03  0.17770000000E+01 0. -1.
         15    1    1    2    0    0 -0.26565292615E+01 -0.93455651786E+00  0.25494950259E+01  0.41938285003E+01  0.17770000000E+01 0.  1.
</event>
<event>
 6    1  0.1860328E-003  0.5255071E+03  0.7546771E-02  0.9344477E-01
        -11   -1    0    0    0    0  0.00000000000E+00  0.00000000000E+00  0.50000000000E+03  0.50000000000E+03  0.00000000000E+00 0. -1.
         11   -1    0    0    0    0 -0.00000000000E+00 -0.00000000000E+00 -0.50000000000E+03  0.50000000000E+03  0.00000000000E+00 0.  1.
        -11    1    1    2    0    0 -0.13175607193E+02 -0.38602598859E+00  0.31648280522E+03  0.31675718089E+03  0.00000000000E+00 0. -1.
         11    1    1    2    0    0  0.19656645659E+02 -0.15237295170E+02 -0.47384065525E+03  0.47449291401E+03  0.00000000000E+00 0.  1.
        -15    1    1    2    0    0  0.44820786921E+01 -0.12672457398E+02  0.17370661134E+03  0.17423496997E+03  0.17770000000E+01 0. -1.
         15    1    1    2    0    0 -0.10963117158E+02  0.28295778556E+02 -0.16348761318E+02  0.34514935138E+02  0.17770000000E+01 0.  1.
</event>
<event>
 6    1  0.1860328E-003  0.5018581E+03  0.7546771E-02  0.9395662E-01
        -11   -1    0    0    0    0  0.00000000000E+00  0.00000000000E+00  0.50000000000E+03  0.50000000000E+03  0.00000000000E+00 0.  1.
         11   -1    0    0    0    0 -0.00000000000E+00 -0.00000000000E+00 -0.50000000000E+03  0.50000000000E+03  0.00000000000E+00 0. -1.
        -11    1    1    2    0    0  0.17858172661E+01  0.78845533851E+00  0.89178619325E+02  0.89199982903E+02  0.00000000000E+00 0.  1.
         11    1    1    2    0    0 -0.85261706495E+01 -0.46219815266E+01 -0.49804750119E+03  0.49814191928E+03  0.00000000000E+00 0. -1.
        -15    1    1    2    0    0 -0.16809057081E+02  0.20058980577E+02  0.23277640193E+03  0.23424969184E+03  0.17770000000E+01 0.  1.
         15    1    1    2    0    0  0.23549410464E+02 -0.16225454389E+02  0.17609247994E+03  0.17840840598E+03  0.17770000000E+01 0. -1.
</event>
<event>
 6    1  0.1860328E-003  0.3374138E+03  0.7546771E-02  0.9861862E-01
        -11   -1    0    0    0    0  0.00000000000E+00  0.00000000000E+00  0.50000000000E+03  0.50000000000E+03  0.00000000000E+00 0. -1.
         11   -1    0    0    0    0 -0.00000000000E+00 -0.00000000000E+00 -0.50000000000E+03  0.50000000000E+03  0.00000000000E+00 0. -1.
        -11    1    1    2    0    0 -0.97880006647E+01  0.10270530584E+02  0.33466559999E+03  0.33496619617E+03  0.00000000000E+00 0. -1.
         11    1    1    2    0    0 -0.49848196029E+01  0.51300594256E+00 -0.34009411685E+03  0.34013103345E+03  0.00000000000E+00 0. -1.
        -15    1    1    2    0    0 -0.24342442968E+02  0.24056738239E+02 -0.15364330874E+03  0.15741888462E+03  0.17770000000E+01 0. -1.
         15    1    1    2    0    0  0.39115263236E+02 -0.34840274765E+02  0.15907182560E+03  0.16748388577E+03  0.17770000000E+01 0.  1.
</event>
<event>
 6    1  0.1860328E-003  0.5556630E+03  0.7546771E-02  0.9283209E-01
        -11   -1    0    0    0    0  0.00000000000E+00  0.00000000000E+00  0.50000000000E+03  0.50000000000E+03  0.00000000000E+00 0. -1.
         11   -1    0    0    0    0 -0.00000000000E+00 -0.00000000000E+00 -0.50000000000E+03  0.50000000000E+03  0.00000000000E+00 0.  1.
        -11    1    1    2    0    0 -0.13751272305E+02  0.10119081979E+02  0.40080654930E+03  0.40117001791E+03  0.00000000000E+00 0. -1.
         11    1    1    2    0    0 -0.11463793353E+02 -0.80635455690E+00 -0.44418831237E+03  0.44433695054E+03  0.00000000000E+00 0.  1.
        -15    1    1    2    0    0 -0.70723965739E+01  0.16679088629E+02 -0.49513884123E+02  0.52754082692E+02  0.17770000000E+01 0. -1.
         15    1    1    2    0    0  0.32287462232E+02 -0.25991816052E+02  0.92895647191E+02  0.10173894886E+03  0.17770000000E+01 0.  1.
</event>
<event>
 6    1  0.1860328E-003  0.5004665E+03  0.7546771E-02  0.9398767E-01
        -11   -1    0    0    0    0  0.00000000000E+00  0.00000000000E+00  0.50000000000E+03  0.50000000000E+03  0.00000000000E+00 0.  1.
         11   -1    0    0    0    0 -0.00000000000E+00 -0.00000000000E+00 -0.50000000000E+03  0.50000000000E+03  0.00000000000E+00 0.  1.
        -11    1    1    2    0    0 -0.84400898846E+01 -0.28779795725E+01  0.49945392703E+03  0.49953352552E+03  0.00000000000E+00 0.  1.
         11    1    1    2    0    0 -0.26669572795E+01 -0.41199023126E+01 -0.35141177631E+03  0.35144604534E+03  0.00000000000E+00 0.  1.
        -15    1    1    2    0    0  0.66008982923E+01  0.37708493517E+01 -0.12537863844E+03  0.12562146262E+03  0.17770000000E+01 0. -1.
         15    1    1    2    0    0  0.45061488719E+01  0.32270325335E+01 -0.22663512280E+02  0.23398966526E+02  0.17770000000E+01 0.  1.
</event>
<event>
 6    1  0.1860328E-003  0.5018742E+03  0.7546771E-02  0.9395626E-01
        -11   -1    0    0    0    0  0.00000000000E+00  0.00000000000E+00  0.50000000000E+03  0.50000000000E+03  0.00000000000E+00 0. -1.
         11   -1    0    0    0    0 -0.00000000000E+00 -0.00000000000E+00 -0.50000000000E+03  0.50000000000E+03  0.00000000000E+00 0.  1.
        -11    1    1    2    0    0  0.68633909789E+01 -0.26231233365E+01  0.44943914299E+03  0.44949919929E+03  0.00000000000E+00 0. -1.
         11    1    1    2    0    0 -0.82863945691E+01 -0.72762937737E+01 -0.49800376571E+03  0.49812584700E+03  0.00000000000E+00 0.  1.
        -15    1    1    2    0    0 -0.63688192342E+01  0.16660052894E+01  0.28075702871E+02  0.28891871742E+02  0.17770000000E+01 0.  1.
         15    1    1    2    0    0  0.77918228244E+01  0.82334118208E+01  0.20488919851E+02  0.23483081970E+02  0.17770000000E+01 0. -1.
</event>
<event>
 6    1  0.1860328E-003  0.5007895E+03  0.7546771E-02  0.9398045E-01
        -11   -1    0    0    0    0  0.00000000000E+00  0.00000000000E+00  0.50000000000E+03  0.50000000000E+03  0.00000000000E+00 0.  1.
         11   -1    0    0    0    0 -0.00000000000E+00 -0.00000000000E+00 -0.50000000000E+03  0.50000000000E+03  0.00000000000E+00 0. -1.
        -11    1    1    2    0    0  0.28136850666E+01  0.57416778841E+00  0.13306256707E+03  0.13309355073E+03  0.00000000000E+00 0.  1.
         11    1    1    2    0    0  0.23254051359E+00  0.87785215897E+01 -0.49913330229E+03  0.49921054674E+03  0.00000000000E+00 0. -1.
        -15    1    1    2    0    0  0.12221853068E+00 -0.52394271641E+01  0.88812683584E+01  0.10464281678E+02  0.17770000000E+01 0. -1.
         15    1    1    2    0    0 -0.31684441109E+01 -0.41132622140E+01  0.35718946687E+03  0.35723162085E+03  0.17770000000E+01 0.  1.
</event>
<event>
 6    1  0.1860328E-003  0.5018102E+03  0.7546771E-02  0.9395768E-01
        -11   -1    0    0    0    0  0.00000000000E+00  0.00000000000E+00  0.50000000000E+03  0.50000000000E+03  0.00000000000E+00 0. -1.
         11   -1    0    0    0    0 -0.00000000000E+00 -0.00000000000E+00 -0.50000000000E+03  0.50000000000E+03  0.00000000000E+00 0.  1.
        -11    1    1    2    0    0 -0.75305666171E+01  0.63247364933E+01  0.49809271322E+03  0.49818978581E+03  0.00000000000E+00 0. -1.
         11    1    1    2    0    0  0.20375420066E+01  0.30852115645E+01 -0.23019233666E+03  0.23022202754E+03  0.00000000000E+00 0.  1.
        -15    1    1    2    0    0 -0.28061999492E+01 -0.11925944134E+02 -0.25804105588E+03  0.25833785466E+03  0.17770000000E+01 0.  1.
         15    1    1    2    0    0  0.82992245597E+01  0.25159960765E+01 -0.98593206739E+01  0.13250331984E+02  0.17770000000E+01 0. -1.
</event>
<event>
 6    1  0.1860328E-003  0.5102926E+03  0.7546771E-02  0.9377069E-01
        -11   -1    0    0    0    0  0.00000000000E+00  0.00000000000E+00  0.50000000000E+03  0.50000000000E+03  0.00000000000E+00 0.  1.
         11   -1    0    0    0    0 -0.00000000000E+00 -0.00000000000E+00 -0.50000000000E+03  0.50000000000E+03  0.00000000000E+00 0. -1.
        -11    1    1    2    0    0 -0.26616243356E+02  0.15202389077E+02  0.44751830646E+03  0.44856679732E+03  0.00000000000E+00 0.  1.
         11    1    1    2    0    0  0.91273833247E+00 -0.96415657156E+01 -0.48961158166E+03  0.48970735524E+03  0.00000000000E+00 0. -1.
        -15    1    1    2    0    0  0.17715963722E+02 -0.64727120868E+01  0.47992977623E+02  0.51596850703E+02  0.17770000000E+01 0.  1.
         15    1    1    2    0    0  0.79875413015E+01  0.91188872546E+00 -0.58997024194E+01  0.10128996729E+02  0.17770000000E+01 0. -1.
</event>
<event>
 6    1  0.1860328E-003  0.5084051E+03  0.7546771E-02  0.9381197E-01
        -11   -1    0    0    0    0  0.00000000000E+00  0.00000000000E+00  0.50000000000E+03  0.50000000000E+03  0.00000000000E+00 0.  1.
         11   -1    0    0    0    0 -0.00000000000E+00 -0.00000000000E+00 -0.50000000000E+03  0.50000000000E+03  0.00000000000E+00 0. -1.
        -11    1    1    2    0    0 -0.65575341704E+01 -0.10666612858E+02  0.49143541194E+03  0.49159489623E+03  0.00000000000E+00 0.  1.
         11    1    1    2    0    0  0.21962580475E+01 -0.55880464018E+01 -0.28854706933E+03  0.28860953039E+03  0.00000000000E+00 0. -1.
        -15    1    1    2    0    0 -0.48890163757E+01  0.61300316136E+01 -0.20555492704E+03  0.20571209378E+03  0.17770000000E+01 0. -1.
         15    1    1    2    0    0  0.92502924986E+01  0.10124627646E+02  0.26665844246E+01  0.14083479604E+02  0.17770000000E+01 0.  1.
</event>
<event>
 6    1  0.1860328E-003  0.4952541E+03  0.7546771E-02  0.9410492E-01
        -11   -1    0    0    0    0  0.00000000000E+00  0.00000000000E+00  0.50000000000E+03  0.50000000000E+03  0.00000000000E+00 0.  1.
         11   -1    0    0    0    0 -0.00000000000E+00 -0.00000000000E+00 -0.50000000000E+03  0.50000000000E+03  0.00000000000E+00 0. -1.
        -11    1    1    2    0    0  0.15392959996E+01  0.14556755015E+01  0.12449238448E+02  0.12628220828E+02  0.00000000000E+00 0.  1.
         11    1    1    2    0    0  0.70063800142E+01  0.50416473134E-01 -0.49821820096E+03  0.49826746600E+03  0.00000000000E+00 0. -1.
        -15    1    1    2    0    0  0.59242801160E+01 -0.85118799126E+01  0.44664236153E+03  0.44676627674E+03  0.17770000000E+01 0.  1.
         15    1    1    2    0    0 -0.14469956130E+02  0.70057879379E+01  0.39126600988E+02  0.42338036432E+02  0.17770000000E+01 0. -1.
</event>
<event>
 6    1  0.1860328E-003  0.5178446E+03  0.7546771E-02  0.9360743E-01
        -11   -1    0    0    0    0  0.00000000000E+00  0.00000000000E+00  0.50000000000E+03  0.50000000000E+03  0.00000000000E+00 0.  1.
         11   -1    0    0    0    0 -0.00000000000E+00 -0.00000000000E+00 -0.50000000000E+03  0.50000000000E+03  0.00000000000E+00 0.  1.
        -11    1    1    2    0    0  0.88563360157E+01  0.25669215550E+01  0.43943521848E+03  0.43953194994E+03  0.00000000000E+00 0.  1.
         11    1    1    2    0    0  0.81614311340E+01  0.18604210777E+02 -0.48172723781E+03  0.48215542853E+03  0.00000000000E+00 0.  1.
        -15    1    1    2    0    0 -0.47845817101E+01 -0.28602329214E+01  0.53306254545E+02  0.53626370912E+02  0.17770000000E+01 0. -1.
         15    1    1    2    0    0 -0.12233185440E+02 -0.18310899411E+02 -0.11014235221E+02  0.24686250621E+02  0.17770000000E+01 0.  1.
</event>
<event>
 6    1  0.1860328E-003  0.5309274E+03  0.7546771E-02  0.9333148E-01
        -11   -1    0    0    0    0  0.00000000000E+00  0.00000000000E+00  0.50000000000E+03  0.50000000000E+03  0.00000000000E+00 0.  1.
         11   -1    0    0    0    0 -0.00000000000E+00 -0.00000000000E+00 -0.50000000000E+03  0.50000000000E+03  0.00000000000E+00 0. -1.
        -11    1    1    2    0    0  0.13814121510E+02  0.17932252067E+01  0.46886573669E+03  0.46907262194E+03  0.00000000000E+00 0.  1.
         11    1    1    2    0    0 -0.18770355416E+02  0.25391254532E+01 -0.44111343147E+03  0.44151991215E+03  0.00000000000E+00 0. -1.
        -15    1    1    2    0    0 -0.27859908691E+02 -0.15809278988E+02 -0.41088303488E+02  0.52129782533E+02  0.17770000000E+01 0. -1.
         15    1    1    2    0    0  0.32816142597E+02  0.11476928329E+02  0.13335998267E+02  0.37277683372E+02  0.17770000000E+01 0.  1.
</event>
<event>
 6    1  0.1860328E-003  0.5057242E+03  0.7546771E-02  0.9387092E-01
        -11   -1    0    0    0    0  0.00000000000E+00  0.00000000000E+00  0.50000000000E+03  0.50000000000E+03  0.00000000000E+00 0. -1.
         11   -1    0    0    0    0 -0.00000000000E+00 -0.00000000000E+00 -0.50000000000E+03  0.50000000000E+03  0.00000000000E+00 0. -1.
        -11    1    1    2    0    0  0.10355341958E+02 -0.56080220099E+01  0.49413547150E+03  0.49427578052E+03  0.00000000000E+00 0. -1.
         11    1    1    2    0    0  0.23530702711E+01 -0.89356268155E+01 -0.47421209261E+03  0.47430210957E+03  0.00000000000E+00 0. -1.
        -15    1    1    2    0    0  0.13500545660E+01  0.38150161179E+01 -0.10304980860E+02  0.11212821003E+02  0.17770000000E+01 0.  1.
         15    1    1    2    0    0 -0.14058466795E+02  0.10728632707E+02 -0.96183980308E+01  0.20209288906E+02  0.17770000000E+01 0. -1.
</event>
<event>
 6    1  0.1860328E-003  0.5057146E+03  0.7546771E-02  0.9387113E-01
        -11   -1    0    0    0    0  0.00000000000E+00  0.00000000000E+00  0.50000000000E+03  0.50000000000E+03  0.00000000000E+00 0.  1.
         11   -1    0    0    0    0 -0.00000000000E+00 -0.00000000000E+00 -0.50000000000E+03  0.50000000000E+03  0.00000000000E+00 0. -1.
        -11    1    1    2    0    0 -0.24327677116E+01 -0.95515125149E+01  0.46855938899E+03  0.46866304608E+03  0.00000000000E+00 0.  1.
         11    1    1    2    0    0  0.14242031509E+00  0.12452868160E+02 -0.49412849984E+03  0.49428541205E+03  0.00000000000E+00 0. -1.
        -15    1    1    2    0    0  0.88497237318E+01  0.41993710882E+01  0.25334163922E+02  0.27220027889E+02  0.17770000000E+01 0. -1.
         15    1    1    2    0    0 -0.65593763354E+01 -0.71007267330E+01  0.23494692567E+00  0.98315139782E+01  0.17770000000E+01 0.  1.
</event>
<event>
 6    1  0.1860328E-003  0.5051874E+03  0.7546771E-02  0.9388277E-01
        -11   -1    0    0    0    0  0.00000000000E+00  0.00000000000E+00  0.50000000000E+03  0.50000000000E+03  0.00000000000E+00 0.  1.
         11   -1    0    0    0    0 -0.00000000000E+00 -0.00000000000E+00 -0.50000000000E+03  0.50000000000E+03  0.00000000000E+00 0. -1.
        -11    1    1    2    0    0  0.66243022997E+01  0.10398549392E+02  0.32100916304E+03  0.32124584661E+03  0.00000000000E+00 0.  1.
         11    1    1    2    0    0 -0.71023137463E+01 -0.12495401964E+01 -0.49476001531E+03  0.49481256750E+03  0.00000000000E+00 0. -1.
        -15    1    1    2    0    0  0.31985273069E+00 -0.18943892362E+02  0.17290571180E+03  0.17394975213E+03  0.17770000000E+01 0. -1.
         15    1    1    2    0    0  0.15815871594E+00  0.97948831666E+01  0.84514046776E+00  0.99918337575E+01  0.17770000000E+01 0.  1.
</event>
<event>
 6    1  0.1860328E-003  0.5010712E+03  0.7546771E-02  0.9397416E-01
        -11   -1    0    0    0    0  0.00000000000E+00  0.00000000000E+00  0.50000000000E+03  0.50000000000E+03  0.00000000000E+00 0.  1.
         11   -1    0    0    0    0 -0.00000000000E+00 -0.00000000000E+00 -0.50000000000E+03  0.50000000000E+03  0.00000000000E+00 0.  1.
        -11    1    1    2    0    0 -0.10487620123E+02  0.97947772170E+00  0.49881761258E+03  0.49892881273E+03  0.00000000000E+00 0.  1.
         11    1    1    2    0    0 -0.46582027277E+01 -0.24908918905E+01 -0.32554826924E+03  0.32559112242E+03  0.00000000000E+00 0.  1.
        -15    1    1    2    0    0  0.13707580622E+02 -0.71540565946E+01 -0.14478529461E+03  0.14561942713E+03  0.17770000000E+01 0.  1.
         15    1    1    2    0    0  0.14382422288E+01  0.86654707634E+01 -0.28484048734E+02  0.29860637728E+02  0.17770000000E+01 0. -1.
</event>
<event>
 6    1  0.1860328E-003  0.5432301E+03  0.7546771E-02  0.9307957E-01
        -11   -1    0    0    0    0  0.00000000000E+00  0.00000000000E+00  0.50000000000E+03  0.50000000000E+03  0.00000000000E+00 0. -1.
         11   -1    0    0    0    0 -0.00000000000E+00 -0.00000000000E+00 -0.50000000000E+03  0.50000000000E+03  0.00000000000E+00 0.  1.
        -11    1    1    2    0    0  0.32810601406E+01 -0.74736429310E+01  0.45669695460E+03  0.45676988630E+03  0.00000000000E+00 0. -1.
         11    1    1    2    0    0 -0.34602394400E+01 -0.19846260031E+01 -0.24818980516E+03  0.24822185920E+03  0.00000000000E+00 0.  1.
        -15    1    1    2    0    0  0.89735705630E+01 -0.53310614008E+01  0.42300166537E+02  0.43605125873E+02  0.17770000000E+01 0. -1.
         15    1    1    2    0    0 -0.87943912636E+01  0.14789330335E+02 -0.25080731597E+03  0.25140312863E+03  0.17770000000E+01 0.  1.
</event>
<event>
 6    1  0.1860328E-003  0.5023471E+03  0.7546771E-02  0.9394573E-01
        -11   -1    0    0    0    0  0.00000000000E+00  0.00000000000E+00  0.50000000000E+03  0.50000000000E+03  0.00000000000E+00 0.  1.
         11   -1    0    0    0    0 -0.00000000000E+00 -0.00000000000E+00 -0.50000000000E+03  0.50000000000E+03  0.00000000000E+00 0.  1.
        -11    1    1    2    0    0 -0.21386071069E+01 -0.63435894607E+01  0.45489733983E+03  0.45494659528E+03  0.00000000000E+00 0.  1.
         11    1    1    2    0    0 -0.18952045253E+01  0.64662708121E+01 -0.49760726945E+03  0.49765289014E+03  0.00000000000E+00 0.  1.
        -15    1    1    2    0    0  0.72604848892E+01 -0.85450075334E+01  0.24446977335E+02  0.26954484309E+02  0.17770000000E+01 0.  1.
         15    1    1    2    0    0 -0.32266732570E+01  0.84223261820E+01  0.18262952282E+02  0.20446030267E+02  0.17770000000E+01 0. -1.
</event>
<event>
 6    1  0.1860328E-003  0.5094010E+03  0.7546771E-02  0.9379016E-01
        -11   -1    0    0    0    0  0.00000000000E+00  0.00000000000E+00  0.50000000000E+03  0.50000000000E+03  0.00000000000E+00 0.  1.
         11   -1    0    0    0    0 -0.00000000000E+00 -0.00000000000E+00 -0.50000000000E+03  0.50000000000E+03  0.00000000000E+00 0. -1.
        -11    1    1    2    0    0 -0.12320831529E+02  0.36890655194E+01  0.22802073524E+03  0.22838316004E+03  0.00000000000E+00 0.  1.
         11    1    1    2    0    0 -0.91760830586E+01  0.12470553770E+02 -0.49035459134E+03  0.49059896093E+03  0.00000000000E+00 0. -1.
        -15    1    1    2    0    0 -0.15017671807E+01 -0.42224113109E+01 -0.80533564881E+01  0.93860716846E+01  0.17770000000E+01 0. -1.
         15    1    1    2    0    0  0.22998681768E+02 -0.11937207978E+02  0.27038721259E+03  0.27163180734E+03  0.17770000000E+01 0.  1.
</event>
<event>
 6    1  0.1860328E-003  0.5004236E+03  0.7546771E-02  0.9398862E-01
        -11   -1    0    0    0    0  0.00000000000E+00  0.00000000000E+00  0.50000000000E+03  0.50000000000E+03  0.00000000000E+00 0.  1.
         11   -1    0    0    0    0 -0.00000000000E+00 -0.00000000000E+00 -0.50000000000E+03  0.50000000000E+03  0.00000000000E+00 0.  1.
        -11    1    1    2    0    0  0.78940110000E+01 -0.38759536491E+01  0.49949896141E+03  0.49957637142E+03  0.00000000000E+00 0.  1.
         11    1    1    2    0    0  0.58121715192E+01  0.16410228186E+01 -0.26246904734E+03  0.26253852118E+03  0.00000000000E+00 0.  1.
        -15    1    1    2    0    0 -0.30613749688E+00  0.26147005026E+01 -0.12524106885E+03  0.12528133714E+03  0.17770000000E+01 0.  1.
         15    1    1    2    0    0 -0.13400045022E+02 -0.37976967203E+00 -0.11178884523E+03  0.11260377027E+03  0.17770000000E+01 0. -1.
</event>
<event>
 6    1  0.1860328E-003  0.5047498E+03  0.7546771E-02  0.9389244E-01
        -11   -1    0    0    0    0  0.00000000000E+00  0.00000000000E+00  0.50000000000E+03  0.50000000000E+03  0.00000000000E+00 0. -1.
         11   -1    0    0    0    0 -0.00000000000E+00 -0.00000000000E+00 -0.50000000000E+03  0.50000000000E+03  0.00000000000E+00 0. -1.
        -11    1    1    2    0    0 -0.20261821429E+02 -0.25427939073E+02  0.22804507620E+03  0.23035120636E+03  0.00000000000E+00 0. -1.
         11    1    1    2    0    0 -0.58437861302E+01  0.21069157485E+02 -0.49476730236E+03  0.49525018195E+03  0.00000000000E+00 0. -1.
        -15    1    1    2    0    0  0.79405502854E+01 -0.18281353942E+02  0.31053208290E+02  0.36942113027E+02  0.17770000000E+01 0. -1.
         15    1    1    2    0    0  0.18165057274E+02  0.22640135530E+02  0.23566901787E+03  0.23745649866E+03  0.17770000000E+01 0.  1.
</event>
<event>
 6    1  0.1860328E-003  0.5002902E+03  0.7546771E-02  0.9399161E-01
        -11   -1    0    0    0    0  0.00000000000E+00  0.00000000000E+00  0.50000000000E+03  0.50000000000E+03  0.00000000000E+00 0. -1.
         11   -1    0    0    0    0 -0.00000000000E+00 -0.00000000000E+00 -0.50000000000E+03  0.50000000000E+03  0.00000000000E+00 0.  1.
        -11    1    1    2    0    0 -0.28262767470E+01  0.20589485652E+01  0.18328715758E+03  0.18332050960E+03  0.00000000000E+00 0. -1.
         11    1    1    2    0    0 -0.49144870358E+01  0.57296174406E+01 -0.49965277476E+03  0.49970979180E+03  0.00000000000E+00 0.  1.
        -15    1    1    2    0    0  0.11868668999E+02 -0.41145925403E+01  0.25915540280E+03  0.25946575054E+03  0.17770000000E+01 0. -1.
         15    1    1    2    0    0 -0.41279052162E+01 -0.36739734655E+01  0.57210214384E+02  0.57503948050E+02  0.17770000000E+01 0.  1.
</event>
<event>
 6    1  0.1860328E-003  0.5003087E+03  0.7546771E-02  0.9399119E-01
        -11   -1    0    0    0    0  0.00000000000E+00  0.00000000000E+00  0.50000000000E+03  0.50000000000E+03  0.00000000000E+00 0.  1.
         11   -1    0    0    0    0 -0.00000000000E+00 -0.00000000000E+00 -0.50000000000E+03  0.50000000000E+03  0.00000000000E+00 0.  1.
        -11    1    1    2    0    0  0.45965226582E+00 -0.38908217690E+01  0.28099100963E+03  0.28101832194E+03  0.00000000000E+00 0.  1.
         11    1    1    2    0    0 -0.12345483042E+02  0.26919361647E+01 -0.49953150373E+03  0.49969128539E+03  0.00000000000E+00 0.  1.
        -15    1    1    2    0    0  0.96224756390E+01 -0.62287323272E+00  0.20761424637E+03  0.20784564714E+03  0.17770000000E+01 0.  1.
         15    1    1    2    0    0  0.22633551372E+01  0.18217588370E+01  0.10926247735E+02  0.11444745532E+02  0.17770000000E+01 0. -1.
</event>
<event>
 6    1  0.1860328E-003  0.5004338E+03  0.7546771E-02  0.9398840E-01
        -11   -1    0    0    0    0  0.00000000000E+00  0.00000000000E+00  0.50000000000E+03  0.50000000000E+03  0.00000000000E+00 0.  1.
         11   -1    0    0    0    0 -0.00000000000E+00 -0.00000000000E+00 -0.50000000000E+03  0.50000000000E+03  0.00000000000E+00 0.  1.
        -11    1    1    2    0    0  0.11062684955E+01 -0.14570635003E+02  0.49935246169E+03  0.49956622006E+03  0.00000000000E+00 0.  1.
         11    1    1    2    0    0 -0.28107069750E+01 -0.69370996974E+00 -0.47567201459E+02  0.47655219670E+02  0.00000000000E+00 0.  1.
        -15    1    1    2    0    0 -0.10891494191E+02  0.18290995915E+01 -0.14097714540E+03  0.14142023725E+03  0.17770000000E+01 0. -1.
         15    1    1    2    0    0  0.12595932670E+02  0.13435245381E+02 -0.31080811483E+03  0.31135832301E+03  0.17770000000E+01 0.  1.
</event>
<event>
 6    1  0.1860328E-003  0.5033976E+03  0.7546771E-02  0.9392239E-01
        -11   -1    0    0    0    0  0.00000000000E+00  0.00000000000E+00  0.50000000000E+03  0.50000000000E+03  0.00000000000E+00 0. -1.
         11   -1    0    0    0    0 -0.00000000000E+00 -0.00000000000E+00 -0.50000000000E+03  0.50000000000E+03  0.00000000000E+00 0.  1.
        -11    1    1    2    0    0  0.96148806367E+01 -0.19751382275E+02  0.49611631336E+03  0.49660241583E+03  0.00000000000E+00 0. -1.
         11    1    1    2    0    0 -0.12001699359E+02 -0.12148296865E+01 -0.33480011967E+03  0.33501736780E+03  0.00000000000E+00 0.  1.
        -15    1    1    2    0    0 -0.17762900829E+01 -0.56931985710E+01 -0.11170452362E+03  0.11187772809E+03  0.17770000000E+01 0.  1.
         15    1    1    2    0    0  0.41631088054E+01  0.26659410533E+02 -0.49611670070E+02  0.56502488273E+02  0.17770000000E+01 0. -1.
</event>
<event>
 6    1  0.1860328E-003  0.5034152E+03  0.7546771E-02  0.9392200E-01
        -11   -1    0    0    0    0  0.00000000000E+00  0.00000000000E+00  0.50000000000E+03  0.50000000000E+03  0.00000000000E+00 0. -1.
         11   -1    0    0    0    0 -0.00000000000E+00 -0.00000000000E+00 -0.50000000000E+03  0.50000000000E+03  0.00000000000E+00 0. -1.
        -11    1    1    2    0    0  0.19118862433E+01  0.19681174183E+02  0.49619092518E+03  0.49658477439E+03  0.00000000000E+00 0. -1.
         11    1    1    2    0    0  0.23157024671E+01 -0.14968852901E+02 -0.45959435908E+03  0.45984389083E+03  0.00000000000E+00 0. -1.
        -15    1    1    2    0    0  0.37848255107E+01  0.48983067636E+01 -0.20076205612E+01  0.67458566998E+01  0.17770000000E+01 0.  1.
         15    1    1    2    0    0 -0.80124142210E+01 -0.96106280455E+01 -0.34588945538E+02  0.36825478076E+02  0.17770000000E+01 0. -1.
</event>
<event>
 6    1  0.1860328E-003  0.5063122E+03  0.7546771E-02  0.9385795E-01
        -11   -1    0    0    0    0  0.00000000000E+00  0.00000000000E+00  0.50000000000E+03  0.50000000000E+03  0.00000000000E+00 0. -1.
         11   -1    0    0    0    0 -0.00000000000E+00 -0.00000000000E+00 -0.50000000000E+03  0.50000000000E+03  0.00000000000E+00 0. -1.
        -11    1    1    2    0    0 -0.28696100127E+01  0.67187745758E+01  0.43233671866E+03  0.43239844460E+03  0.00000000000E+00 0. -1.
         11    1    1    2    0    0  0.19337982740E+02  0.14802997205E+02 -0.49308674575E+03  0.49368778103E+03  0.00000000000E+00 0. -1.
        -15    1    1    2    0    0 -0.23654568770E+02 -0.19640369345E+02  0.33026747712E+02  0.45157574394E+02  0.17770000000E+01 0.  1.
         15    1    1    2    0    0  0.71861960432E+01 -0.18814024351E+01  0.27723279378E+02  0.28756199978E+02  0.17770000000E+01 0. -1.
</event>
<event>
 6    1  0.1860328E-003  0.5071399E+03  0.7546771E-02  0.9383974E-01
        -11   -1    0    0    0    0  0.00000000000E+00  0.00000000000E+00  0.50000000000E+03  0.50000000000E+03  0.00000000000E+00 0.  1.
         11   -1    0    0    0    0 -0.00000000000E+00 -0.00000000000E+00 -0.50000000000E+03  0.50000000000E+03  0.00000000000E+00 0. -1.
        -11    1    1    2    0    0  0.16668326680E+02 -0.54036123854E+01  0.42930992724E+03  0.42966736642E+03  0.00000000000E+00 0.  1.
         11    1    1    2    0    0  0.18410010021E+02  0.85569624764E+01 -0.49244180577E+03  0.49286010403E+03  0.00000000000E+00 0. -1.
        -15    1    1    2    0    0 -0.37125236795E+02 -0.69284330853E+01  0.45098732781E+02  0.58850147150E+02  0.17770000000E+01 0. -1.
         15    1    1    2    0    0  0.20469000938E+01  0.37750829943E+01  0.18033145746E+02  0.18622382396E+02  0.17770000000E+01 0.  1.
</event>
<event>
 6    1  0.1860328E-003  0.5058058E+03  0.7546771E-02  0.9386912E-01
        -11   -1    0    0    0    0  0.00000000000E+00  0.00000000000E+00  0.50000000000E+03  0.50000000000E+03  0.00000000000E+00 0.  1.
         11   -1    0    0    0    0 -0.00000000000E+00 -0.00000000000E+00 -0.50000000000E+03  0.50000000000E+03  0.00000000000E+00 0. -1.
        -11    1    1    2    0    0 -0.10145393564E+02  0.18502095359E+01  0.47038656803E+03  0.47049960220E+03  0.00000000000E+00 0.  1.
         11    1    1    2    0    0  0.21860317993E+02  0.86498761326E+01 -0.49363470021E+03  0.49419420384E+03  0.00000000000E+00 0. -1.
        -15    1    1    2    0    0 -0.15897204857E+02 -0.38930379311E+01  0.85213159194E+01  0.18537729651E+02  0.17770000000E+01 0. -1.
         15    1    1    2    0    0  0.41822804284E+01 -0.66070477374E+01  0.14726816258E+02  0.16768464315E+02  0.17770000000E+01 0.  1.
</event>
<event>
 6    1  0.1860328E-003  0.5420043E+03  0.7546771E-02  0.9310435E-01
        -11   -1    0    0    0    0  0.00000000000E+00  0.00000000000E+00  0.50000000000E+03  0.50000000000E+03  0.00000000000E+00 0. -1.
         11   -1    0    0    0    0 -0.00000000000E+00 -0.00000000000E+00 -0.50000000000E+03  0.50000000000E+03  0.00000000000E+00 0. -1.
        -11    1    1    2    0    0  0.58884619441E+01  0.23696574684E+01  0.44754521945E+03  0.44759022857E+03  0.00000000000E+00 0. -1.
         11    1    1    2    0    0 -0.68853145533E+00 -0.94471351975E+01 -0.45789777340E+03  0.45799573505E+03  0.00000000000E+00 0. -1.
        -15    1    1    2    0    0 -0.42990660963E+02  0.57531736264E+01 -0.18125730451E+02  0.47042488988E+02  0.17770000000E+01 0.  1.
         15    1    1    2    0    0  0.37790730474E+02  0.13243041027E+01  0.28478284400E+02  0.47371547394E+02  0.17770000000E+01 0. -1.
</event>
<event>
 6    1  0.1860328E-003  0.4910731E+03  0.7546771E-02  0.9420009E-01
        -11   -1    0    0    0    0  0.00000000000E+00  0.00000000000E+00  0.50000000000E+03  0.50000000000E+03  0.00000000000E+00 0.  1.
         11   -1    0    0    0    0 -0.00000000000E+00 -0.00000000000E+00 -0.50000000000E+03  0.50000000000E+03  0.00000000000E+00 0. -1.
        -11    1    1    2    0    0 -0.86353273692E+01 -0.11244886438E-01  0.49421216555E+03  0.49428760210E+03  0.00000000000E+00 0.  1.
         11    1    1    2    0    0 -0.15743084941E+01  0.67744572285E+01 -0.48790554303E+03  0.48795511129E+03  0.00000000000E+00 0. -1.
        -15    1    1    2    0    0  0.11492664389E+02 -0.70823087568E+01 -0.71597682604E+01  0.15383772054E+02  0.17770000000E+01 0. -1.
         15    1    1    2    0    0 -0.12830285253E+01  0.31909641471E+00  0.85314573216E+00  0.23735145584E+01  0.17770000000E+01 0.  1.
</event>
<event>
 6    1  0.1860328E-003  0.5072802E+03  0.7546771E-02  0.9383666E-01
        -11   -1    0    0    0    0  0.00000000000E+00  0.00000000000E+00  0.50000000000E+03  0.50000000000E+03  0.00000000000E+00 0.  1.
         11   -1    0    0    0    0 -0.00000000000E+00 -0.00000000000E+00 -0.50000000000E+03  0.50000000000E+03  0.00000000000E+00 0. -1.
        -11    1    1    2    0    0 -0.33437186935E+01  0.13674119810E+02  0.40650771741E+02  0.43019149810E+02  0.00000000000E+00 0.  1.
         11    1    1    2    0    0 -0.86058780734E+01 -0.65526755270E+01 -0.49260109991E+03  0.49271984162E+03  0.00000000000E+00 0. -1.
        -15    1    1    2    0    0  0.98323536401E+01 -0.96353443524E+01  0.45742352983E+03  0.45763408791E+03  0.17770000000E+01 0.  1.
         15    1    1    2    0    0  0.21172431268E+01  0.25139000697E+01 -0.54732016613E+01  0.66269206607E+01  0.17770000000E+01 0. -1.
</event>
<event>
 6    1  0.1860328E-003  0.5039493E+03  0.7546771E-02  0.9391016E-01
        -11   -1    0    0    0    0  0.00000000000E+00  0.00000000000E+00  0.50000000000E+03  0.50000000000E+03  0.00000000000E+00 0. -1.
         11   -1    0    0    0    0 -0.00000000000E+00 -0.00000000000E+00 -0.50000000000E+03  0.50000000000E+03  0.00000000000E+00 0. -1.
        -11    1    1    2    0    0 -0.15173515548E+02  0.52290229542E+01  0.49579100111E+03  0.49605069805E+03  0.00000000000E+00 0. -1.
         11    1    1    2    0    0  0.80052334530E+01 -0.10759674599E+02 -0.41243744180E+03  0.41265542254E+03  0.00000000000E+00 0. -1.
        -15    1    1    2    0    0 -0.18835706400E+00 -0.35805313710E+01  0.24397818444E+01  0.46867843699E+01  0.17770000000E+01 0. -1.
         15    1    1    2    0    0  0.73566391592E+01  0.91111830159E+01 -0.85793341154E+02  0.86607095039E+02  0.17770000000E+01 0.  1.
</event>
<event>
 6    1  0.1860328E-003  0.5086582E+03  0.7546771E-02  0.9380642E-01
        -11   -1    0    0    0    0  0.00000000000E+00  0.00000000000E+00  0.50000000000E+03  0.50000000000E+03  0.00000000000E+00 0.  1.
         11   -1    0    0    0    0 -0.00000000000E+00 -0.00000000000E+00 -0.50000000000E+03  0.50000000000E+03  0.00000000000E+00 0. -1.
        -11    1    1    2    0    0 -0.11252148029E+01  0.82538950218E+01  0.45425070415E+03  0.45432707944E+03  0.00000000000E+00 0.  1.
         11    1    1    2    0    0 -0.42564851066E+01 -0.68033775511E+01 -0.49127622209E+03  0.49134176497E+03  0.00000000000E+00 0. -1.
        -15    1    1    2    0    0 -0.81446333588E+01 -0.10571435242E+02  0.35359971828E+02  0.37836168309E+02  0.17770000000E+01 0. -1.
         15    1    1    2    0    0  0.13526333268E+02  0.91209177712E+01  0.16655461077E+01  0.16494987284E+02  0.17770000000E+01 0.  1.
</event>
<event>
 6    1  0.1860328E-003  0.5069145E+03  0.7546771E-02  0.9384470E-01
        -11   -1    0    0    0    0  0.00000000000E+00  0.00000000000E+00  0.50000000000E+03  0.50000000000E+03  0.00000000000E+00 0. -1.
         11   -1    0    0    0    0 -0.00000000000E+00 -0.00000000000E+00 -0.50000000000E+03  0.50000000000E+03  0.00000000000E+00 0. -1.
        -11    1    1    2    0    0 -0.16086576896E+01  0.76825080476E+01  0.49302301047E+03  0.49308548707E+03  0.00000000000E+00 0. -1.
         11    1    1    2    0    0  0.17701543381E+02  0.13609448547E+01 -0.22578430726E+03  0.22648123590E+03  0.00000000000E+00 0. -1.
        -15    1    1    2    0    0 -0.13480534992E+02 -0.42363789724E+01 -0.27235962388E+03  0.27273172566E+03  0.17770000000E+01 0. -1.
         15    1    1    2    0    0 -0.26123506998E+01 -0.48070739299E+01  0.51209206759E+01  0.77015513707E+01  0.17770000000E+01 0.  1.
</event>
<event>
 6    1  0.1860328E-003  0.5010972E+03  0.7546771E-02  0.9397358E-01
        -11   -1    0    0    0    0  0.00000000000E+00  0.00000000000E+00  0.50000000000E+03  0.50000000000E+03  0.00000000000E+00 0.  1.
         11   -1    0    0    0    0 -0.00000000000E+00 -0.00000000000E+00 -0.50000000000E+03  0.50000000000E+03  0.00000000000E+00 0. -1.
        -11    1    1    2    0    0 -0.69834708338E+00  0.79323620863E+01  0.49883926994E+03  0.49890282350E+03  0.00000000000E+00 0.  1.
         11    1    1    2    0    0  0.70872642604E+01  0.35837526577E+01 -0.44356381272E+03  0.44363490457E+03  0.00000000000E+00 0. -1.
        -15    1    1    2    0    0 -0.19577289760E+01  0.41115935792E+00 -0.13227849514E+02  0.13495758094E+02  0.17770000000E+01 0. -1.
         15    1    1    2    0    0 -0.44311882010E+01 -0.11927274102E+02 -0.42047607708E+02  0.43966513841E+02  0.17770000000E+01 0. -1.
</event>
<event>
 6    1  0.1860328E-003  0.5019667E+03  0.7546771E-02  0.9395420E-01
        -11   -1    0    0    0    0  0.00000000000E+00  0.00000000000E+00  0.50000000000E+03  0.50000000000E+03  0.00000000000E+00 0.  1.
         11   -1    0    0    0    0 -0.00000000000E+00 -0.00000000000E+00 -0.50000000000E+03  0.50000000000E+03  0.00000000000E+00 0. -1.
        -11    1    1    2    0    0 -0.29957152823E+01 -0.61294166633E+01  0.49798661075E+03  0.49803334080E+03  0.00000000000E+00 0.  1.
         11    1    1    2    0    0  0.27477649003E+01  0.16365219637E+02 -0.39615125879E+03  0.39649866389E+03  0.00000000000E+00 0. -1.
        -15    1    1    2    0    0  0.22399554922E+01 -0.15893899708E+02 -0.37503160408E+02  0.40832318305E+02  0.17770000000E+01 0.  1.
         15    1    1    2    0    0 -0.19920051102E+01  0.56580967346E+01 -0.64332191557E+02  0.64635677010E+02  0.17770000000E+01 0. -1.
</event>
<event>
 6    1  0.1860328E-003  0.5018169E+03  0.7546771E-02  0.9395753E-01
        -11   -1    0    0    0    0  0.00000000000E+00  0.00000000000E+00  0.50000000000E+03  0.50000000000E+03  0.00000000000E+00 0. -1.
         11   -1    0    0    0    0 -0.00000000000E+00 -0.00000000000E+00 -0.50000000000E+03  0.50000000000E+03  0.00000000000E+00 0. -1.
        -11    1    1    2    0    0  0.18235668170E+02  0.92225188354E+01  0.49776377749E+03  0.49818307139E+03  0.00000000000E+00 0. -1.
         11    1    1    2    0    0 -0.22398556633E+02  0.91636919900E+01 -0.31226089488E+03  0.31319727819E+03  0.00000000000E+00 0. -1.
        -15    1    1    2    0    0  0.13080507619E+02 -0.17697040203E+02 -0.89430394854E+02  0.92115352490E+02  0.17770000000E+01 0.  1.
         15    1    1    2    0    0 -0.89176191559E+01 -0.68917062229E+00 -0.96072487750E+02  0.96504297930E+02  0.17770000000E+01 0. -1.
</event>
<event>
 6    1  0.1860328E-003  0.5000419E+03  0.7546771E-02  0.9399716E-01
        -11   -1    0    0    0    0  0.00000000000E+00  0.00000000000E+00  0.50000000000E+03  0.50000000000E+03  0.00000000000E+00 0. -1.
         11   -1    0    0    0    0 -0.00000000000E+00 -0.00000000000E+00 -0.50000000000E+03  0.50000000000E+03  0.00000000000E+00 0.  1.
        -11    1    1    2    0    0  0.13967957067E+01 -0.24698203236E+01  0.16636893707E+03  0.16639313168E+03  0.00000000000E+00 0. -1.
         11    1    1    2    0    0  0.46090322231E+01  0.60740469499E+01 -0.49989997252E+03  0.49995811800E+03  0.00000000000E+00 0.  1.
        -15    1    1    2    0    0 -0.48346357316E+00 -0.43164404491E+00  0.41775565508E+02  0.41818365058E+02  0.17770000000E+01 0.  1.
         15    1    1    2    0    0 -0.55223643566E+01 -0.31725825813E+01  0.29175546995E+03  0.29183038526E+03  0.17770000000E+01 0. -1.
</event>
<event>
 6    1  0.1860328E-003  0.5014232E+03  0.7546771E-02  0.9396631E-01
        -11   -1    0    0    0    0  0.00000000000E+00  0.00000000000E+00  0.50000000000E+03  0.50000000000E+03  0.00000000000E+00 0.  1.
         11   -1    0    0    0    0 -0.00000000000E+00 -0.00000000000E+00 -0.50000000000E+03  0.50000000000E+03  0.00000000000E+00 0.  1.
        -11    1    1    2    0    0 -0.62031292871E+01 -0.68964531854E+01  0.45049599277E+03  0.45059147726E+03  0.00000000000E+00 0.  1.
         11    1    1    2    0    0  0.45041199744E+01 -0.55546184553E+01 -0.49852549555E+03  0.49857678506E+03  0.00000000000E+00 0.  1.
        -15    1    1    2    0    0 -0.30108214448E+01  0.67392933598E+01  0.13650129278E+02  0.15619439140E+02  0.17770000000E+01 0. -1.
         15    1    1    2    0    0  0.47098307575E+01  0.57117782809E+01  0.34379373506E+02  0.35212298541E+02  0.17770000000E+01 0.  1.
</event>
<event>
 6    1  0.1860328E-003  0.5036276E+03  0.7546771E-02  0.9391729E-01
        -11   -1    0    0    0    0  0.00000000000E+00  0.00000000000E+00  0.50000000000E+03  0.50000000000E+03  0.00000000000E+00 0.  1.
         11   -1    0    0    0    0 -0.00000000000E+00 -0.00000000000E+00 -0.50000000000E+03  0.50000000000E+03  0.00000000000E+00 0.  1.
        -11    1    1    2    0    0 -0.45405845734E+01 -0.14297203175E+02  0.49614571497E+03  0.49637243820E+03  0.00000000000E+00 0.  1.
         11    1    1    2    0    0 -0.59198226427E+01  0.89742229106E+01 -0.38513625259E+03  0.38528627543E+03  0.00000000000E+00 0.  1.
        -15    1    1    2    0    0  0.13514400353E+02 -0.11887741030E+02 -0.85335350308E+02  0.87230941442E+02  0.17770000000E+01 0.  1.
         15    1    1    2    0    0 -0.30539931369E+01  0.17210721294E+02 -0.25674112076E+02  0.31110344927E+02  0.17770000000E+01 0. -1.
</event>
<event>
 6    1  0.1860328E-003  0.5129140E+03  0.7546771E-02  0.9371368E-01
        -11   -1    0    0    0    0  0.00000000000E+00  0.00000000000E+00  0.50000000000E+03  0.50000000000E+03  0.00000000000E+00 0.  1.
         11   -1    0    0    0    0 -0.00000000000E+00 -0.00000000000E+00 -0.50000000000E+03  0.50000000000E+03  0.00000000000E+00 0.  1.
        -11    1    1    2    0    0  0.10219758210E+02 -0.15813123165E+02  0.48672196046E+03  0.48708599355E+03  0.00000000000E+00 0.  1.
         11    1    1    2    0    0 -0.20257219897E+02  0.97074252205E+01 -0.43646951590E+03  0.43704716836E+03  0.00000000000E+00 0.  1.
        -15    1    1    2    0    0  0.17018999666E+02 -0.16736072263E+02 -0.45554085281E+02  0.51459448882E+02  0.17770000000E+01 0.  1.
         15    1    1    2    0    0 -0.69815379790E+01  0.22841770208E+02 -0.46983592755E+01  0.24407389202E+02  0.17770000000E+01 0. -1.
</event>
<event>
 6    1  0.1860328E-003  0.5111752E+03  0.7546771E-02  0.9375146E-01
        -11   -1    0    0    0    0  0.00000000000E+00  0.00000000000E+00  0.50000000000E+03  0.50000000000E+03  0.00000000000E+00 0. -1.
         11   -1    0    0    0    0 -0.00000000000E+00 -0.00000000000E+00 -0.50000000000E+03  0.50000000000E+03  0.00000000000E+00 0.  1.
        -11    1    1    2    0    0  0.17748602011E+02 -0.75121282221E+01  0.34105842967E+03  0.34160254301E+03  0.00000000000E+00 0. -1.
         11    1    1    2    0    0  0.15122580116E+02  0.64207495938E+01 -0.48854861309E+03  0.48882478027E+03  0.00000000000E+00 0.  1.
        -15    1    1    2    0    0 -0.10535883229E+02 -0.58951232848E+01 -0.64848989714E+01  0.13819151842E+02  0.17770000000E+01 0.  1.
         15    1    1    2    0    0 -0.22335298898E+02  0.69865019131E+01  0.15397508239E+03  0.15575352488E+03  0.17770000000E+01 0. -1.
</event>
<event>
 6    1  0.1860328E-003  0.5072734E+03  0.7546771E-02  0.9383680E-01
        -11   -1    0    0    0    0  0.00000000000E+00  0.00000000000E+00  0.50000000000E+03  0.50000000000E+03  0.00000000000E+00 0. -1.
         11   -1    0    0    0    0 -0.00000000000E+00 -0.00000000000E+00 -0.50000000000E+03  0.50000000000E+03  0.00000000000E+00 0. -1.
        -11    1    1    2    0    0  0.15201672961E+02  0.20990105224E+01  0.43918940521E+03  0.43945742724E+03  0.00000000000E+00 0. -1.
         11    1    1    2    0    0  0.10642409635E+02 -0.45016879478E+01 -0.49259103671E+03  0.49272655249E+03  0.00000000000E+00 0. -1.
        -15    1    1    2    0    0  0.43797371870E+01  0.92586951221E+01  0.17500924734E+02  0.20355481540E+02  0.17770000000E+01 0. -1.
         15    1    1    2    0    0 -0.30223819784E+02 -0.68560176967E+01  0.35900706767E+02  0.47460538728E+02  0.17770000000E+01 0.  1.
</event>
<event>
 6    1  0.1860328E-003  0.4521287E+03  0.7546771E-02  0.9513796E-01
        -11   -1    0    0    0    0  0.00000000000E+00  0.00000000000E+00  0.50000000000E+03  0.50000000000E+03  0.00000000000E+00 0.  1.
         11   -1    0    0    0    0 -0.00000000000E+00 -0.00000000000E+00 -0.50000000000E+03  0.50000000000E+03  0.00000000000E+00 0. -1.
        -11    1    1    2    0    0 -0.95768418529E+01  0.91442353105E+00  0.46152642544E+03  0.46162668191E+03  0.00000000000E+00 0.  1.
         11    1    1    2    0    0 -0.32635055176E+02 -0.34065231642E+02 -0.44192347523E+03  0.44443429749E+03  0.00000000000E+00 0. -1.
        -15    1    1    2    0    0  0.35185368137E+02  0.28392210444E+02 -0.46977624739E+02  0.65224096007E+02  0.17770000000E+01 0. -1.
         15    1    1    2    0    0  0.70265288921E+01  0.47585976672E+01  0.27374674519E+02  0.28714924587E+02  0.17770000000E+01 0.  1.
</event>
<event>
 6    1  0.1860328E-003  0.5080634E+03  0.7546771E-02  0.9381946E-01
        -11   -1    0    0    0    0  0.00000000000E+00  0.00000000000E+00  0.50000000000E+03  0.50000000000E+03  0.00000000000E+00 0. -1.
         11   -1    0    0    0    0 -0.00000000000E+00 -0.00000000000E+00 -0.50000000000E+03  0.50000000000E+03  0.00000000000E+00 0.  1.
        -11    1    1    2    0    0 -0.46052516054E-01 -0.54551577832E+01  0.36073863756E+03  0.36077988510E+03  0.00000000000E+00 0. -1.
         11    1    1    2    0    0 -0.17130666708E+02 -0.24090692755E+02 -0.49104761521E+03  0.49193656260E+03  0.00000000000E+00 0.  1.
        -15    1    1    2    0    0 -0.46858684471E+01  0.35993562167E+02  0.11273320256E+03  0.11844588034E+03  0.17770000000E+01 0. -1.
         15    1    1    2    0    0  0.21862587671E+02 -0.64477116286E+01  0.17575775090E+02  0.28837671958E+02  0.17770000000E+01 0.  1.
</event>
<event>
 6    1  0.1860328E-003  0.5057367E+03  0.7546771E-02  0.9387064E-01
        -11   -1    0    0    0    0  0.00000000000E+00  0.00000000000E+00  0.50000000000E+03  0.50000000000E+03  0.00000000000E+00 0.  1.
         11   -1    0    0    0    0 -0.00000000000E+00 -0.00000000000E+00 -0.50000000000E+03  0.50000000000E+03  0.00000000000E+00 0. -1.
        -11    1    1    2    0    0  0.83991989131E+01  0.39882063635E+01  0.32898951429E+03  0.32912087877E+03  0.00000000000E+00 0.  1.
         11    1    1    2    0    0 -0.29496590524E+01 -0.15094198228E+02 -0.49402392320E+03  0.49426326184E+03  0.00000000000E+00 0. -1.
        -15    1    1    2    0    0  0.63772019415E+01 -0.15529482689E+01 -0.31769634495E+01  0.75054099613E+01  0.17770000000E+01 0.  1.
         15    1    1    2    0    0 -0.11826741802E+02  0.12658940133E+02  0.16821137236E+03  0.16911044943E+03  0.17770000000E+01 0. -1.
</event>
<event>
 6    1  0.1860328E-003  0.5027938E+03  0.7546771E-02  0.9393580E-01
        -11   -1    0    0    0    0  0.00000000000E+00  0.00000000000E+00  0.50000000000E+03  0.50000000000E+03  0.00000000000E+00 0.  1.
         11   -1    0    0    0    0 -0.00000000000E+00 -0.00000000000E+00 -0.50000000000E+03  0.50000000000E+03  0.00000000000E+00 0. -1.
        -11    1    1    2    0    0  0.20794249877E+01  0.99883407475E+01  0.48670469927E+03  0.48681162193E+03  0.00000000000E+00 0.  1.
         11    1    1    2    0    0  0.17536037383E+01 -0.82903045832E+01 -0.49713394087E+03  0.49720615386E+03  0.00000000000E+00 0. -1.
        -15    1    1    2    0    0 -0.21858046633E+01 -0.93441143714E+00 -0.18138594379E+01  0.34783159461E+01  0.17770000000E+01 0. -1.
         15    1    1    2    0    0 -0.16472240627E+01 -0.76362472718E+00  0.12243101035E+02  0.12503908261E+02  0.17770000000E+01 0.  1.
</event>
<event>
 6    1  0.1860328E-003  0.5040559E+03  0.7546771E-02  0.9390780E-01
        -11   -1    0    0    0    0  0.00000000000E+00  0.00000000000E+00  0.50000000000E+03  0.50000000000E+03  0.00000000000E+00 0. -1.
         11   -1    0    0    0    0 -0.00000000000E+00 -0.00000000000E+00 -0.50000000000E+03  0.50000000000E+03  0.00000000000E+00 0. -1.
        -11    1    1    2    0    0  0.17873691780E+02  0.59394798855E+01  0.49558627367E+03  0.49594405020E+03  0.00000000000E+00 0. -1.
         11    1    1    2    0    0 -0.46517592040E+01 -0.37049765994E+01 -0.36321118289E+03  0.36325986441E+03  0.00000000000E+00 0. -1.
        -15    1    1    2    0    0  0.88318219017E+01 -0.11271154620E+02 -0.97229543626E+02  0.98294363457E+02  0.17770000000E+01 0.  1.
         15    1    1    2    0    0 -0.22053754477E+02  0.90366513340E+01 -0.35145547151E+02  0.42501721935E+02  0.17770000000E+01 0. -1.
</event>
<event>
 6    1  0.1860328E-003  0.5017279E+03  0.7546771E-02  0.9395952E-01
        -11   -1    0    0    0    0  0.00000000000E+00  0.00000000000E+00  0.50000000000E+03  0.50000000000E+03  0.00000000000E+00 0.  1.
         11   -1    0    0    0    0 -0.00000000000E+00 -0.00000000000E+00 -0.50000000000E+03  0.50000000000E+03  0.00000000000E+00 0. -1.
        -11    1    1    2    0    0 -0.66644600148E+01 -0.14613839952E+02  0.38718686508E+03  0.38751986766E+03  0.00000000000E+00 0.  1.
         11    1    1    2    0    0  0.18207184983E+01 -0.67392666350E+01 -0.49822317035E+03  0.49827207448E+03  0.00000000000E+00 0. -1.
        -15    1    1    2    0    0  0.52104137825E+01  0.17084868602E+02  0.10535928774E+03  0.10687739887E+03  0.17770000000E+01 0.  1.
         15    1    1    2    0    0 -0.36667226591E+00  0.42682379854E+01  0.56770175366E+01  0.73306589855E+01  0.17770000000E+01 0. -1.
</event>
<event>
 6    1  0.1860328E-003  0.5051449E+03  0.7546771E-02  0.9388371E-01
        -11   -1    0    0    0    0  0.00000000000E+00  0.00000000000E+00  0.50000000000E+03  0.50000000000E+03  0.00000000000E+00 0. -1.
         11   -1    0    0    0    0 -0.00000000000E+00 -0.00000000000E+00 -0.50000000000E+03  0.50000000000E+03  0.00000000000E+00 0. -1.
        -11    1    1    2    0    0  0.36452567732E+01 -0.10535649057E+02  0.44495132475E+03  0.44509096732E+03  0.00000000000E+00 0. -1.
         11    1    1    2    0    0  0.10076380348E+01 -0.10064515289E+02 -0.49475170124E+03  0.49485508554E+03  0.00000000000E+00 0. -1.
        -15    1    1    2    0    0  0.32619725727E+01  0.21875191590E+02  0.22725136170E+02  0.31760888135E+02  0.17770000000E+01 0. -1.
         15    1    1    2    0    0 -0.79148673807E+01 -0.12750272448E+01  0.27075240324E+02  0.28293059003E+02  0.17770000000E+01 0.  1.
</event>
<event>
 6    1  0.1860328E-003  0.5172781E+03  0.7546771E-02  0.9361957E-01
        -11   -1    0    0    0    0  0.00000000000E+00  0.00000000000E+00  0.50000000000E+03  0.50000000000E+03  0.00000000000E+00 0. -1.
         11   -1    0    0    0    0 -0.00000000000E+00 -0.00000000000E+00 -0.50000000000E+03  0.50000000000E+03  0.00000000000E+00 0. -1.
        -11    1    1    2    0    0 -0.68479003790E+01  0.72583085377E+01  0.48261870883E+03  0.48272186080E+03  0.00000000000E+00 0. -1.
         11    1    1    2    0    0  0.20660461275E+01  0.14841654168E+02 -0.45484869099E+03  0.45509545696E+03  0.00000000000E+00 0. -1.
        -15    1    1    2    0    0  0.16858081409E+02  0.87742565596E+01 -0.20853568057E+02  0.28270329264E+02  0.17770000000E+01 0.  1.
         15    1    1    2    0    0 -0.12076227158E+02 -0.30874219265E+02 -0.69164497830E+01  0.33912352973E+02  0.17770000000E+01 0. -1.
</event>
<event>
 6    1  0.1860328E-003  0.5008260E+03  0.7546771E-02  0.9397963E-01
        -11   -1    0    0    0    0  0.00000000000E+00  0.00000000000E+00  0.50000000000E+03  0.50000000000E+03  0.00000000000E+00 0. -1.
         11   -1    0    0    0    0 -0.00000000000E+00 -0.00000000000E+00 -0.50000000000E+03  0.50000000000E+03  0.00000000000E+00 0. -1.
        -11    1    1    2    0    0  0.41487543047E+01 -0.60441094434E+01  0.24214456130E+03  0.24225550972E+03  0.00000000000E+00 0. -1.
         11    1    1    2    0    0  0.62627013827E+01 -0.37128588830E+01 -0.49912091477E+03  0.49917401206E+03  0.00000000000E+00 0. -1.
        -15    1    1    2    0    0  0.24292858003E+01 -0.31883230910E+01  0.10042001017E+02  0.10957479047E+02  0.17770000000E+01 0.  1.
         15    1    1    2    0    0 -0.12840741488E+02  0.12945291417E+02  0.24693435246E+03  0.24761299918E+03  0.17770000000E+01 0. -1.
</event>
<event>
 6    1  0.1860328E-003  0.5160208E+03  0.7546771E-02  0.9364659E-01
        -11   -1    0    0    0    0  0.00000000000E+00  0.00000000000E+00  0.50000000000E+03  0.50000000000E+03  0.00000000000E+00 0. -1.
         11   -1    0    0    0    0 -0.00000000000E+00 -0.00000000000E+00 -0.50000000000E+03  0.50000000000E+03  0.00000000000E+00 0.  1.
        -11    1    1    2    0    0  0.27369080783E+01 -0.19536855280E+02  0.48357694202E+03  0.48397917128E+03  0.00000000000E+00 0. -1.
         11    1    1    2    0    0  0.33728172090E+02 -0.11176332084E+02 -0.38851908769E+03  0.39014046379E+03  0.00000000000E+00 0.  1.
        -15    1    1    2    0    0 -0.45268514242E+02  0.17100363079E+02 -0.97998090056E+02  0.10930893917E+03  0.17770000000E+01 0.  1.
         15    1    1    2    0    0  0.88034340743E+01  0.13612824285E+02  0.29402357247E+01  0.16571425757E+02  0.17770000000E+01 0. -1.
</event>
<event>
 6    1  0.1860328E-003  0.5031583E+03  0.7546771E-02  0.9392770E-01
        -11   -1    0    0    0    0  0.00000000000E+00  0.00000000000E+00  0.50000000000E+03  0.50000000000E+03  0.00000000000E+00 0.  1.
         11   -1    0    0    0    0 -0.00000000000E+00 -0.00000000000E+00 -0.50000000000E+03  0.50000000000E+03  0.00000000000E+00 0. -1.
        -11    1    1    2    0    0  0.34889040785E+01 -0.49696615270E+01  0.37869282980E+03  0.37874150727E+03  0.00000000000E+00 0.  1.
         11    1    1    2    0    0 -0.57309809379E+00 -0.91619894870E+01 -0.49675693444E+03  0.49684174785E+03  0.00000000000E+00 0. -1.
        -15    1    1    2    0    0  0.11725304748E+01  0.14629763283E+01  0.10695852180E+03  0.10698971092E+03  0.17770000000E+01 0. -1.
         15    1    1    2    0    0 -0.40883364595E+01  0.12668674686E+02  0.11105582843E+02  0.17427033958E+02  0.17770000000E+01 0.  1.
</event>
<event>
 6    1  0.1860328E-003  0.5006529E+03  0.7546771E-02  0.9398350E-01
        -11   -1    0    0    0    0  0.00000000000E+00  0.00000000000E+00  0.50000000000E+03  0.50000000000E+03  0.00000000000E+00 0.  1.
         11   -1    0    0    0    0 -0.00000000000E+00 -0.00000000000E+00 -0.50000000000E+03  0.50000000000E+03  0.00000000000E+00 0. -1.
        -11    1    1    2    0    0  0.38152411597E+01  0.83973094194E+00  0.26180716282E+03  0.26183630710E+03  0.00000000000E+00 0.  1.
         11    1    1    2    0    0  0.10545648632E+01 -0.73926563627E+01 -0.49929121202E+03  0.49934705153E+03  0.00000000000E+00 0. -1.
        -15    1    1    2    0    0  0.92470977993E+00 -0.55483002262E+01  0.16340256357E+03  0.16350900353E+03  0.17770000000E+01 0.  1.
         15    1    1    2    0    0 -0.57945158028E+01  0.12101225647E+02  0.74081485626E+02  0.75307637841E+02  0.17770000000E+01 0. -1.
</event>
<event>
 6    1  0.1860328E-003  0.5003137E+03  0.7546771E-02  0.9399108E-01
        -11   -1    0    0    0    0  0.00000000000E+00  0.00000000000E+00  0.50000000000E+03  0.50000000000E+03  0.00000000000E+00 0. -1.
         11   -1    0    0    0    0 -0.00000000000E+00 -0.00000000000E+00 -0.50000000000E+03  0.50000000000E+03  0.00000000000E+00 0. -1.
        -11    1    1    2    0    0  0.10999792937E+02 -0.89858961596E+01  0.49948442193E+03  0.49968633114E+03  0.00000000000E+00 0. -1.
         11    1    1    2    0    0 -0.97015052822E+00  0.99767211018E+00 -0.93000431782E+02  0.93010842666E+02  0.00000000000E+00 0. -1.
        -15    1    1    2    0    0 -0.13336390544E+01 -0.49107407369E+01 -0.24550454686E+03  0.24556370707E+03  0.17770000000E+01 0. -1.
         15    1    1    2    0    0 -0.86960033541E+01  0.12898964786E+02 -0.16097944329E+03  0.16173911913E+03  0.17770000000E+01 0.  1.
</event>
<event>
 6    1  0.1860328E-003  0.5011366E+03  0.7546771E-02  0.9397270E-01
        -11   -1    0    0    0    0  0.00000000000E+00  0.00000000000E+00  0.50000000000E+03  0.50000000000E+03  0.00000000000E+00 0.  1.
         11   -1    0    0    0    0 -0.00000000000E+00 -0.00000000000E+00 -0.50000000000E+03  0.50000000000E+03  0.00000000000E+00 0.  1.
        -11    1    1    2    0    0  0.93943093716E+01  0.17054956871E+01  0.86916258450E+02  0.87439108796E+02  0.00000000000E+00 0.  1.
         11    1    1    2    0    0 -0.17668582450E+02  0.13777162811E+02 -0.49835997727E+03  0.49886336403E+03  0.00000000000E+00 0.  1.
        -15    1    1    2    0    0  0.34247214085E+01 -0.24231772648E+02  0.37671314381E+03  0.37751140111E+03  0.17770000000E+01 0.  1.
         15    1    1    2    0    0  0.48495516702E+01  0.87491141503E+01  0.34730575014E+02  0.36186126065E+02  0.17770000000E+01 0. -1.
</event>
<event>
 6    1  0.1860328E-003  0.5038281E+03  0.7546771E-02  0.9391285E-01
        -11   -1    0    0    0    0  0.00000000000E+00  0.00000000000E+00  0.50000000000E+03  0.50000000000E+03  0.00000000000E+00 0. -1.
         11   -1    0    0    0    0 -0.00000000000E+00 -0.00000000000E+00 -0.50000000000E+03  0.50000000000E+03  0.00000000000E+00 0.  1.
        -11    1    1    2    0    0 -0.67014602824E+01 -0.22291357169E+01  0.49612167602E+03  0.49617194201E+03  0.00000000000E+00 0. -1.
         11    1    1    2    0    0  0.92527583895E+01  0.52864192075E+01 -0.44398061920E+03  0.44410848899E+03  0.00000000000E+00 0.  1.
        -15    1    1    2    0    0 -0.73725656234E+01 -0.67159859313E+01 -0.35700415095E+01  0.10740675783E+02  0.17770000000E+01 0.  1.
         15    1    1    2    0    0  0.48212675163E+01  0.36587024407E+01 -0.48571015309E+02  0.48978893221E+02  0.17770000000E+01 0. -1.
</event>
<event>
 6    1  0.1860328E-003  0.5022314E+03  0.7546771E-02  0.9394831E-01
        -11   -1    0    0    0    0  0.00000000000E+00  0.00000000000E+00  0.50000000000E+03  0.50000000000E+03  0.00000000000E+00 0.  1.
         11   -1    0    0    0    0 -0.00000000000E+00 -0.00000000000E+00 -0.50000000000E+03  0.50000000000E+03  0.00000000000E+00 0. -1.
        -11    1    1    2    0    0  0.46704287376E+01  0.63394684685E+01  0.44800836791E+03  0.44807755967E+03  0.00000000000E+00 0.  1.
         11    1    1    2    0    0 -0.32044528500E+01 -0.70099038383E+01 -0.49770889811E+03  0.49776857528E+03  0.00000000000E+00 0. -1.
        -15    1    1    2    0    0 -0.31434323632E+01 -0.67809029899E+01  0.43454997551E+02  0.44128860778E+02  0.17770000000E+01 0. -1.
         15    1    1    2    0    0  0.16774564756E+01  0.74513383597E+01  0.62455326577E+01  0.10025004277E+02  0.17770000000E+01 0. -1.
</event>
<event>
 6    1  0.1860328E-003  0.5003719E+03  0.7546771E-02  0.9398978E-01
        -11   -1    0    0    0    0  0.00000000000E+00  0.00000000000E+00  0.50000000000E+03  0.50000000000E+03  0.00000000000E+00 0. -1.
         11   -1    0    0    0    0 -0.00000000000E+00 -0.00000000000E+00 -0.50000000000E+03  0.50000000000E+03  0.00000000000E+00 0.  1.
        -11    1    1    2    0    0  0.62614703588E+01  0.15346005319E+01  0.21438580306E+03  0.21448271158E+03  0.00000000000E+00 0. -1.
         11    1    1    2    0    0  0.42449806511E+01 -0.53263076059E+01 -0.49958166363E+03  0.49962808973E+03  0.00000000000E+00 0.  1.
        -15    1    1    2    0    0 -0.49975600771E+01  0.38560528913E+01  0.25803497953E+03  0.25811829293E+03  0.17770000000E+01 0. -1.
         15    1    1    2    0    0 -0.55088909329E+01 -0.64345817311E-01  0.27160881031E+02  0.27770905766E+02  0.17770000000E+01 0.  1.
</event>
<event>
 6    1  0.1860328E-003  0.5017933E+03  0.7546771E-02  0.9395806E-01
        -11   -1    0    0    0    0  0.00000000000E+00  0.00000000000E+00  0.50000000000E+03  0.50000000000E+03  0.00000000000E+00 0.  1.
         11   -1    0    0    0    0 -0.00000000000E+00 -0.00000000000E+00 -0.50000000000E+03  0.50000000000E+03  0.00000000000E+00 0. -1.
        -11    1    1    2    0    0 -0.12563552569E+02 -0.34942565560E+01  0.46861775497E+03  0.46879916057E+03  0.00000000000E+00 0.  1.
         11    1    1    2    0    0  0.76278970028E+01 -0.21749448107E+01 -0.49814357875E+03  0.49820672441E+03  0.00000000000E+00 0. -1.
        -15    1    1    2    0    0  0.59894518227E+01  0.51836686547E+00  0.25170584678E+02  0.25939512319E+02  0.17770000000E+01 0. -1.
         15    1    1    2    0    0 -0.10537962561E+01  0.51508345012E+01  0.43552391051E+01  0.70546027012E+01  0.17770000000E+01 0.  1.
</event>
<event>
 6    1  0.1860328E-003  0.5041512E+03  0.7546771E-02  0.9390569E-01
        -11   -1    0    0    0    0  0.00000000000E+00  0.00000000000E+00  0.50000000000E+03  0.50000000000E+03  0.00000000000E+00 0. -1.
         11   -1    0    0    0    0 -0.00000000000E+00 -0.00000000000E+00 -0.50000000000E+03  0.50000000000E+03  0.00000000000E+00 0. -1.
        -11    1    1    2    0    0 -0.99197635420E+01  0.96104206439E+01  0.49565636823E+03  0.49584876451E+03  0.00000000000E+00 0. -1.
         11    1    1    2    0    0  0.74743700337E+01  0.66886409815E+01 -0.28504314843E+03  0.28521956559E+03  0.00000000000E+00 0. -1.
        -15    1    1    2    0    0  0.11256373728E+02 -0.16989245211E+02 -0.20872003939E+03  0.20972017780E+03  0.17770000000E+01 0. -1.
         15    1    1    2    0    0 -0.88109802195E+01  0.69018358565E+00 -0.18931804060E+01  0.92114921082E+01  0.17770000000E+01 0.  1.
</event>
<event>
 6    1  0.1860328E-003  0.5026506E+03  0.7546771E-02  0.9393898E-01
        -11   -1    0    0    0    0  0.00000000000E+00  0.00000000000E+00  0.50000000000E+03  0.50000000000E+03  0.00000000000E+00 0. -1.
         11   -1    0    0    0    0 -0.00000000000E+00 -0.00000000000E+00 -0.50000000000E+03  0.50000000000E+03  0.00000000000E+00 0. -1.
        -11    1    1    2    0    0 -0.81635609405E+01  0.10716828956E+02  0.36106431392E+03  0.36131555867E+03  0.00000000000E+00 0. -1.
         11    1    1    2    0    0  0.11386070716E+02  0.79134143118E+01 -0.49715611363E+03  0.49734944058E+03  0.00000000000E+00 0. -1.
        -15    1    1    2    0    0 -0.12951708728E+02 -0.18271323345E+01  0.22534739328E+02  0.26116228233E+02  0.17770000000E+01 0.  1.
         15    1    1    2    0    0  0.97291989530E+01 -0.16803110933E+02  0.11355706037E+03  0.11521877251E+03  0.17770000000E+01 0. -1.
</event>
<event>
 6    1  0.1860328E-003  0.4737878E+03  0.7546771E-02  0.9460451E-01
        -11   -1    0    0    0    0  0.00000000000E+00  0.00000000000E+00  0.50000000000E+03  0.50000000000E+03  0.00000000000E+00 0.  1.
         11   -1    0    0    0    0 -0.00000000000E+00 -0.00000000000E+00 -0.50000000000E+03  0.50000000000E+03  0.00000000000E+00 0. -1.
        -11    1    1    2    0    0  0.28709203398E+01 -0.65440055634E+01  0.47436150501E+03  0.47441532819E+03  0.00000000000E+00 0.  1.
         11    1    1    2    0    0  0.58633102112E+01 -0.27304150718E+01 -0.47320243286E+03  0.47324663341E+03  0.00000000000E+00 0. -1.
        -15    1    1    2    0    0  0.74370976583E+01  0.10302323322E+02  0.21132419482E+02  0.24722159485E+02  0.17770000000E+01 0.  1.
         15    1    1    2    0    0 -0.16171328209E+02 -0.10279026866E+01 -0.22291491630E+02  0.27615878912E+02  0.17770000000E+01 0. -1.
</event>
<event>
 6    1  0.1860328E-003  0.5035752E+03  0.7546771E-02  0.9391845E-01
        -11   -1    0    0    0    0  0.00000000000E+00  0.00000000000E+00  0.50000000000E+03  0.50000000000E+03  0.00000000000E+00 0. -1.
         11   -1    0    0    0    0 -0.00000000000E+00 -0.00000000000E+00 -0.50000000000E+03  0.50000000000E+03  0.00000000000E+00 0. -1.
        -11    1    1    2    0    0 -0.86651450293E+01 -0.60096016728E+01  0.45411074641E+03  0.45423316706E+03  0.00000000000E+00 0. -1.
         11    1    1    2    0    0 -0.11203571957E+02  0.14151976014E+01 -0.49629629960E+03  0.49642475744E+03  0.00000000000E+00 0. -1.
        -15    1    1    2    0    0  0.39318245752E+01  0.61313398665E+01  0.55713884841E+01  0.93408068008E+01  0.17770000000E+01 0.  1.
         15    1    1    2    0    0  0.15936892412E+02 -0.15369357951E+01  0.36614164702E+02  0.40001268695E+02  0.17770000000E+01 0.  1.
</event>
<event>
 6    1  0.1860328E-003  0.5137037E+03  0.7546771E-02  0.9369658E-01
        -11   -1    0    0    0    0  0.00000000000E+00  0.00000000000E+00  0.50000000000E+03  0.50000000000E+03  0.00000000000E+00 0. -1.
         11   -1    0    0    0    0 -0.00000000000E+00 -0.00000000000E+00 -0.50000000000E+03  0.50000000000E+03  0.00000000000E+00 0.  1.
        -11    1    1    2    0    0  0.29932825205E+01  0.29524236267E+01  0.79148991756E+02  0.79260579367E+02  0.00000000000E+00 0. -1.
         11    1    1    2    0    0 -0.12042842326E+02 -0.15020199864E+02 -0.48591507013E+03  0.48629630045E+03  0.00000000000E+00 0.  1.
        -15    1    1    2    0    0  0.18669764430E+02  0.19499972857E+02 -0.43338499848E+00  0.27058355398E+02  0.17770000000E+01 0.  1.
         15    1    1    2    0    0 -0.96202046241E+01 -0.74321966200E+01  0.40719946337E+03  0.40738476479E+03  0.17770000000E+01 0. -1.
</event>
<event>
 6    1  0.1860328E-003  0.5850270E+03  0.7546771E-02  0.9227385E-01
        -11   -1    0    0    0    0  0.00000000000E+00  0.00000000000E+00  0.50000000000E+03  0.50000000000E+03  0.00000000000E+00 0. -1.
         11   -1    0    0    0    0 -0.00000000000E+00 -0.00000000000E+00 -0.50000000000E+03  0.50000000000E+03  0.00000000000E+00 0.  1.
        -11    1    1    2    0    0 -0.41331864512E+01  0.10292612801E+02  0.41482474123E+03  0.41497299556E+03  0.00000000000E+00 0. -1.
         11    1    1    2    0    0  0.10064880013E+02  0.28958752417E+01 -0.26955880143E+03  0.26976218291E+03  0.00000000000E+00 0.  1.
        -15    1    1    2    0    0 -0.16120085019E+02  0.80574357156E+02  0.51544223676E+02  0.97015714683E+02  0.17770000000E+01 0.  1.
         15    1    1    2    0    0  0.10188391457E+02 -0.93762845198E+02 -0.19681016348E+03  0.21824910684E+03  0.17770000000E+01 0. -1.
</event>
<event>
 6    1  0.1860328E-003  0.5007615E+03  0.7546771E-02  0.9398107E-01
        -11   -1    0    0    0    0  0.00000000000E+00  0.00000000000E+00  0.50000000000E+03  0.50000000000E+03  0.00000000000E+00 0. -1.
         11   -1    0    0    0    0 -0.00000000000E+00 -0.00000000000E+00 -0.50000000000E+03  0.50000000000E+03  0.00000000000E+00 0. -1.
        -11    1    1    2    0    0  0.86636777390E+00  0.48555086034E+00  0.56211782704E+02  0.56220555561E+02  0.00000000000E+00 0. -1.
         11    1    1    2    0    0  0.50767496160E+01 -0.18940695836E+02 -0.49885322704E+03  0.49923848557E+03  0.00000000000E+00 0. -1.
        -15    1    1    2    0    0 -0.31425046916E+01  0.54599234662E+01  0.39482384085E+03  0.39487809401E+03  0.17770000000E+01 0. -1.
         15    1    1    2    0    0 -0.28006126983E+01  0.12995221509E+02  0.47817603489E+02  0.49662864859E+02  0.17770000000E+01 0.  1.
</event>
<event>
 6    1  0.1860328E-003  0.5249439E+03  0.7546771E-02  0.9345663E-01
        -11   -1    0    0    0    0  0.00000000000E+00  0.00000000000E+00  0.50000000000E+03  0.50000000000E+03  0.00000000000E+00 0. -1.
         11   -1    0    0    0    0 -0.00000000000E+00 -0.00000000000E+00 -0.50000000000E+03  0.50000000000E+03  0.00000000000E+00 0. -1.
        -11    1    1    2    0    0 -0.20003244584E+02 -0.11763342892E+02  0.47448895734E+03  0.47505607739E+03  0.00000000000E+00 0. -1.
         11    1    1    2    0    0 -0.53988495841E+01 -0.42075491326E+01 -0.33039619889E+03  0.33046709259E+03  0.00000000000E+00 0. -1.
        -15    1    1    2    0    0  0.32383169853E+01  0.39458111243E+01 -0.16288744228E+03  0.16297709258E+03  0.17770000000E+01 0.  1.
         15    1    1    2    0    0  0.22163777183E+02  0.12025080900E+02  0.18794683829E+02  0.31499737442E+02  0.17770000000E+01 0. -1.
</event>
<event>
 6    1  0.1860328E-003  0.5049946E+03  0.7546771E-02  0.9388703E-01
        -11   -1    0    0    0    0  0.00000000000E+00  0.00000000000E+00  0.50000000000E+03  0.50000000000E+03  0.00000000000E+00 0.  1.
         11   -1    0    0    0    0 -0.00000000000E+00 -0.00000000000E+00 -0.50000000000E+03  0.50000000000E+03  0.00000000000E+00 0.  1.
        -11    1    1    2    0    0  0.29324626494E+01  0.47415302142E+01  0.22942951289E+02  0.23610600581E+02  0.00000000000E+00 0.  1.
         11    1    1    2    0    0  0.35769357310E+01 -0.10370599417E+02 -0.49488377785E+03  0.49500535086E+03  0.00000000000E+00 0.  1.
        -15    1    1    2    0    0 -0.12490287240E+02  0.99155476181E+01  0.90324966678E+01  0.18413828634E+02  0.17770000000E+01 0. -1.
         15    1    1    2    0    0  0.59808888595E+01 -0.42864784150E+01  0.46290832989E+03  0.46297021993E+03  0.17770000000E+01 0.  1.
</event>
<event>
 6    1  0.1860328E-003  0.3986660E+03  0.7546771E-02  0.9660351E-01
        -11   -1    0    0    0    0  0.00000000000E+00  0.00000000000E+00  0.50000000000E+03  0.50000000000E+03  0.00000000000E+00 0. -1.
         11   -1    0    0    0    0 -0.00000000000E+00 -0.00000000000E+00 -0.50000000000E+03  0.50000000000E+03  0.00000000000E+00 0.  1.
        -11    1    1    2    0    0 -0.58545266119E+02  0.10035183688E+03  0.37396674296E+03  0.39159821781E+03  0.00000000000E+00 0. -1.
         11    1    1    2    0    0 -0.50769706354E+01 -0.75436055389E+01 -0.41455696763E+03  0.41465667850E+03  0.00000000000E+00 0.  1.
        -15    1    1    2    0    0  0.12419833556E+02 -0.81961089596E+02 -0.44294761302E+02  0.94005617284E+02  0.17770000000E+01 0.  1.
         15    1    1    2    0    0  0.51202403199E+02 -0.10847141750E+02  0.84884985962E+02  0.99739486405E+02  0.17770000000E+01 0. -1.
</event>
<event>
 6    1  0.1860328E-003  0.5115519E+03  0.7546771E-02  0.9374326E-01
        -11   -1    0    0    0    0  0.00000000000E+00  0.00000000000E+00  0.50000000000E+03  0.50000000000E+03  0.00000000000E+00 0.  1.
         11   -1    0    0    0    0 -0.00000000000E+00 -0.00000000000E+00 -0.50000000000E+03  0.50000000000E+03  0.00000000000E+00 0.  1.
        -11    1    1    2    0    0 -0.37994418470E+02  0.23116048919E+02  0.48641915128E+03  0.48844807122E+03  0.00000000000E+00 0.  1.
         11    1    1    2    0    0  0.63592194265E+01  0.49087233852E+01 -0.38497367155E+03  0.38505748015E+03  0.00000000000E+00 0.  1.
        -15    1    1    2    0    0  0.30497462290E+02 -0.19108667541E+02 -0.14138106168E+02  0.38707624008E+02  0.17770000000E+01 0.  1.
         15    1    1    2    0    0  0.11377367533E+01 -0.89161047630E+01 -0.87307373563E+02  0.87786824618E+02  0.17770000000E+01 0. -1.
</event>
<event>
 6    1  0.1860328E-003  0.5010288E+03  0.7546771E-02  0.9397511E-01
        -11   -1    0    0    0    0  0.00000000000E+00  0.00000000000E+00  0.50000000000E+03  0.50000000000E+03  0.00000000000E+00 0. -1.
         11   -1    0    0    0    0 -0.00000000000E+00 -0.00000000000E+00 -0.50000000000E+03  0.50000000000E+03  0.00000000000E+00 0. -1.
        -11    1    1    2    0    0 -0.11101025664E+02  0.45763485434E+01  0.49882670711E+03  0.49897120104E+03  0.00000000000E+00 0. -1.
         11    1    1    2    0    0 -0.14838707546E+01 -0.60756622247E+01 -0.37086291775E+03  0.37091564985E+03  0.00000000000E+00 0. -1.
        -15    1    1    2    0    0  0.86024818010E+01  0.30923066536E+00 -0.17753243820E+02  0.19809939724E+02  0.17770000000E+01 0.  1.
         15    1    1    2    0    0  0.39824146178E+01  0.11900830159E+01 -0.11021054554E+03  0.11030320939E+03  0.17770000000E+01 0. -1.
</event>
<event>
 6    1  0.1860328E-003  0.4883185E+03  0.7546771E-02  0.9426334E-01
        -11   -1    0    0    0    0  0.00000000000E+00  0.00000000000E+00  0.50000000000E+03  0.50000000000E+03  0.00000000000E+00 0.  1.
         11   -1    0    0    0    0 -0.00000000000E+00 -0.00000000000E+00 -0.50000000000E+03  0.50000000000E+03  0.00000000000E+00 0. -1.
        -11    1    1    2    0    0 -0.35395728993E+01 -0.95597190512E+01  0.48651238705E+03  0.48661917303E+03  0.00000000000E+00 0.  1.
         11    1    1    2    0    0  0.51990875454E+01 -0.53450202831E+01 -0.49008267403E+03  0.49013939562E+03  0.00000000000E+00 0. -1.
        -15    1    1    2    0    0  0.49616634149E+00  0.14126594286E+01  0.83425306672E+01  0.86601001514E+01  0.17770000000E+01 0.  1.
         15    1    1    2    0    0 -0.21556809876E+01  0.13492079906E+02 -0.47722436902E+01  0.14581331199E+02  0.17770000000E+01 0. -1.
</event>
<event>
 6    1  0.1860328E-003  0.5040661E+03  0.7546771E-02  0.9390757E-01
        -11   -1    0    0    0    0  0.00000000000E+00  0.00000000000E+00  0.50000000000E+03  0.50000000000E+03  0.00000000000E+00 0.  1.
         11   -1    0    0    0    0 -0.00000000000E+00 -0.00000000000E+00 -0.50000000000E+03  0.50000000000E+03  0.00000000000E+00 0.  1.
        -11    1    1    2    0    0  0.11196114828E+01  0.56454222266E+01  0.26073500334E+03  0.26079851665E+03  0.00000000000E+00 0.  1.
         11    1    1    2    0    0  0.53088455977E+01 -0.79147656629E+01 -0.49584227473E+03  0.49593385524E+03  0.00000000000E+00 0.  1.
        -15    1    1    2    0    0  0.17465616555E+02 -0.64848628357E+01  0.19391737178E+03  0.19481839239E+03  0.17770000000E+01 0.  1.
         15    1    1    2    0    0 -0.23894073636E+02  0.87542062720E+01  0.41189899620E+02  0.48449235722E+02  0.17770000000E+01 0. -1.
</event>
<event>
 6    1  0.1860328E-003  0.4708446E+03  0.7546771E-02  0.9467519E-01
        -11   -1    0    0    0    0  0.00000000000E+00  0.00000000000E+00  0.50000000000E+03  0.50000000000E+03  0.00000000000E+00 0. -1.
         11   -1    0    0    0    0 -0.00000000000E+00 -0.00000000000E+00 -0.50000000000E+03  0.50000000000E+03  0.00000000000E+00 0.  1.
        -11    1    1    2    0    0  0.74539403307E+00 -0.12309993636E+02  0.47680622416E+03  0.47696568739E+03  0.00000000000E+00 0. -1.
         11    1    1    2    0    0  0.24233214867E+02 -0.15209046959E+02 -0.46465497304E+03  0.46553496945E+03  0.00000000000E+00 0.  1.
        -15    1    1    2    0    0 -0.31228728350E+02  0.29880978961E+02  0.29796614945E+00  0.43259136502E+02  0.17770000000E+01 0. -1.
         15    1    1    2    0    0  0.62501194508E+01 -0.23619383662E+01 -0.12449217265E+02  0.14240206653E+02  0.17770000000E+01 0.  1.
</event>
<event>
 6    1  0.1860328E-003  0.5002990E+03  0.7546771E-02  0.9399141E-01
        -11   -1    0    0    0    0  0.00000000000E+00  0.00000000000E+00  0.50000000000E+03  0.50000000000E+03  0.00000000000E+00 0.  1.
         11   -1    0    0    0    0 -0.00000000000E+00 -0.00000000000E+00 -0.50000000000E+03  0.50000000000E+03  0.00000000000E+00 0. -1.
        -11    1    1    2    0    0 -0.15098776945E+01  0.75237362982E+01  0.49964204819E+03  0.49970097324E+03  0.00000000000E+00 0.  1.
         11    1    1    2    0    0 -0.92118378680E+00 -0.44944851616E+01 -0.27736447170E+03  0.27740241372E+03  0.00000000000E+00 0. -1.
        -15    1    1    2    0    0  0.41368495466E+01  0.43934842295E+01 -0.43983847864E+02  0.44431439655E+02  0.17770000000E+01 0.  1.
         15    1    1    2    0    0 -0.17057880653E+01 -0.74227353661E+01 -0.17829372863E+03  0.17846517338E+03  0.17770000000E+01 0. -1.
</event>
<event>
 6    1  0.1860328E-003  0.5000932E+03  0.7546771E-02  0.9399601E-01
        -11   -1    0    0    0    0  0.00000000000E+00  0.00000000000E+00  0.50000000000E+03  0.50000000000E+03  0.00000000000E+00 0. -1.
         11   -1    0    0    0    0 -0.00000000000E+00 -0.00000000000E+00 -0.50000000000E+03  0.50000000000E+03  0.00000000000E+00 0.  1.
        -11    1    1    2    0    0 -0.23495416147E+01  0.18445257536E+01  0.98962079433E+02  0.99007150180E+02  0.00000000000E+00 0. -1.
         11    1    1    2    0    0  0.35077204055E+01  0.57617740008E+01 -0.49986131094E+03  0.49990682363E+03  0.00000000000E+00 0.  1.
        -15    1    1    2    0    0 -0.27630096759E+01 -0.48409938227E+01  0.35258078947E+03  0.35262932419E+03  0.17770000000E+01 0. -1.
         15    1    1    2    0    0  0.16048308851E+01 -0.27653059317E+01  0.48318442033E+02  0.48456701999E+02  0.17770000000E+01 0.  1.
</event>
<event>
 6    1  0.1860328E-003  0.5033462E+03  0.7546771E-02  0.9392353E-01
        -11   -1    0    0    0    0  0.00000000000E+00  0.00000000000E+00  0.50000000000E+03  0.50000000000E+03  0.00000000000E+00 0.  1.
         11   -1    0    0    0    0 -0.00000000000E+00 -0.00000000000E+00 -0.50000000000E+03  0.50000000000E+03  0.00000000000E+00 0.  1.
        -11    1    1    2    0    0 -0.10148300126E+02  0.28774408796E+02  0.17318014944E+03  0.17584743034E+03  0.00000000000E+00 0.  1.
         11    1    1    2    0    0 -0.21839605270E+02  0.11136784724E+02 -0.49604840744E+03  0.49665382195E+03  0.00000000000E+00 0.  1.
        -15    1    1    2    0    0  0.27491944187E+01  0.13914553466E+01  0.37919133476E+02  0.38085596103E+02  0.17770000000E+01 0. -1.
         15    1    1    2    0    0  0.29238710978E+02 -0.41302648866E+02  0.28494912453E+03  0.28941315161E+03  0.17770000000E+01 0.  1.
</event>
<event>
 6    1  0.1860328E-003  0.5037651E+03  0.7546771E-02  0.9391424E-01
        -11   -1    0    0    0    0  0.00000000000E+00  0.00000000000E+00  0.50000000000E+03  0.50000000000E+03  0.00000000000E+00 0. -1.
         11   -1    0    0    0    0 -0.00000000000E+00 -0.00000000000E+00 -0.50000000000E+03  0.50000000000E+03  0.00000000000E+00 0. -1.
        -11    1    1    2    0    0 -0.57515644603E+01  0.57739959700E+01  0.47817120100E+03  0.47824064757E+03  0.00000000000E+00 0. -1.
         11    1    1    2    0    0  0.91865321164E+01 -0.60320275338E+01 -0.49611320066E+03  0.49623490969E+03  0.00000000000E+00 0. -1.
        -15    1    1    2    0    0 -0.70173487115E+01  0.59143977517E+01  0.44389311510E+01  0.10348194165E+02  0.17770000000E+01 0. -1.
         15    1    1    2    0    0  0.35823810554E+01 -0.56563661879E+01  0.13503068509E+02  0.15176248569E+02  0.17770000000E+01 0.  1.
</event>
<event>
 6    1  0.1860328E-003  0.5676195E+03  0.7546771E-02  0.9260047E-01
        -11   -1    0    0    0    0  0.00000000000E+00  0.00000000000E+00  0.50000000000E+03  0.50000000000E+03  0.00000000000E+00 0.  1.
         11   -1    0    0    0    0 -0.00000000000E+00 -0.00000000000E+00 -0.50000000000E+03  0.50000000000E+03  0.00000000000E+00 0.  1.
        -11    1    1    2    0    0 -0.30236652454E+02 -0.56136137847E+02  0.25445662572E+03  0.26232364647E+03  0.00000000000E+00 0.  1.
         11    1    1    2    0    0 -0.69949380952E+00 -0.13977799344E+02 -0.43215390713E+03  0.43238046627E+03  0.00000000000E+00 0.  1.
        -15    1    1    2    0    0  0.97075065116E+02 -0.37383424264E+02  0.24666974066E+02  0.10692383278E+03  0.17770000000E+01 0. -1.
         15    1    1    2    0    0 -0.66138918853E+02  0.10749736145E+03  0.15303030734E+03  0.19837205448E+03  0.17770000000E+01 0.  1.
</event>
<event>
 6    1  0.1860328E-003  0.5092814E+03  0.7546771E-02  0.9379278E-01
        -11   -1    0    0    0    0  0.00000000000E+00  0.00000000000E+00  0.50000000000E+03  0.50000000000E+03  0.00000000000E+00 0.  1.
         11   -1    0    0    0    0 -0.00000000000E+00 -0.00000000000E+00 -0.50000000000E+03  0.50000000000E+03  0.00000000000E+00 0. -1.
        -11    1    1    2    0    0 -0.35878947478E+01 -0.10912348597E+02  0.67383386481E+02  0.68355490739E+02  0.00000000000E+00 0.  1.
         11    1    1    2    0    0 -0.34654993134E+02 -0.87629589407E+01 -0.48941490117E+03  0.49071855832E+03  0.00000000000E+00 0. -1.
        -15    1    1    2    0    0  0.13847606905E+02 -0.40984025307E+00  0.40450781298E+03  0.40474887606E+03  0.17770000000E+01 0.  1.
         15    1    1    2    0    0  0.24395280977E+02  0.20085147790E+02  0.17523701710E+02  0.36177074873E+02  0.17770000000E+01 0. -1.
</event>
<event>
 6    1  0.1860328E-003  0.5022352E+03  0.7546771E-02  0.9394822E-01
        -11   -1    0    0    0    0  0.00000000000E+00  0.00000000000E+00  0.50000000000E+03  0.50000000000E+03  0.00000000000E+00 0. -1.
         11   -1    0    0    0    0 -0.00000000000E+00 -0.00000000000E+00 -0.50000000000E+03  0.50000000000E+03  0.00000000000E+00 0. -1.
        -11    1    1    2    0    0 -0.64851030111E+01 -0.34649527700E+01  0.49771046569E+03  0.49776477389E+03  0.00000000000E+00 0. -1.
         11    1    1    2    0    0 -0.52559701416E+01 -0.34078210767E+01 -0.45201959962E+03  0.45206300104E+03  0.00000000000E+00 0. -1.
        -15    1    1    2    0    0  0.58888172370E+01  0.65163884400E+01 -0.80807377680E+01  0.12066380511E+02  0.17770000000E+01 0.  1.
         15    1    1    2    0    0  0.58522559157E+01  0.35638540676E+00 -0.37610128302E+02  0.38105844562E+02  0.17770000000E+01 0. -1.
</event>
<event>
 6    1  0.1860328E-003  0.5201945E+03  0.7546771E-02  0.9355723E-01
        -11   -1    0    0    0    0  0.00000000000E+00  0.00000000000E+00  0.50000000000E+03  0.50000000000E+03  0.00000000000E+00 0. -1.
         11   -1    0    0    0    0 -0.00000000000E+00 -0.00000000000E+00 -0.50000000000E+03  0.50000000000E+03  0.00000000000E+00 0.  1.
        -11    1    1    2    0    0  0.64738033348E+01 -0.96483030226E+00  0.41498095819E+03  0.41503257304E+03  0.00000000000E+00 0. -1.
         11    1    1    2    0    0 -0.95672574672E+01  0.21234729470E+02 -0.47923988420E+03  0.47980549472E+03  0.00000000000E+00 0.  1.
        -15    1    1    2    0    0  0.28642848992E+01  0.19433879458E+02  0.62324055207E+02  0.65370676800E+02  0.17770000000E+01 0.  1.
         15    1    1    2    0    0  0.22916923317E+00 -0.39703778625E+02  0.19348708105E+01  0.39791255443E+02  0.17770000000E+01 0. -1.
</event>
<event>
 6    1  0.1860328E-003  0.5150382E+03  0.7546771E-02  0.9366775E-01
        -11   -1    0    0    0    0  0.00000000000E+00  0.00000000000E+00  0.50000000000E+03  0.50000000000E+03  0.00000000000E+00 0.  1.
         11   -1    0    0    0    0 -0.00000000000E+00 -0.00000000000E+00 -0.50000000000E+03  0.50000000000E+03  0.00000000000E+00 0. -1.
        -11    1    1    2    0    0  0.37788518181E+01 -0.58033443752E+01  0.37339352480E+03  0.37345773909E+03  0.00000000000E+00 0.  1.
         11    1    1    2    0    0  0.13498334566E+02 -0.96720251246E+01 -0.48467743910E+03  0.48496182641E+03  0.00000000000E+00 0. -1.
        -15    1    1    2    0    0 -0.34058264782E+01  0.83789277514E+01  0.12215272127E+03  0.12250000460E+03  0.17770000000E+01 0.  1.
         15    1    1    2    0    0 -0.13871359906E+02  0.70964417483E+01 -0.10868806973E+02  0.19080429899E+02  0.17770000000E+01 0. -1.
</event>
<event>
 6    1  0.1860328E-003  0.5009954E+03  0.7546771E-02  0.9397585E-01
        -11   -1    0    0    0    0  0.00000000000E+00  0.00000000000E+00  0.50000000000E+03  0.50000000000E+03  0.00000000000E+00 0. -1.
         11   -1    0    0    0    0 -0.00000000000E+00 -0.00000000000E+00 -0.50000000000E+03  0.50000000000E+03  0.00000000000E+00 0. -1.
        -11    1    1    2    0    0  0.15920534404E+01  0.44860791247E+01  0.31022541332E+03  0.31026193226E+03  0.00000000000E+00 0. -1.
         11    1    1    2    0    0  0.75051786447E+01  0.94987911883E-02 -0.49894820517E+03  0.49900464852E+03  0.00000000000E+00 0. -1.
        -15    1    1    2    0    0 -0.28106146676E+01  0.27774390533E+01  0.16524115379E+03  0.16529794420E+03  0.17770000000E+01 0.  1.
         15    1    1    2    0    0 -0.62866174175E+01 -0.72730169693E+01  0.23481638063E+02  0.25435475021E+02  0.17770000000E+01 0. -1.
</event>
<event>
 6    1  0.1860328E-003  0.5058614E+03  0.7546771E-02  0.9386789E-01
        -11   -1    0    0    0    0  0.00000000000E+00  0.00000000000E+00  0.50000000000E+03  0.50000000000E+03  0.00000000000E+00 0.  1.
         11   -1    0    0    0    0 -0.00000000000E+00 -0.00000000000E+00 -0.50000000000E+03  0.50000000000E+03  0.00000000000E+00 0.  1.
        -11    1    1    2    0    0  0.15061675837E+01 -0.13142221135E+02  0.34851872769E+03  0.34876968054E+03  0.00000000000E+00 0.  1.
         11    1    1    2    0    0 -0.14689025372E+02  0.26991472830E+01 -0.49391285011E+03  0.49413860036E+03  0.00000000000E+00 0.  1.
        -15    1    1    2    0    0  0.11534431668E+02  0.39689465352E+01  0.82189396856E+00  0.12354306504E+02  0.17770000000E+01 0. -1.
         15    1    1    2    0    0  0.16484261212E+01  0.64741273163E+01  0.14457222846E+03  0.14473741259E+03  0.17770000000E+01 0.  1.
</event>
<event>
 6    1  0.1860328E-003  0.5010022E+03  0.7546771E-02  0.9397570E-01
        -11   -1    0    0    0    0  0.00000000000E+00  0.00000000000E+00  0.50000000000E+03  0.50000000000E+03  0.00000000000E+00 0.  1.
         11   -1    0    0    0    0 -0.00000000000E+00 -0.00000000000E+00 -0.50000000000E+03  0.50000000000E+03  0.00000000000E+00 0.  1.
        -11    1    1    2    0    0  0.26177324164E+01 -0.39101173811E+01  0.23065109681E+03  0.23069908972E+03  0.00000000000E+00 0.  1.
         11    1    1    2    0    0  0.56093326658E+01 -0.76867496842E+01 -0.49890704744E+03  0.49899778829E+03  0.00000000000E+00 0.  1.
        -15    1    1    2    0    0 -0.19180429531E+02  0.92273129622E+01  0.15170875756E+03  0.15320488579E+03  0.17770000000E+01 0.  1.
         15    1    1    2    0    0  0.10953364449E+02  0.23695541030E+01  0.11654719307E+03  0.11709823619E+03  0.17770000000E+01 0. -1.
</event>
<event>
 6    1  0.1860328E-003  0.5084217E+03  0.7546771E-02  0.9381160E-01
        -11   -1    0    0    0    0  0.00000000000E+00  0.00000000000E+00  0.50000000000E+03  0.50000000000E+03  0.00000000000E+00 0. -1.
         11   -1    0    0    0    0 -0.00000000000E+00 -0.00000000000E+00 -0.50000000000E+03  0.50000000000E+03  0.00000000000E+00 0. -1.
        -11    1    1    2    0    0  0.59396302057E+01 -0.23547623596E+02  0.49097802456E+03  0.49157826476E+03  0.00000000000E+00 0. -1.
         11    1    1    2    0    0 -0.12250583059E+02 -0.15222832783E+01 -0.40906827703E+03  0.40925450444E+03  0.00000000000E+00 0. -1.
        -15    1    1    2    0    0  0.14913011866E+02  0.31759449784E+02 -0.30310133573E+02  0.46399595900E+02  0.17770000000E+01 0.  1.
         15    1    1    2    0    0 -0.86020590132E+01 -0.66895429099E+01 -0.51599613955E+02  0.52767634899E+02  0.17770000000E+01 0. -1.
</event>
<event>
 6    1  0.1860328E-003  0.5058972E+03  0.7546771E-02  0.9386710E-01
        -11   -1    0    0    0    0  0.00000000000E+00  0.00000000000E+00  0.50000000000E+03  0.50000000000E+03  0.00000000000E+00 0.  1.
         11   -1    0    0    0    0 -0.00000000000E+00 -0.00000000000E+00 -0.50000000000E+03  0.50000000000E+03  0.00000000000E+00 0.  1.
        -11    1    1    2    0    0 -0.41249939494E+01  0.57356317318E+01  0.47573937089E+03  0.47579182639E+03  0.00000000000E+00 0.  1.
         11    1    1    2    0    0 -0.34414566996E+01 -0.97579501765E+01 -0.49399445271E+03  0.49410280360E+03  0.00000000000E+00 0.  1.
        -15    1    1    2    0    0  0.31384295062E+01 -0.87233715364E+01  0.35922116337E+01  0.10099933869E+02  0.17770000000E+01 0.  1.
         15    1    1    2    0    0  0.44280211428E+01  0.12745689981E+02  0.14662870186E+02  0.20005436147E+02  0.17770000000E+01 0. -1.
</event>
<event>
 6    1  0.1860328E-003  0.5022630E+03  0.7546771E-02  0.9394760E-01
        -11   -1    0    0    0    0  0.00000000000E+00  0.00000000000E+00  0.50000000000E+03  0.50000000000E+03  0.00000000000E+00 0. -1.
         11   -1    0    0    0    0 -0.00000000000E+00 -0.00000000000E+00 -0.50000000000E+03  0.50000000000E+03  0.00000000000E+00 0. -1.
        -11    1    1    2    0    0  0.25284934993E+02  0.37546584316E+01  0.49708015388E+03  0.49773698354E+03  0.00000000000E+00 0. -1.
         11    1    1    2    0    0  0.39045269059E+01 -0.94905053064E+01 -0.36205005627E+03  0.36219546970E+03  0.00000000000E+00 0. -1.
        -15    1    1    2    0    0 -0.22699423023E+02  0.95004515439E+01 -0.12502578455E+03  0.12743675654E+03  0.17770000000E+01 0.  1.
         15    1    1    2    0    0 -0.64900388764E+01 -0.37646046691E+01 -0.10004313061E+02  0.12630790227E+02  0.17770000000E+01 0. -1.
</event>
<event>
 6    1  0.1860328E-003  0.5255081E+03  0.7546771E-02  0.9344475E-01
        -11   -1    0    0    0    0  0.00000000000E+00  0.00000000000E+00  0.50000000000E+03  0.50000000000E+03  0.00000000000E+00 0. -1.
         11   -1    0    0    0    0 -0.00000000000E+00 -0.00000000000E+00 -0.50000000000E+03  0.50000000000E+03  0.00000000000E+00 0. -1.
        -11    1    1    2    0    0  0.24993216793E+02 -0.88646485801E+01  0.47375025367E+03  0.47449188163E+03  0.00000000000E+00 0. -1.
         11    1    1    2    0    0 -0.17083811785E+02  0.25425147581E+02 -0.45017418826E+03  0.45121513110E+03  0.00000000000E+00 0. -1.
        -15    1    1    2    0    0  0.38787035199E+01 -0.87090557530E+01 -0.46383688157E+02  0.47386667420E+02  0.17770000000E+01 0.  1.
         15    1    1    2    0    0 -0.11788108528E+02 -0.78514432482E+01  0.22807622743E+02  0.26906319851E+02  0.17770000000E+01 0. -1.
</event>
<event>
 6    1  0.1860328E-003  0.5102381E+03  0.7546771E-02  0.9377188E-01
        -11   -1    0    0    0    0  0.00000000000E+00  0.00000000000E+00  0.50000000000E+03  0.50000000000E+03  0.00000000000E+00 0.  1.
         11   -1    0    0    0    0 -0.00000000000E+00 -0.00000000000E+00 -0.50000000000E+03  0.50000000000E+03  0.00000000000E+00 0.  1.
        -11    1    1    2    0    0 -0.21123561295E+02 -0.41390274330E+01  0.45251423448E+03  0.45302590301E+03  0.00000000000E+00 0.  1.
         11    1    1    2    0    0  0.10029111945E+01 -0.81228097132E+01 -0.48969350001E+03  0.48976189094E+03  0.00000000000E+00 0.  1.
        -15    1    1    2    0    0 -0.48259037967E+01  0.39539034222E+01 -0.45037201382E+01  0.78970832470E+01  0.17770000000E+01 0.  1.
         15    1    1    2    0    0  0.24946553897E+02  0.83079337240E+01  0.41682985665E+02  0.49315122803E+02  0.17770000000E+01 0. -1.
</event>
<event>
 6    1  0.1860328E-003  0.4471316E+03  0.7546771E-02  0.9526557E-01
        -11   -1    0    0    0    0  0.00000000000E+00  0.00000000000E+00  0.50000000000E+03  0.50000000000E+03  0.00000000000E+00 0. -1.
         11   -1    0    0    0    0 -0.00000000000E+00 -0.00000000000E+00 -0.50000000000E+03  0.50000000000E+03  0.00000000000E+00 0. -1.
        -11    1    1    2    0    0  0.22162340653E+02  0.29376151837E+01  0.43766821498E+03  0.43823882225E+03  0.00000000000E+00 0. -1.
         11    1    1    2    0    0  0.16334642645E+02  0.39173905485E+01 -0.45677395041E+03  0.45708271491E+03  0.00000000000E+00 0. -1.
        -15    1    1    2    0    0  0.11563072330E+02 -0.24926282050E+02  0.39078122349E+02  0.47804618541E+02  0.17770000000E+01 0.  1.
         15    1    1    2    0    0 -0.50060055629E+02  0.18071276318E+02 -0.19972386917E+02  0.56873844300E+02  0.17770000000E+01 0. -1.
</event>
<event>
 6    1  0.1860328E-003  0.5055297E+03  0.7546771E-02  0.9387521E-01
        -11   -1    0    0    0    0  0.00000000000E+00  0.00000000000E+00  0.50000000000E+03  0.50000000000E+03  0.00000000000E+00 0. -1.
         11   -1    0    0    0    0 -0.00000000000E+00 -0.00000000000E+00 -0.50000000000E+03  0.50000000000E+03  0.00000000000E+00 0.  1.
        -11    1    1    2    0    0 -0.20710011793E+01  0.24175920995E+02  0.49387455966E+03  0.49447026693E+03  0.00000000000E+00 0. -1.
         11    1    1    2    0    0  0.55626256874E+00 -0.67828075043E+01 -0.18919845728E+03  0.18932081804E+03  0.00000000000E+00 0.  1.
        -15    1    1    2    0    0  0.71033720426E+01 -0.21308986284E+02 -0.16453175109E+02  0.27899739981E+02  0.17770000000E+01 0. -1.
         15    1    1    2    0    0 -0.55886334320E+01  0.39158727935E+01 -0.28822292727E+03  0.28830917505E+03  0.17770000000E+01 0.  1.
</event>
<event>
 6    1  0.1860328E-003  0.5124094E+03  0.7546771E-02  0.9372463E-01
        -11   -1    0    0    0    0  0.00000000000E+00  0.00000000000E+00  0.50000000000E+03  0.50000000000E+03  0.00000000000E+00 0.  1.
         11   -1    0    0    0    0 -0.00000000000E+00 -0.00000000000E+00 -0.50000000000E+03  0.50000000000E+03  0.00000000000E+00 0.  1.
        -11    1    1    2    0    0  0.17325871469E+02  0.59645653547E+01  0.48724612981E+03  0.48759055864E+03  0.00000000000E+00 0.  1.
         11    1    1    2    0    0  0.54064554156E-01  0.74000305974E+01 -0.45496272705E+03  0.45502290753E+03  0.00000000000E+00 0.  1.
        -15    1    1    2    0    0 -0.26567068169E+01 -0.16833538913E+02  0.43802327886E+01  0.17685312882E+02  0.17770000000E+01 0. -1.
         15    1    1    2    0    0 -0.14723229206E+02  0.34689429609E+01 -0.36663635554E+02  0.39701220945E+02  0.17770000000E+01 0.  1.
</event>
<event>
 6    1  0.1934233E-003  0.4289588E+03  0.7546771E-02  0.9574506E-01
        -11   -1    0    0    0    0  0.00000000000E+00  0.00000000000E+00  0.50000000000E+03  0.50000000000E+03  0.00000000000E+00 0.  1.
         11   -1    0    0    0    0 -0.00000000000E+00 -0.00000000000E+00 -0.50000000000E+03  0.50000000000E+03  0.00000000000E+00 0.  1.
        -11    1    1    2    0    0  0.54033274414E+01  0.19041489161E+01  0.42247648442E+03  0.42251532708E+03  0.00000000000E+00 0.  1.
         11    1    1    2    0    0  0.20235169708E+02 -0.28034654475E+02 -0.43490066436E+03  0.43627284101E+03  0.00000000000E+00 0.  1.
        -15    1    1    2    0    0 -0.20795894964E+02  0.19207488574E+01  0.72906851068E+02  0.75859904991E+02  0.17770000000E+01 0. -1.
         15    1    1    2    0    0 -0.48426021861E+01  0.24209756701E+02 -0.60482671128E+02  0.65351926913E+02  0.17770000000E+01 0.  1.
</event>
<event>
 6    1  0.1860328E-003  0.5084102E+03  0.7546771E-02  0.9381185E-01
        -11   -1    0    0    0    0  0.00000000000E+00  0.00000000000E+00  0.50000000000E+03  0.50000000000E+03  0.00000000000E+00 0.  1.
         11   -1    0    0    0    0 -0.00000000000E+00 -0.00000000000E+00 -0.50000000000E+03  0.50000000000E+03  0.00000000000E+00 0. -1.
        -11    1    1    2    0    0 -0.32933846525E+01  0.68583181516E+01  0.49153087453E+03  0.49158975124E+03  0.00000000000E+00 0.  1.
         11    1    1    2    0    0  0.43744870887E+01 -0.49326992151E+01 -0.48191014875E+03  0.48195524598E+03  0.00000000000E+00 0. -1.
        -15    1    1    2    0    0 -0.37881632377E+01 -0.31979060485E+01 -0.17268150554E+02  0.18053352497E+02  0.17770000000E+01 0. -1.
         15    1    1    2    0    0  0.27070608014E+01  0.12722871120E+01  0.76474247790E+01  0.84016502800E+01  0.17770000000E+01 0.  1.
</event>
<event>
 6    1  0.1860328E-003  0.5146990E+03  0.7546771E-02  0.9367507E-01
        -11   -1    0    0    0    0  0.00000000000E+00  0.00000000000E+00  0.50000000000E+03  0.50000000000E+03  0.00000000000E+00 0.  1.
         11   -1    0    0    0    0 -0.00000000000E+00 -0.00000000000E+00 -0.50000000000E+03  0.50000000000E+03  0.00000000000E+00 0. -1.
        -11    1    1    2    0    0 -0.83263797221E+01  0.23386576017E+01  0.48522390734E+03  0.48530097689E+03  0.00000000000E+00 0.  1.
         11    1    1    2    0    0 -0.88471977629E+00  0.61363607178E+01 -0.45572212457E+03  0.45576429487E+03  0.00000000000E+00 0. -1.
        -15    1    1    2    0    0  0.27849291952E+02  0.43820913569E+01 -0.17757495474E+02  0.33365733341E+02  0.17770000000E+01 0.  1.
         15    1    1    2    0    0 -0.18638192453E+02 -0.12857109676E+02 -0.11744287296E+02  0.25568994901E+02  0.17770000000E+01 0. -1.
</event>
<event>
 6    1  0.1860328E-003  0.5171845E+03  0.7546771E-02  0.9362158E-01
        -11   -1    0    0    0    0  0.00000000000E+00  0.00000000000E+00  0.50000000000E+03  0.50000000000E+03  0.00000000000E+00 0. -1.
         11   -1    0    0    0    0 -0.00000000000E+00 -0.00000000000E+00 -0.50000000000E+03  0.50000000000E+03  0.00000000000E+00 0.  1.
        -11    1    1    2    0    0 -0.41449387955E+01  0.20237138869E+01  0.21690440028E+03  0.21695343923E+03  0.00000000000E+00 0. -1.
         11    1    1    2    0    0  0.51013600577E+01  0.62837602456E+01 -0.48274766925E+03  0.48281551517E+03  0.00000000000E+00 0.  1.
        -15    1    1    2    0    0  0.48384037885E+00 -0.53623113523E+01  0.28280621337E+03  0.28286304201E+03  0.17770000000E+01 0.  1.
         15    1    1    2    0    0 -0.14402616411E+01 -0.29451627801E+01 -0.16962944392E+02  0.17368003594E+02  0.17770000000E+01 0. -1.
</event>
<event>
 6    1  0.1860328E-003  0.5067747E+03  0.7546771E-02  0.9384777E-01
        -11   -1    0    0    0    0  0.00000000000E+00  0.00000000000E+00  0.50000000000E+03  0.50000000000E+03  0.00000000000E+00 0. -1.
         11   -1    0    0    0    0 -0.00000000000E+00 -0.00000000000E+00 -0.50000000000E+03  0.50000000000E+03  0.00000000000E+00 0.  1.
        -11    1    1    2    0    0  0.80843528560E+01  0.11040169500E+01  0.49315776598E+03  0.49322526066E+03  0.00000000000E+00 0. -1.
         11    1    1    2    0    0  0.64857084041E+01  0.45389501965E+01 -0.40637138177E+03  0.40644847940E+03  0.00000000000E+00 0.  1.
        -15    1    1    2    0    0 -0.13611558632E+02 -0.26186610489E+02 -0.47594349644E+02  0.56030285956E+02  0.17770000000E+01 0.  1.
         15    1    1    2    0    0 -0.95850262809E+00  0.20543643343E+02 -0.39192034559E+02  0.44295973981E+02  0.17770000000E+01 0. -1.
</event>
<event>
 6    1  0.1860328E-003  0.5004580E+03  0.7546771E-02  0.9398785E-01
        -11   -1    0    0    0    0  0.00000000000E+00  0.00000000000E+00  0.50000000000E+03  0.50000000000E+03  0.00000000000E+00 0.  1.
         11   -1    0    0    0    0 -0.00000000000E+00 -0.00000000000E+00 -0.50000000000E+03  0.50000000000E+03  0.00000000000E+00 0. -1.
        -11    1    1    2    0    0 -0.60171666215E+01  0.38260432544E+01  0.49949110792E+03  0.49954200203E+03  0.00000000000E+00 0.  1.
         11    1    1    2    0    0  0.26338987252E+01  0.51428587538E+01 -0.41324401580E+03  0.41328440935E+03  0.00000000000E+00 0. -1.
        -15    1    1    2    0    0  0.27896474635E+01 -0.24979923176E+00 -0.34950196394E+02  0.35107242695E+02  0.17770000000E+01 0. -1.
         15    1    1    2    0    0  0.59362043279E+00 -0.87191027765E+01 -0.51296895723E+02  0.52066345928E+02  0.17770000000E+01 0.  1.
</event>
<event>
 6    1  0.1860328E-003  0.5011175E+03  0.7546771E-02  0.9397313E-01
        -11   -1    0    0    0    0  0.00000000000E+00  0.00000000000E+00  0.50000000000E+03  0.50000000000E+03  0.00000000000E+00 0. -1.
         11   -1    0    0    0    0 -0.00000000000E+00 -0.00000000000E+00 -0.50000000000E+03  0.50000000000E+03  0.00000000000E+00 0.  1.
        -11    1    1    2    0    0 -0.66870198171E+01 -0.66756287855E+01  0.49879300641E+03  0.49888249468E+03  0.00000000000E+00 0. -1.
         11    1    1    2    0    0  0.46056067525E+01 -0.50124353417E+01 -0.41257006935E+03  0.41262622098E+03  0.00000000000E+00 0.  1.
        -15    1    1    2    0    0 -0.27921419618E+01  0.27473656543E-01 -0.36070152887E+01  0.48954162060E+01  0.17770000000E+01 0. -1.
         15    1    1    2    0    0  0.48735550264E+01  0.11660590471E+02 -0.82615921778E+02  0.83595868133E+02  0.17770000000E+01 0. -1.
</event>
<event>
 6    1  0.1860328E-003  0.5000525E+03  0.7546771E-02  0.9399692E-01
        -11   -1    0    0    0    0  0.00000000000E+00  0.00000000000E+00  0.50000000000E+03  0.50000000000E+03  0.00000000000E+00 0.  1.
         11   -1    0    0    0    0 -0.00000000000E+00 -0.00000000000E+00 -0.50000000000E+03  0.50000000000E+03  0.00000000000E+00 0. -1.
        -11    1    1    2    0    0 -0.47406916996E+00  0.36187419856E+00  0.32451582238E+02  0.32457062164E+02  0.00000000000E+00 0.  1.
         11    1    1    2    0    0 -0.89557067745E+01  0.10045632032E+02 -0.49976632059E+03  0.49994749185E+03  0.00000000000E+00 0. -1.
        -15    1    1    2    0    0  0.83544394379E+01 -0.70135405278E+01  0.24986061842E+03  0.25010492353E+03  0.17770000000E+01 0.  1.
         15    1    1    2    0    0  0.10753365066E+01 -0.33939657023E+01  0.21745411994E+03  0.21749052246E+03  0.17770000000E+01 0. -1.
</event>
<event>
 6    1  0.1860328E-003  0.5026306E+03  0.7546771E-02  0.9393943E-01
        -11   -1    0    0    0    0  0.00000000000E+00  0.00000000000E+00  0.50000000000E+03  0.50000000000E+03  0.00000000000E+00 0.  1.
         11   -1    0    0    0    0 -0.00000000000E+00 -0.00000000000E+00 -0.50000000000E+03  0.50000000000E+03  0.00000000000E+00 0. -1.
        -11    1    1    2    0    0 -0.80082396663E+01 -0.43073550101E+01  0.49728632020E+03  0.49736944967E+03  0.00000000000E+00 0.  1.
         11    1    1    2    0    0 -0.98699088830E+01 -0.21804249950E+01 -0.44599445683E+03  0.44610898318E+03  0.00000000000E+00 0. -1.
        -15    1    1    2    0    0  0.42330713547E+01  0.53653609103E+01 -0.32174212377E+02  0.32940000940E+02  0.17770000000E+01 0. -1.
         15    1    1    2    0    0  0.13645077195E+02  0.11224190947E+01 -0.19117650996E+02  0.23581566209E+02  0.17770000000E+01 0.  1.
</event>
<event>
 6    1  0.1860328E-003  0.5207785E+03  0.7546771E-02  0.9354480E-01
        -11   -1    0    0    0    0  0.00000000000E+00  0.00000000000E+00  0.50000000000E+03  0.50000000000E+03  0.00000000000E+00 0.  1.
         11   -1    0    0    0    0 -0.00000000000E+00 -0.00000000000E+00 -0.50000000000E+03  0.50000000000E+03  0.00000000000E+00 0. -1.
        -11    1    1    2    0    0 -0.66028599506E+01  0.51326625123E+00  0.46067301549E+03  0.46072061860E+03  0.00000000000E+00 0.  1.
         11    1    1    2    0    0  0.64875703902E+01  0.80807513971E+01 -0.47910943996E+03  0.47922149636E+03  0.00000000000E+00 0. -1.
        -15    1    1    2    0    0 -0.69435888949E+01 -0.51387587151E+01 -0.19433093455E+02  0.21340644744E+02  0.17770000000E+01 0. -1.
         15    1    1    2    0    0  0.70588784553E+01 -0.34552589332E+01  0.37869517924E+02  0.38717240296E+02  0.17770000000E+01 0. -1.
</event>
<event>
 6    1  0.1860328E-003  0.5076370E+03  0.7546771E-02  0.9382882E-01
        -11   -1    0    0    0    0  0.00000000000E+00  0.00000000000E+00  0.50000000000E+03  0.50000000000E+03  0.00000000000E+00 0.  1.
         11   -1    0    0    0    0 -0.00000000000E+00 -0.00000000000E+00 -0.50000000000E+03  0.50000000000E+03  0.00000000000E+00 0.  1.
        -11    1    1    2    0    0  0.64674730312E+01 -0.24365879052E+00  0.46982887352E+03  0.46987344889E+03  0.00000000000E+00 0.  1.
         11    1    1    2    0    0  0.10172835565E+02  0.18094579176E+01 -0.49225453786E+03  0.49236296648E+03  0.00000000000E+00 0.  1.
        -15    1    1    2    0    0  0.54836228001E+00  0.94452919199E+01  0.49067202332E+01  0.10804992970E+02  0.17770000000E+01 0. -1.
         15    1    1    2    0    0 -0.17188670876E+02 -0.11011091047E+02  0.17518944105E+02  0.26958591656E+02  0.17770000000E+01 0.  1.
</event>
<event>
 6    1  0.1860328E-003  0.5093904E+03  0.7546771E-02  0.9379040E-01
        -11   -1    0    0    0    0  0.00000000000E+00  0.00000000000E+00  0.50000000000E+03  0.50000000000E+03  0.00000000000E+00 0. -1.
         11   -1    0    0    0    0 -0.00000000000E+00 -0.00000000000E+00 -0.50000000000E+03  0.50000000000E+03  0.00000000000E+00 0.  1.
        -11    1    1    2    0    0 -0.78108793054E+01  0.22737180732E+01  0.49054209962E+03  0.49060955059E+03  0.00000000000E+00 0. -1.
         11    1    1    2    0    0 -0.42066290936E+00  0.95707331763E+01 -0.42936526645E+03  0.42947212706E+03  0.00000000000E+00 0.  1.
        -15    1    1    2    0    0  0.77157877110E+01 -0.87958004441E+01  0.55675079215E+01  0.13078775130E+02  0.17770000000E+01 0. -1.
         15    1    1    2    0    0  0.51575450373E+00 -0.30486508054E+01 -0.66744341098E+02  0.66839547216E+02  0.17770000000E+01 0.  1.
</event>
<event>
 6    1  0.1860328E-003  0.5024244E+03  0.7546771E-02  0.9394401E-01
        -11   -1    0    0    0    0  0.00000000000E+00  0.00000000000E+00  0.50000000000E+03  0.50000000000E+03  0.00000000000E+00 0.  1.
         11   -1    0    0    0    0 -0.00000000000E+00 -0.00000000000E+00 -0.50000000000E+03  0.50000000000E+03  0.00000000000E+00 0. -1.
        -11    1    1    2    0    0 -0.56397691681E+01  0.50168438710E+00  0.13462592715E+03  0.13474494033E+03  0.00000000000E+00 0.  1.
         11    1    1    2    0    0 -0.10790665489E+02 -0.14639783169E+02 -0.49724311619E+03  0.49757560060E+03  0.00000000000E+00 0. -1.
        -15    1    1    2    0    0  0.25482040594E+02 -0.12865499517E+02  0.11862137889E+03  0.12202067337E+03  0.17770000000E+01 0. -1.
         15    1    1    2    0    0 -0.90516059369E+01  0.27003598298E+02  0.24399581015E+03  0.24565878570E+03  0.17770000000E+01 0.  1.
</event>
<event>
 6    1  0.1860328E-003  0.5107136E+03  0.7546771E-02  0.9376151E-01
        -11   -1    0    0    0    0  0.00000000000E+00  0.00000000000E+00  0.50000000000E+03  0.50000000000E+03  0.00000000000E+00 0.  1.
         11   -1    0    0    0    0 -0.00000000000E+00 -0.00000000000E+00 -0.50000000000E+03  0.50000000000E+03  0.00000000000E+00 0.  1.
        -11    1    1    2    0    0  0.83597853791E+01  0.29605105660E+01  0.48920606899E+03  0.48928644839E+03  0.00000000000E+00 0.  1.
         11    1    1    2    0    0 -0.52722433531E+00  0.53088844507E+01 -0.37009238709E+03  0.37013083795E+03  0.00000000000E+00 0.  1.
        -15    1    1    2    0    0 -0.81485537888E+01 -0.59905185211E+01  0.82584319318E+01  0.13177430249E+02  0.17770000000E+01 0. -1.
         15    1    1    2    0    0  0.31599274500E+00 -0.22788764955E+01 -0.12737211384E+03  0.12740528341E+03  0.17770000000E+01 0.  1.
</event>
<event>
 6    1  0.1860328E-003  0.5002470E+03  0.7546771E-02  0.9399257E-01
        -11   -1    0    0    0    0  0.00000000000E+00  0.00000000000E+00  0.50000000000E+03  0.50000000000E+03  0.00000000000E+00 0. -1.
         11   -1    0    0    0    0 -0.00000000000E+00 -0.00000000000E+00 -0.50000000000E+03  0.50000000000E+03  0.00000000000E+00 0.  1.
        -11    1    1    2    0    0 -0.48819903070E+00  0.11070225024E+02  0.49963014681E+03  0.49975301081E+03  0.00000000000E+00 0. -1.
         11    1    1    2    0    0  0.61102242378E+00 -0.69426950892E+00 -0.34525697397E+02  0.34538082450E+02  0.00000000000E+00 0.  1.
        -15    1    1    2    0    0 -0.26127255385E+01 -0.11757627465E+02 -0.45254295603E+03  0.45270669635E+03  0.17770000000E+01 0.  1.
         15    1    1    2    0    0  0.24899021454E+01  0.13816719500E+01 -0.12561493381E+02  0.13002210390E+02  0.17770000000E+01 0. -1.
</event>
<event>
 6    1  0.1860328E-003  0.5003189E+03  0.7546771E-02  0.9399096E-01
        -11   -1    0    0    0    0  0.00000000000E+00  0.00000000000E+00  0.50000000000E+03  0.50000000000E+03  0.00000000000E+00 0. -1.
         11   -1    0    0    0    0 -0.00000000000E+00 -0.00000000000E+00 -0.50000000000E+03  0.50000000000E+03  0.00000000000E+00 0. -1.
        -11    1    1    2    0    0  0.54200080617E+01  0.25440424824E+01  0.28076892559E+03  0.28083275844E+03  0.00000000000E+00 0. -1.
         11    1    1    2    0    0  0.66811441429E+01  0.65717762336E+01 -0.49959319400E+03  0.49968108371E+03  0.00000000000E+00 0. -1.
        -15    1    1    2    0    0 -0.11831963789E+01 -0.42374694224E+01  0.77845001055E+02  0.77989473771E+02  0.17770000000E+01 0.  1.
         15    1    1    2    0    0 -0.10917955826E+02 -0.48783492937E+01  0.14097926736E+03  0.14149668408E+03  0.17770000000E+01 0. -1.
</event>
<event>
 6    1  0.1860328E-003  0.5102099E+03  0.7546771E-02  0.9377250E-01
        -11   -1    0    0    0    0  0.00000000000E+00  0.00000000000E+00  0.50000000000E+03  0.50000000000E+03  0.00000000000E+00 0. -1.
         11   -1    0    0    0    0 -0.00000000000E+00 -0.00000000000E+00 -0.50000000000E+03  0.50000000000E+03  0.00000000000E+00 0. -1.
        -11    1    1    2    0    0  0.13586574163E+02 -0.20728152456E+01  0.46464258447E+03  0.46484580547E+03  0.00000000000E+00 0. -1.
         11    1    1    2    0    0  0.46659039716E+01  0.96408403785E+01 -0.48967299869E+03  0.48979012047E+03  0.00000000000E+00 0. -1.
        -15    1    1    2    0    0 -0.14375992293E+02 -0.11262835350E+01  0.31883026506E+02  0.35037448212E+02  0.17770000000E+01 0. -1.
         15    1    1    2    0    0 -0.38764858417E+01 -0.64417415979E+01 -0.68526122841E+01  0.10326625848E+02  0.17770000000E+01 0.  1.
</event>
<event>
 6    1  0.1860328E-003  0.5048063E+03  0.7546771E-02  0.9389119E-01
        -11   -1    0    0    0    0  0.00000000000E+00  0.00000000000E+00  0.50000000000E+03  0.50000000000E+03  0.00000000000E+00 0.  1.
         11   -1    0    0    0    0 -0.00000000000E+00 -0.00000000000E+00 -0.50000000000E+03  0.50000000000E+03  0.00000000000E+00 0.  1.
        -11    1    1    2    0    0  0.60935917262E+01  0.84232200403E+01  0.49508450774E+03  0.49519365131E+03  0.00000000000E+00 0.  1.
         11    1    1    2    0    0  0.12521219924E+02  0.64965639401E+01 -0.44873539284E+03  0.44895705705E+03  0.00000000000E+00 0.  1.
        -15    1    1    2    0    0  0.16285341890E+01 -0.62428121984E+01 -0.33018317705E+01  0.74622148046E+01  0.17770000000E+01 0.  1.
         15    1    1    2    0    0 -0.20243345839E+02 -0.86769717820E+01 -0.43047283135E+02  0.48387076832E+02  0.17770000000E+01 0. -1.
</event>
<event>
 6    1  0.1860328E-003  0.5011479E+03  0.7546771E-02  0.9397245E-01
        -11   -1    0    0    0    0  0.00000000000E+00  0.00000000000E+00  0.50000000000E+03  0.50000000000E+03  0.00000000000E+00 0. -1.
         11   -1    0    0    0    0 -0.00000000000E+00 -0.00000000000E+00 -0.50000000000E+03  0.50000000000E+03  0.00000000000E+00 0. -1.
        -11    1    1    2    0    0  0.66469476035E+01 -0.16092836689E+01  0.49880517048E+03  0.49885205202E+03  0.00000000000E+00 0. -1.
         11    1    1    2    0    0  0.44861760746E+01 -0.44811349302E+01 -0.32288007496E+03  0.32294233101E+03  0.00000000000E+00 0. -1.
        -15    1    1    2    0    0 -0.12777687990E+02  0.20434774295E+01 -0.17057255252E+03  0.17107191036E+03  0.17770000000E+01 0. -1.
         15    1    1    2    0    0  0.16445643119E+01  0.40469411696E+01 -0.53525429915E+01  0.71337066159E+01  0.17770000000E+01 0.  1.
</event>
<event>
 6    1  0.1860328E-003  0.4919140E+03  0.7546771E-02  0.9418087E-01
        -11   -1    0    0    0    0  0.00000000000E+00  0.00000000000E+00  0.50000000000E+03  0.50000000000E+03  0.00000000000E+00 0. -1.
         11   -1    0    0    0    0 -0.00000000000E+00 -0.00000000000E+00 -0.50000000000E+03  0.50000000000E+03  0.00000000000E+00 0. -1.
        -11    1    1    2    0    0  0.53223705671E+01  0.42853312550E+01  0.48999721041E+03  0.49004485295E+03  0.00000000000E+00 0. -1.
         11    1    1    2    0    0  0.74426242809E+01 -0.14753336591E+01 -0.49381900947E+03  0.49387729587E+03  0.00000000000E+00 0. -1.
        -15    1    1    2    0    0 -0.11665245595E+02 -0.46286611628E+01  0.40281307424E+01  0.13299850571E+02  0.17770000000E+01 0.  1.
         15    1    1    2    0    0 -0.10997492532E+01  0.18186635669E+01 -0.20633168634E+00  0.27780006037E+01  0.17770000000E+01 0. -1.
</event>
<event>
 6    1  0.1860328E-003  0.5014285E+03  0.7546771E-02  0.9396619E-01
        -11   -1    0    0    0    0  0.00000000000E+00  0.00000000000E+00  0.50000000000E+03  0.50000000000E+03  0.00000000000E+00 0. -1.
         11   -1    0    0    0    0 -0.00000000000E+00 -0.00000000000E+00 -0.50000000000E+03  0.50000000000E+03  0.00000000000E+00 0.  1.
        -11    1    1    2    0    0  0.14900989353E+02 -0.13758455014E+01  0.49834689644E+03  0.49857152107E+03  0.00000000000E+00 0. -1.
         11    1    1    2    0    0 -0.24163720266E+01 -0.10904656215E+02 -0.33621368436E+03  0.33639915566E+03  0.00000000000E+00 0.  1.
        -15    1    1    2    0    0 -0.66354140618E+01  0.19662966298E+02 -0.98478011954E+02  0.10065653248E+03  0.17770000000E+01 0.  1.
         15    1    1    2    0    0 -0.58492032650E+01 -0.73824645816E+01 -0.63655200125E+02  0.64372790790E+02  0.17770000000E+01 0. -1.
</event>
<event>
 6    1  0.1860328E-003  0.5193444E+03  0.7546771E-02  0.9357536E-01
        -11   -1    0    0    0    0  0.00000000000E+00  0.00000000000E+00  0.50000000000E+03  0.50000000000E+03  0.00000000000E+00 0. -1.
         11   -1    0    0    0    0 -0.00000000000E+00 -0.00000000000E+00 -0.50000000000E+03  0.50000000000E+03  0.00000000000E+00 0. -1.
        -11    1    1    2    0    0 -0.60035209694E+01  0.26869405837E+02  0.47986646531E+03  0.48065562700E+03  0.00000000000E+00 0. -1.
         11    1    1    2    0    0 -0.39869859737E+01 -0.10711164348E+02 -0.42744075954E+03  0.42759353131E+03  0.00000000000E+00 0. -1.
        -15    1    1    2    0    0 -0.82274689446E+01 -0.15896149094E+02  0.14035107192E+02  0.22814924154E+02  0.17770000000E+01 0. -1.
         15    1    1    2    0    0  0.18217975888E+02 -0.26209239366E+00 -0.66460812964E+02  0.68935917537E+02  0.17770000000E+01 0.  1.
</event>
<event>
 6    1  0.1860328E-003  0.5000455E+03  0.7546771E-02  0.9399708E-01
        -11   -1    0    0    0    0  0.00000000000E+00  0.00000000000E+00  0.50000000000E+03  0.50000000000E+03  0.00000000000E+00 0.  1.
         11   -1    0    0    0    0 -0.00000000000E+00 -0.00000000000E+00 -0.50000000000E+03  0.50000000000E+03  0.00000000000E+00 0. -1.
        -11    1    1    2    0    0 -0.10022903970E+01  0.66473851666E-01  0.19219061468E+02  0.19245293672E+02  0.00000000000E+00 0.  1.
         11    1    1    2    0    0 -0.10746238780E+02 -0.94429536174E+00 -0.49983813600E+03  0.49995453348E+03  0.00000000000E+00 0. -1.
        -15    1    1    2    0    0  0.69078281225E+01 -0.56578078790E+00  0.34713873100E+03  0.34721246303E+03  0.17770000000E+01 0.  1.
         15    1    1    2    0    0  0.48407010543E+01  0.14436022980E+01  0.13348034354E+03  0.13358770982E+03  0.17770000000E+01 0. -1.
</event>
<event>
 6    1  0.1860328E-003  0.5393159E+03  0.7546771E-02  0.9315895E-01
        -11   -1    0    0    0    0  0.00000000000E+00  0.00000000000E+00  0.50000000000E+03  0.50000000000E+03  0.00000000000E+00 0. -1.
         11   -1    0    0    0    0 -0.00000000000E+00 -0.00000000000E+00 -0.50000000000E+03  0.50000000000E+03  0.00000000000E+00 0.  1.
        -11    1    1    2    0    0  0.79446267401E+01 -0.10806876227E+01  0.46061430150E+03  0.46068407800E+03  0.00000000000E+00 0. -1.
         11    1    1    2    0    0 -0.63257720859E+02  0.30565940610E+02 -0.36408952245E+03  0.37080587419E+03  0.00000000000E+00 0.  1.
        -15    1    1    2    0    0 -0.23404860250E+02 -0.23942696528E+02  0.10853136064E+02  0.35241857099E+02  0.17770000000E+01 0.  1.
         15    1    1    2    0    0  0.78717954369E+02 -0.55425564591E+01 -0.10737791511E+03  0.13326819071E+03  0.17770000000E+01 0. -1.
</event>
<event>
 6    1  0.1860328E-003  0.5056274E+03  0.7546771E-02  0.9387305E-01
        -11   -1    0    0    0    0  0.00000000000E+00  0.00000000000E+00  0.50000000000E+03  0.50000000000E+03  0.00000000000E+00 0. -1.
         11   -1    0    0    0    0 -0.00000000000E+00 -0.00000000000E+00 -0.50000000000E+03  0.50000000000E+03  0.00000000000E+00 0.  1.
        -11    1    1    2    0    0  0.26045586628E+01  0.17647587891E+02  0.49405060410E+03  0.49437255233E+03  0.00000000000E+00 0. -1.
         11    1    1    2    0    0  0.11016617176E+02 -0.53497910589E+01 -0.32896791162E+03  0.32919579735E+03  0.00000000000E+00 0.  1.
        -15    1    1    2    0    0 -0.72864334457E+01  0.13095638436E+02 -0.78215480211E+01  0.16997711636E+02  0.17770000000E+01 0. -1.
         15    1    1    2    0    0 -0.63347423931E+01 -0.25393435268E+02 -0.15726114447E+03  0.15943393868E+03  0.17770000000E+01 0.  1.
</event>
<event>
 6    1  0.1860328E-003  0.5011983E+03  0.7546771E-02  0.9397132E-01
        -11   -1    0    0    0    0  0.00000000000E+00  0.00000000000E+00  0.50000000000E+03  0.50000000000E+03  0.00000000000E+00 0.  1.
         11   -1    0    0    0    0 -0.00000000000E+00 -0.00000000000E+00 -0.50000000000E+03  0.50000000000E+03  0.00000000000E+00 0.  1.
        -11    1    1    2    0    0  0.38506778876E+01  0.27890542498E+01  0.19365080844E+03  0.19370916900E+03  0.00000000000E+00 0.  1.
         11    1    1    2    0    0  0.11067104773E+02 -0.13328514304E+01 -0.49867716375E+03  0.49880173510E+03  0.00000000000E+00 0.  1.
        -15    1    1    2    0    0  0.31141155950E+01  0.51893738590E+01  0.99404917003E+01  0.11772783071E+02  0.17770000000E+01 0. -1.
         15    1    1    2    0    0 -0.18031898256E+02 -0.66455766784E+01  0.29508586360E+03  0.29571631282E+03  0.17770000000E+01 0.  1.
</event>
<event>
 6    1  0.1860328E-003  0.5009215E+03  0.7546771E-02  0.9397750E-01
        -11   -1    0    0    0    0  0.00000000000E+00  0.00000000000E+00  0.50000000000E+03  0.50000000000E+03  0.00000000000E+00 0.  1.
         11   -1    0    0    0    0 -0.00000000000E+00 -0.00000000000E+00 -0.50000000000E+03  0.50000000000E+03  0.00000000000E+00 0. -1.
        -11    1    1    2    0    0  0.19681144408E+01 -0.10787950989E+02  0.49895796258E+03  0.49907845253E+03  0.00000000000E+00 0.  1.
         11    1    1    2    0    0  0.67412121137E+01 -0.68095377151E+00 -0.24055058962E+03  0.24064599271E+03  0.00000000000E+00 0. -1.
        -15    1    1    2    0    0 -0.90990851390E+01  0.49776702566E+01 -0.24539584648E+03  0.24562135442E+03  0.17770000000E+01 0. -1.
         15    1    1    2    0    0  0.38975858451E+00  0.64912345041E+01 -0.13011526480E+02  0.14654200336E+02  0.17770000000E+01 0.  1.
</event>
<event>
 6    1  0.1860328E-003  0.5010471E+03  0.7546771E-02  0.9397470E-01
        -11   -1    0    0    0    0  0.00000000000E+00  0.00000000000E+00  0.50000000000E+03  0.50000000000E+03  0.00000000000E+00 0. -1.
         11   -1    0    0    0    0 -0.00000000000E+00 -0.00000000000E+00 -0.50000000000E+03  0.50000000000E+03  0.00000000000E+00 0. -1.
        -11    1    1    2    0    0 -0.68904102662E+01  0.22963921531E+01  0.39978418912E+03  0.39985015824E+03  0.00000000000E+00 0. -1.
         11    1    1    2    0    0  0.88220305129E+01  0.80882583178E+01 -0.49880936795E+03  0.49895293736E+03  0.00000000000E+00 0. -1.
        -15    1    1    2    0    0  0.43109980583E+01  0.19079381431E+01  0.49565166122E+02  0.49820561558E+02  0.17770000000E+01 0.  1.
         15    1    1    2    0    0 -0.62426183050E+01 -0.12292588614E+02  0.49460012706E+02  0.51376342844E+02  0.17770000000E+01 0. -1.
</event>
<event>
 6    1  0.1934510E-003  0.5007248E+03  0.7546771E-02  0.9398189E-01
        -11   -1    0    0    0    0  0.00000000000E+00  0.00000000000E+00  0.50000000000E+03  0.50000000000E+03  0.00000000000E+00 0. -1.
         11   -1    0    0    0    0 -0.00000000000E+00 -0.00000000000E+00 -0.50000000000E+03  0.50000000000E+03  0.00000000000E+00 0.  1.
        -11    1    1    2    0    0 -0.54714297330E+01 -0.11431023175E+01  0.40481341541E+03  0.40485200323E+03  0.00000000000E+00 0. -1.
         11    1    1    2    0    0  0.99530178407E+01  0.30851310799E+01 -0.49916646224E+03  0.49927521231E+03  0.00000000000E+00 0.  1.
        -15    1    1    2    0    0  0.18151084469E+01 -0.73195966495E+00  0.80095647018E+02  0.80139258693E+02  0.17770000000E+01 0. -1.
         15    1    1    2    0    0 -0.62966965546E+01 -0.12100690974E+01  0.14257399812E+02  0.15733525769E+02  0.17770000000E+01 0.  1.
</event>
<event>
 6    1  0.1860328E-003  0.5012678E+03  0.7546771E-02  0.9396977E-01
        -11   -1    0    0    0    0  0.00000000000E+00  0.00000000000E+00  0.50000000000E+03  0.50000000000E+03  0.00000000000E+00 0. -1.
         11   -1    0    0    0    0 -0.00000000000E+00 -0.00000000000E+00 -0.50000000000E+03  0.50000000000E+03  0.00000000000E+00 0. -1.
        -11    1    1    2    0    0  0.66776299490E+01  0.38409983620E+01  0.39966043318E+03  0.39973466932E+03  0.00000000000E+00 0. -1.
         11    1    1    2    0    0 -0.70806712614E+01  0.51641997680E+01 -0.49865518553E+03  0.49873219159E+03  0.00000000000E+00 0. -1.
        -15    1    1    2    0    0 -0.83535079260E+01 -0.69979086386E+01  0.30660188821E+02  0.32587677541E+02  0.17770000000E+01 0.  1.
         15    1    1    2    0    0  0.87565492384E+01 -0.20072894913E+01  0.68334563535E+02  0.68945461549E+02  0.17770000000E+01 0. -1.
</event>
<event>
 6    1  0.1860328E-003  0.5060977E+03  0.7546771E-02  0.9386268E-01
        -11   -1    0    0    0    0  0.00000000000E+00  0.00000000000E+00  0.50000000000E+03  0.50000000000E+03  0.00000000000E+00 0. -1.
         11   -1    0    0    0    0 -0.00000000000E+00 -0.00000000000E+00 -0.50000000000E+03  0.50000000000E+03  0.00000000000E+00 0. -1.
        -11    1    1    2    0    0 -0.40571249551E+01  0.65381735901E+01  0.49384232849E+03  0.49390227109E+03  0.00000000000E+00 0. -1.
         11    1    1    2    0    0 -0.50853833192E+01 -0.10744919981E+02 -0.48607846431E+03  0.48622380433E+03  0.00000000000E+00 0. -1.
        -15    1    1    2    0    0  0.79028541492E+01  0.22813049183E+01 -0.12051259957E+02  0.14698641141E+02  0.17770000000E+01 0.  1.
         15    1    1    2    0    0  0.12396541251E+01  0.19254414727E+01  0.42873957772E+01  0.51752834478E+01  0.17770000000E+01 0. -1.
</event>
<event>
 6    1  0.1860328E-003  0.5021668E+03  0.7546771E-02  0.9394974E-01
        -11   -1    0    0    0    0  0.00000000000E+00  0.00000000000E+00  0.50000000000E+03  0.50000000000E+03  0.00000000000E+00 0.  1.
         11   -1    0    0    0    0 -0.00000000000E+00 -0.00000000000E+00 -0.50000000000E+03  0.50000000000E+03  0.00000000000E+00 0.  1.
        -11    1    1    2    0    0 -0.96464060500E+01 -0.49244720475E+01  0.22756638069E+03  0.22782396975E+03  0.00000000000E+00 0.  1.
         11    1    1    2    0    0  0.24668695111E+02  0.86851864383E+01 -0.49714580523E+03  0.49783323376E+03  0.00000000000E+00 0.  1.
        -15    1    1    2    0    0 -0.31422904995E+01 -0.63782272963E+01  0.25568576652E+03  0.25579078307E+03  0.17770000000E+01 0. -1.
         15    1    1    2    0    0 -0.11879998561E+02  0.26175129055E+01  0.13893658015E+02  0.18552013413E+02  0.17770000000E+01 0.  1.
</event>
<event>
 6    1  0.1860328E-003  0.5071440E+03  0.7546771E-02  0.9383965E-01
        -11   -1    0    0    0    0  0.00000000000E+00  0.00000000000E+00  0.50000000000E+03  0.50000000000E+03  0.00000000000E+00 0. -1.
         11   -1    0    0    0    0 -0.00000000000E+00 -0.00000000000E+00 -0.50000000000E+03  0.50000000000E+03  0.00000000000E+00 0. -1.
        -11    1    1    2    0    0 -0.18396507366E+02 -0.46035570062E+01  0.49249099865E+03  0.49285597082E+03  0.00000000000E+00 0. -1.
         11    1    1    2    0    0 -0.92530876102E+01  0.19522976808E+02 -0.36770304165E+03  0.36833720025E+03  0.00000000000E+00 0. -1.
        -15    1    1    2    0    0  0.41277855497E+02 -0.41677044158E+01 -0.70917834853E+02  0.82181069254E+02  0.17770000000E+01 0.  1.
         15    1    1    2    0    0 -0.13628260520E+02 -0.10751715386E+02 -0.53870122155E+02  0.56625759673E+02  0.17770000000E+01 0. -1.
</event>
<event>
 6    1  0.1860328E-003  0.5004179E+03  0.7546771E-02  0.9398875E-01
        -11   -1    0    0    0    0  0.00000000000E+00  0.00000000000E+00  0.50000000000E+03  0.50000000000E+03  0.00000000000E+00 0. -1.
         11   -1    0    0    0    0 -0.00000000000E+00 -0.00000000000E+00 -0.50000000000E+03  0.50000000000E+03  0.00000000000E+00 0.  1.
        -11    1    1    2    0    0 -0.11509952404E+02  0.74948746307E+01  0.49939327882E+03  0.49958212446E+03  0.00000000000E+00 0. -1.
         11    1    1    2    0    0 -0.30354099284E+01 -0.14482144421E+01 -0.59702956574E+02  0.59797609168E+02  0.00000000000E+00 0.  1.
        -15    1    1    2    0    0 -0.30208419989E+01 -0.51692929420E+01 -0.35614899772E+02  0.36158344689E+02  0.17770000000E+01 0. -1.
         15    1    1    2    0    0  0.17566204331E+02 -0.87736724660E+00 -0.40407542248E+03  0.40446192168E+03  0.17770000000E+01 0.  1.
</event>
<event>
 6    1  0.1860328E-003  0.5204633E+03  0.7546771E-02  0.9355151E-01
        -11   -1    0    0    0    0  0.00000000000E+00  0.00000000000E+00  0.50000000000E+03  0.50000000000E+03  0.00000000000E+00 0. -1.
         11   -1    0    0    0    0 -0.00000000000E+00 -0.00000000000E+00 -0.50000000000E+03  0.50000000000E+03  0.00000000000E+00 0.  1.
        -11    1    1    2    0    0 -0.23283112648E+01  0.56800064601E+01  0.22128596107E+03  0.22137109132E+03  0.00000000000E+00 0. -1.
         11    1    1    2    0    0  0.12082895688E+02 -0.22971507071E+02 -0.47883375470E+03  0.47953670469E+03  0.00000000000E+00 0.  1.
        -15    1    1    2    0    0 -0.23830742224E+02  0.13397815566E+02  0.27494582277E+03  0.27630738123E+03  0.17770000000E+01 0. -1.
         15    1    1    2    0    0  0.14076157801E+02  0.38936850448E+01 -0.17398029134E+02  0.22784822765E+02  0.17770000000E+01 0.  1.
</event>
<event>
 6    1  0.1860328E-003  0.5004973E+03  0.7546771E-02  0.9398698E-01
        -11   -1    0    0    0    0  0.00000000000E+00  0.00000000000E+00  0.50000000000E+03  0.50000000000E+03  0.00000000000E+00 0.  1.
         11   -1    0    0    0    0 -0.00000000000E+00 -0.00000000000E+00 -0.50000000000E+03  0.50000000000E+03  0.00000000000E+00 0.  1.
        -11    1    1    2    0    0  0.17638687847E+02 -0.72704996199E+01  0.49913818020E+03  0.49950265906E+03  0.00000000000E+00 0.  1.
         11    1    1    2    0    0 -0.49515957064E+01  0.38244968076E+00 -0.29497445771E+03  0.29501626272E+03  0.00000000000E+00 0.  1.
        -15    1    1    2    0    0  0.44491643829E+01  0.21337823430E+01 -0.38345043034E+02  0.38702043164E+02  0.17770000000E+01 0.  1.
         15    1    1    2    0    0 -0.17136256523E+02  0.47542675962E+01 -0.16581867946E+03  0.16677903506E+03  0.17770000000E+01 0. -1.
</event>
<event>
 6    1  0.1860328E-003  0.4880800E+03  0.7546771E-02  0.9426884E-01
        -11   -1    0    0    0    0  0.00000000000E+00  0.00000000000E+00  0.50000000000E+03  0.50000000000E+03  0.00000000000E+00 0.  1.
         11   -1    0    0    0    0 -0.00000000000E+00 -0.00000000000E+00 -0.50000000000E+03  0.50000000000E+03  0.00000000000E+00 0. -1.
        -11    1    1    2    0    0 -0.70278784229E+01  0.99141914197E+01  0.48333324528E+03  0.48348599593E+03  0.00000000000E+00 0.  1.
         11    1    1    2    0    0 -0.73465549826E+01 -0.11297988283E+01 -0.49280922730E+03  0.49286527858E+03  0.00000000000E+00 0. -1.
        -15    1    1    2    0    0  0.11804168319E+02 -0.87962193400E+01  0.12869146987E+01  0.14883740888E+02  0.17770000000E+01 0. -1.
         15    1    1    2    0    0  0.25702650867E+01  0.11826748587E-01  0.81890673204E+01  0.87649846016E+01  0.17770000000E+01 0.  1.
</event>
<event>
 6    1  0.1860328E-003  0.5236826E+03  0.7546771E-02  0.9348323E-01
        -11   -1    0    0    0    0  0.00000000000E+00  0.00000000000E+00  0.50000000000E+03  0.50000000000E+03  0.00000000000E+00 0.  1.
         11   -1    0    0    0    0 -0.00000000000E+00 -0.00000000000E+00 -0.50000000000E+03  0.50000000000E+03  0.00000000000E+00 0.  1.
        -11    1    1    2    0    0  0.54285223748E+01 -0.65430255223E+01  0.47624147996E+03  0.47631735983E+03  0.00000000000E+00 0.  1.
         11    1    1    2    0    0 -0.41312513191E+01  0.10541021744E+02 -0.39526650014E+03  0.39542861114E+03  0.00000000000E+00 0.  1.
        -15    1    1    2    0    0  0.18424012698E-01  0.46492039845E+02 -0.52869678552E+02  0.70426349810E+02  0.17770000000E+01 0. -1.
         15    1    1    2    0    0 -0.13156950684E+01 -0.50490036067E+02 -0.28105301270E+02  0.57827679220E+02  0.17770000000E+01 0.  1.
</event>
<event>
 6    1  0.1860328E-003  0.5041307E+03  0.7546771E-02  0.9390614E-01
        -11   -1    0    0    0    0  0.00000000000E+00  0.00000000000E+00  0.50000000000E+03  0.50000000000E+03  0.00000000000E+00 0. -1.
         11   -1    0    0    0    0 -0.00000000000E+00 -0.00000000000E+00 -0.50000000000E+03  0.50000000000E+03  0.00000000000E+00 0.  1.
        -11    1    1    2    0    0 -0.64727313323E+01  0.38667303972E+01  0.37250891989E+03  0.37258521609E+03  0.00000000000E+00 0. -1.
         11    1    1    2    0    0 -0.55794411963E+01 -0.46345416818E+01 -0.49581627940E+03  0.49586932962E+03  0.00000000000E+00 0.  1.
        -15    1    1    2    0    0  0.83334060291E+01  0.14463993213E+02  0.15677573123E+02  0.22969475043E+02  0.17770000000E+01 0. -1.
         15    1    1    2    0    0  0.37187664995E+01 -0.13696181928E+02  0.10762978639E+03  0.10857597925E+03  0.17770000000E+01 0. -1.
</event>
<event>
 6    1  0.1860328E-003  0.5006212E+03  0.7546771E-02  0.9398421E-01
        -11   -1    0    0    0    0  0.00000000000E+00  0.00000000000E+00  0.50000000000E+03  0.50000000000E+03  0.00000000000E+00 0.  1.
         11   -1    0    0    0    0 -0.00000000000E+00 -0.00000000000E+00 -0.50000000000E+03  0.50000000000E+03  0.00000000000E+00 0.  1.
        -11    1    1    2    0    0  0.81696494695E+01 -0.18511505833E+01  0.30337096832E+03  0.30348659666E+03  0.00000000000E+00 0.  1.
         11    1    1    2    0    0  0.51430966196E+01  0.90432049211E+01 -0.49927043118E+03  0.49937880857E+03  0.00000000000E+00 0.  1.
        -15    1    1    2    0    0 -0.98755680878E+01 -0.10128605836E+02  0.89868127386E+02  0.90992052126E+02  0.17770000000E+01 0. -1.
         15    1    1    2    0    0 -0.34371780013E+01  0.29365514980E+01  0.10603133547E+03  0.10614254264E+03  0.17770000000E+01 0.  1.
</event>
<event>
 6    1  0.1860328E-003  0.4868666E+03  0.7546771E-02  0.9429686E-01
        -11   -1    0    0    0    0  0.00000000000E+00  0.00000000000E+00  0.50000000000E+03  0.50000000000E+03  0.00000000000E+00 0.  1.
         11   -1    0    0    0    0 -0.00000000000E+00 -0.00000000000E+00 -0.50000000000E+03  0.50000000000E+03  0.00000000000E+00 0. -1.
        -11    1    1    2    0    0 -0.54968439296E+01 -0.91731472058E+01  0.48460292630E+03  0.48472090743E+03  0.00000000000E+00 0.  1.
         11    1    1    2    0    0 -0.82914104499E+01  0.10198312583E+02 -0.48894358998E+03  0.48912021759E+03  0.00000000000E+00 0. -1.
        -15    1    1    2    0    0 -0.22151545013E+01 -0.24536269306E+01  0.86502176595E+01  0.94292729909E+01  0.17770000000E+01 0.  1.
         15    1    1    2    0    0  0.16003408881E+02  0.14284615536E+01 -0.43095539795E+01  0.16729601989E+02  0.17770000000E+01 0. -1.
</event>
<event>
 6    1  0.1860328E-003  0.5004268E+03  0.7546771E-02  0.9398855E-01
        -11   -1    0    0    0    0  0.00000000000E+00  0.00000000000E+00  0.50000000000E+03  0.50000000000E+03  0.00000000000E+00 0.  1.
         11   -1    0    0    0    0 -0.00000000000E+00 -0.00000000000E+00 -0.50000000000E+03  0.50000000000E+03  0.00000000000E+00 0.  1.
        -11    1    1    2    0    0  0.57012332622E+01 -0.17197872000E+01  0.39543365090E+03  0.39547848739E+03  0.00000000000E+00 0.  1.
         11    1    1    2    0    0  0.78650124548E-01 -0.85675832549E+01 -0.49949974159E+03  0.49957321938E+03  0.00000000000E+00 0.  1.
        -15    1    1    2    0    0 -0.10552652862E+01  0.22817386774E+01  0.11687191191E+02  0.12085862946E+02  0.17770000000E+01 0. -1.
         15    1    1    2    0    0 -0.47246181005E+01  0.80056317775E+01  0.92378899503E+02  0.92862430287E+02  0.17770000000E+01 0.  1.
</event>
<event>
 6    1  0.1860328E-003  0.5057680E+03  0.7546771E-02  0.9386995E-01
        -11   -1    0    0    0    0  0.00000000000E+00  0.00000000000E+00  0.50000000000E+03  0.50000000000E+03  0.00000000000E+00 0.  1.
         11   -1    0    0    0    0 -0.00000000000E+00 -0.00000000000E+00 -0.50000000000E+03  0.50000000000E+03  0.00000000000E+00 0.  1.
        -11    1    1    2    0    0 -0.53602633346E+01 -0.72190761437E+01  0.49415021673E+03  0.49423201452E+03  0.00000000000E+00 0.  1.
         11    1    1    2    0    0 -0.75163230768E+01  0.21059881432E+01 -0.48496847549E+03  0.48503129024E+03  0.00000000000E+00 0.  1.
        -15    1    1    2    0    0 -0.16798361726E+01  0.26332913989E+01 -0.86348572258E+00  0.36958638708E+01  0.17770000000E+01 0.  1.
         15    1    1    2    0    0  0.14556422584E+02  0.24797966016E+01 -0.83182555228E+01  0.17040831364E+02  0.17770000000E+01 0. -1.
</event>
<event>
 6    1  0.1860328E-003  0.5088222E+03  0.7546771E-02  0.9380283E-01
        -11   -1    0    0    0    0  0.00000000000E+00  0.00000000000E+00  0.50000000000E+03  0.50000000000E+03  0.00000000000E+00 0. -1.
         11   -1    0    0    0    0 -0.00000000000E+00 -0.00000000000E+00 -0.50000000000E+03  0.50000000000E+03  0.00000000000E+00 0.  1.
        -11    1    1    2    0    0 -0.11475409078E+02  0.42787891248E+01  0.41050797095E+03  0.41069062232E+03  0.00000000000E+00 0. -1.
         11    1    1    2    0    0 -0.79436889083E+01  0.11621829361E+02 -0.49097598316E+03  0.49117775311E+03  0.00000000000E+00 0.  1.
        -15    1    1    2    0    0  0.11114395563E+02 -0.27452229448E+01 -0.39754810952E+01  0.12248600601E+02  0.17770000000E+01 0.  1.
         15    1    1    2    0    0  0.83047024238E+01 -0.13155395541E+02  0.84443493308E+02  0.85883023964E+02  0.17770000000E+01 0. -1.
</event>
<event>
 6    1  0.1860328E-003  0.4861141E+03  0.7546771E-02  0.9431428E-01
        -11   -1    0    0    0    0  0.00000000000E+00  0.00000000000E+00  0.50000000000E+03  0.50000000000E+03  0.00000000000E+00 0.  1.
         11   -1    0    0    0    0 -0.00000000000E+00 -0.00000000000E+00 -0.50000000000E+03  0.50000000000E+03  0.00000000000E+00 0. -1.
        -11    1    1    2    0    0 -0.76427288945E+01 -0.49440216992E+01  0.48849228817E+03  0.48857708732E+03  0.00000000000E+00 0.  1.
         11    1    1    2    0    0  0.11678697584E+02  0.15993142455E+02 -0.48333037024E+03  0.48373589838E+03  0.00000000000E+00 0. -1.
        -15    1    1    2    0    0  0.17589253228E+01  0.16206955039E+01  0.79393654715E+01  0.84800781422E+01  0.17770000000E+01 0.  1.
         15    1    1    2    0    0 -0.57948940126E+01 -0.12669816260E+02 -0.13101283401E+02  0.19206936154E+02  0.17770000000E+01 0. -1.
</event>
<event>
 6    1  0.1860328E-003  0.5005623E+03  0.7546771E-02  0.9398552E-01
        -11   -1    0    0    0    0  0.00000000000E+00  0.00000000000E+00  0.50000000000E+03  0.50000000000E+03  0.00000000000E+00 0.  1.
         11   -1    0    0    0    0 -0.00000000000E+00 -0.00000000000E+00 -0.50000000000E+03  0.50000000000E+03  0.00000000000E+00 0. -1.
        -11    1    1    2    0    0 -0.23428807793E+01 -0.82096724694E+01  0.49936468500E+03  0.49943766021E+03  0.00000000000E+00 0.  1.
         11    1    1    2    0    0 -0.35030768295E+01 -0.35997574778E+01 -0.35222646921E+03  0.35226228213E+03  0.00000000000E+00 0. -1.
        -15    1    1    2    0    0  0.13624509781E+01  0.30782815381E+01 -0.10208235183E+03  0.10215329840E+03  0.17770000000E+01 0. -1.
         15    1    1    2    0    0  0.44835066306E+01  0.87311484092E+01 -0.45055863951E+02  0.46146759254E+02  0.17770000000E+01 0.  1.
</event>
<event>
 6    1  0.1860328E-003  0.5017405E+03  0.7546771E-02  0.9395924E-01
        -11   -1    0    0    0    0  0.00000000000E+00  0.00000000000E+00  0.50000000000E+03  0.50000000000E+03  0.00000000000E+00 0.  1.
         11   -1    0    0    0    0 -0.00000000000E+00 -0.00000000000E+00 -0.50000000000E+03  0.50000000000E+03  0.00000000000E+00 0. -1.
        -11    1    1    2    0    0 -0.71012231766E+01 -0.40970991224E-01  0.49820884985E+03  0.49825945763E+03  0.00000000000E+00 0.  1.
         11    1    1    2    0    0  0.14703288227E+01 -0.14525594833E+01 -0.62116548026E+02  0.62150923844E+02  0.00000000000E+00 0. -1.
        -15    1    1    2    0    0  0.11156405886E+02  0.37457306486E+01 -0.18798864118E+02  0.22249739583E+02  0.17770000000E+01 0. -1.
         15    1    1    2    0    0 -0.55255115321E+01 -0.22522001740E+01 -0.41729343770E+03  0.41733987895E+03  0.17770000000E+01 0.  1.
</event>
<event>
 6    1  0.1860328E-003  0.5187689E+03  0.7546771E-02  0.9358765E-01
        -11   -1    0    0    0    0  0.00000000000E+00  0.00000000000E+00  0.50000000000E+03  0.50000000000E+03  0.00000000000E+00 0.  1.
         11   -1    0    0    0    0 -0.00000000000E+00 -0.00000000000E+00 -0.50000000000E+03  0.50000000000E+03  0.00000000000E+00 0.  1.
        -11    1    1    2    0    0 -0.72157705848E+01 -0.15092459391E+01  0.41567268589E+03  0.41573805089E+03  0.00000000000E+00 0.  1.
         11    1    1    2    0    0 -0.15448885213E+02 -0.33771156557E+02 -0.47979598718E+03  0.48123107587E+03  0.00000000000E+00 0.  1.
        -15    1    1    2    0    0  0.13681319279E+02  0.28371812433E+02  0.78521234958E+02  0.84621984769E+02  0.17770000000E+01 0.  1.
         15    1    1    2    0    0  0.89833365184E+01  0.69085900636E+01 -0.14397933664E+02  0.18408888464E+02  0.17770000000E+01 0. -1.
</event>
<event>
 6    1  0.1860328E-003  0.5761715E+03  0.7546771E-02  0.9243848E-01
        -11   -1    0    0    0    0  0.00000000000E+00  0.00000000000E+00  0.50000000000E+03  0.50000000000E+03  0.00000000000E+00 0. -1.
         11   -1    0    0    0    0 -0.00000000000E+00 -0.00000000000E+00 -0.50000000000E+03  0.50000000000E+03  0.00000000000E+00 0.  1.
        -11    1    1    2    0    0  0.46026863943E+01  0.38809218897E+01  0.40251774072E+03  0.40256276265E+03  0.00000000000E+00 0. -1.
         11    1    1    2    0    0 -0.10021148865E+01  0.69449047451E+01 -0.42377045691E+03  0.42382854563E+03  0.00000000000E+00 0.  1.
        -15    1    1    2    0    0 -0.48225724648E+00 -0.85164405339E+02  0.43877407485E+02  0.95820629957E+02  0.17770000000E+01 0. -1.
         15    1    1    2    0    0 -0.31183142613E+01  0.74338578704E+02 -0.22624691294E+02  0.77788061762E+02  0.17770000000E+01 0.  1.
</event>
<event>
 6    1  0.1860328E-003  0.5113291E+03  0.7546771E-02  0.9374811E-01
        -11   -1    0    0    0    0  0.00000000000E+00  0.00000000000E+00  0.50000000000E+03  0.50000000000E+03  0.00000000000E+00 0. -1.
         11   -1    0    0    0    0 -0.00000000000E+00 -0.00000000000E+00 -0.50000000000E+03  0.50000000000E+03  0.00000000000E+00 0. -1.
        -11    1    1    2    0    0 -0.84129544029E+01 -0.11718752350E+01  0.44793858101E+03  0.44801911059E+03  0.00000000000E+00 0. -1.
         11    1    1    2    0    0  0.11865649216E+02 -0.92999483452E+01 -0.48843827756E+03  0.48867088480E+03  0.00000000000E+00 0. -1.
        -15    1    1    2    0    0  0.90257128454E+01 -0.48524230311E+01 -0.65200713136E+01  0.12275119575E+02  0.17770000000E+01 0.  1.
         15    1    1    2    0    0 -0.12478407659E+02  0.15324246611E+02  0.47019767856E+02  0.51034885031E+02  0.17770000000E+01 0. -1.
</event>
<event>
 6    1  0.1860328E-003  0.5452011E+03  0.7546771E-02  0.9303987E-01
        -11   -1    0    0    0    0  0.00000000000E+00  0.00000000000E+00  0.50000000000E+03  0.50000000000E+03  0.00000000000E+00 0. -1.
         11   -1    0    0    0    0 -0.00000000000E+00 -0.00000000000E+00 -0.50000000000E+03  0.50000000000E+03  0.00000000000E+00 0. -1.
        -11    1    1    2    0    0  0.63038579678E+01 -0.53745798136E+01  0.37074388034E+03  0.37083641885E+03  0.00000000000E+00 0. -1.
         11    1    1    2    0    0  0.48254200294E+01 -0.68325759327E+01 -0.45472192938E+03  0.45479885865E+03  0.00000000000E+00 0. -1.
        -15    1    1    2    0    0  0.32369529430E+02  0.16126960919E+01 -0.34697477072E+02  0.47512733750E+02  0.17770000000E+01 0.  1.
         15    1    1    2    0    0 -0.43498807428E+02  0.10594459654E+02  0.11867552611E+03  0.12685198875E+03  0.17770000000E+01 0. -1.
</event>
<event>
 6    1  0.1860328E-003  0.4765876E+03  0.7546771E-02  0.9453776E-01
        -11   -1    0    0    0    0  0.00000000000E+00  0.00000000000E+00  0.50000000000E+03  0.50000000000E+03  0.00000000000E+00 0. -1.
         11   -1    0    0    0    0 -0.00000000000E+00 -0.00000000000E+00 -0.50000000000E+03  0.50000000000E+03  0.00000000000E+00 0. -1.
        -11    1    1    2    0    0  0.21950363745E+01 -0.85960911500E+01  0.48020419837E+03  0.48028614710E+03  0.00000000000E+00 0. -1.
         11    1    1    2    0    0 -0.37539497213E+00 -0.12120202793E+02 -0.47298784819E+03  0.47314326030E+03  0.00000000000E+00 0. -1.
        -15    1    1    2    0    0 -0.10312499523E+01  0.12751097046E+02 -0.24357258019E+02  0.27569688057E+02  0.17770000000E+01 0.  1.
         15    1    1    2    0    0 -0.78839145003E+00  0.79651968967E+01  0.17140907840E+02  0.19000904538E+02  0.17770000000E+01 0. -1.
</event>
<event>
 6    1  0.1860328E-003  0.5057741E+03  0.7546771E-02  0.9386982E-01
        -11   -1    0    0    0    0  0.00000000000E+00  0.00000000000E+00  0.50000000000E+03  0.50000000000E+03  0.00000000000E+00 0. -1.
         11   -1    0    0    0    0 -0.00000000000E+00 -0.00000000000E+00 -0.50000000000E+03  0.50000000000E+03  0.00000000000E+00 0. -1.
        -11    1    1    2    0    0 -0.47187124208E+01 -0.53696862140E+01  0.47244906401E+03  0.47250314059E+03  0.00000000000E+00 0. -1.
         11    1    1    2    0    0 -0.25842793845E+01  0.81660123271E+01 -0.49415164088E+03  0.49422586581E+03  0.00000000000E+00 0. -1.
        -15    1    1    2    0    0 -0.51007207005E+01 -0.95415455245E+01  0.10156898982E+02  0.14945861253E+02  0.17770000000E+01 0. -1.
         15    1    1    2    0    0  0.12403712506E+02  0.67452194115E+01  0.11545677881E+02  0.18325132348E+02  0.17770000000E+01 0.  1.
</event>
<event>
 6    1  0.1860328E-003  0.5001981E+03  0.7546771E-02  0.9399367E-01
        -11   -1    0    0    0    0  0.00000000000E+00  0.00000000000E+00  0.50000000000E+03  0.50000000000E+03  0.00000000000E+00 0.  1.
         11   -1    0    0    0    0 -0.00000000000E+00 -0.00000000000E+00 -0.50000000000E+03  0.50000000000E+03  0.00000000000E+00 0.  1.
        -11    1    1    2    0    0 -0.22920754254E+01  0.36880122437E+01  0.17722137224E+03  0.17727456056E+03  0.00000000000E+00 0.  1.
         11    1    1    2    0    0 -0.91344460274E+01  0.19906406176E+01 -0.49971444760E+03  0.49980189065E+03  0.00000000000E+00 0.  1.
        -15    1    1    2    0    0  0.64336750074E+00 -0.20810804581E+01  0.15955431373E+03  0.15957907625E+03  0.17770000000E+01 0.  1.
         15    1    1    2    0    0  0.10783153952E+02 -0.35975724032E+01  0.16293876163E+03  0.16334447253E+03  0.17770000000E+01 0.  1.
</event>
<event>
 6    1  0.1860328E-003  0.5095822E+03  0.7546771E-02  0.9378620E-01
        -11   -1    0    0    0    0  0.00000000000E+00  0.00000000000E+00  0.50000000000E+03  0.50000000000E+03  0.00000000000E+00 0. -1.
         11   -1    0    0    0    0 -0.00000000000E+00 -0.00000000000E+00 -0.50000000000E+03  0.50000000000E+03  0.00000000000E+00 0. -1.
        -11    1    1    2    0    0 -0.26670445786E+02 -0.31334817263E+02  0.31614794800E+03  0.31881453617E+03  0.00000000000E+00 0. -1.
         11    1    1    2    0    0 -0.64680290004E+01 -0.18170568956E+02 -0.49003834808E+03  0.49041776841E+03  0.00000000000E+00 0. -1.
        -15    1    1    2    0    0  0.34489230905E+02  0.46934051821E+02  0.17688338436E+03  0.18623426553E+03  0.17770000000E+01 0.  1.
         15    1    1    2    0    0 -0.13507561194E+01  0.25713343986E+01 -0.29929842710E+01  0.45334298859E+01  0.17770000000E+01 0. -1.
</event>
<event>
 6    1  0.1860328E-003  0.5142685E+03  0.7546771E-02  0.9368437E-01
        -11   -1    0    0    0    0  0.00000000000E+00  0.00000000000E+00  0.50000000000E+03  0.50000000000E+03  0.00000000000E+00 0. -1.
         11   -1    0    0    0    0 -0.00000000000E+00 -0.00000000000E+00 -0.50000000000E+03  0.50000000000E+03  0.00000000000E+00 0. -1.
        -11    1    1    2    0    0 -0.93675697810E+01  0.29487951971E+02  0.48474504286E+03  0.48573145591E+03  0.00000000000E+00 0. -1.
         11    1    1    2    0    0  0.55880445463E+01 -0.21177263079E+01 -0.44077160240E+03  0.44081211019E+03  0.00000000000E+00 0. -1.
        -15    1    1    2    0    0 -0.14924714177E+01 -0.34100106121E+02 -0.62627072159E+01  0.34748006260E+02  0.17770000000E+01 0. -1.
         15    1    1    2    0    0  0.52719966523E+01  0.67298804582E+01 -0.37710733243E+02  0.38708427641E+02  0.17770000000E+01 0.  1.
</event>
<event>
 6    1  0.1860328E-003  0.4851030E+03  0.7546771E-02  0.9433774E-01
        -11   -1    0    0    0    0  0.00000000000E+00  0.00000000000E+00  0.50000000000E+03  0.50000000000E+03  0.00000000000E+00 0.  1.
         11   -1    0    0    0    0 -0.00000000000E+00 -0.00000000000E+00 -0.50000000000E+03  0.50000000000E+03  0.00000000000E+00 0.  1.
        -11    1    1    2    0    0 -0.13973174911E+02  0.97402838382E+01  0.48151738457E+03  0.48181854924E+03  0.00000000000E+00 0.  1.
         11    1    1    2    0    0  0.73528343421E+01  0.40551801266E-01 -0.48842858639E+03  0.48848392995E+03  0.00000000000E+00 0.  1.
        -15    1    1    2    0    0 -0.49251501691E+01 -0.56722605375E+01 -0.74546987884E+01  0.10731351584E+02  0.17770000000E+01 0.  1.
         15    1    1    2    0    0  0.11545490738E+02 -0.41085751020E+01  0.14365900612E+02  0.18966169227E+02  0.17770000000E+01 0. -1.
</event>
<event>
 6    1  0.1860328E-003  0.5010669E+03  0.7546771E-02  0.9397426E-01
        -11   -1    0    0    0    0  0.00000000000E+00  0.00000000000E+00  0.50000000000E+03  0.50000000000E+03  0.00000000000E+00 0. -1.
         11   -1    0    0    0    0 -0.00000000000E+00 -0.00000000000E+00 -0.50000000000E+03  0.50000000000E+03  0.00000000000E+00 0. -1.
        -11    1    1    2    0    0 -0.45221499637E+01  0.76615169252E+01  0.49885381665E+03  0.49893314088E+03  0.00000000000E+00 0. -1.
         11    1    1    2    0    0  0.55839914237E+01  0.50192052461E+01 -0.42020195102E+03  0.42026902458E+03  0.00000000000E+00 0. -1.
        -15    1    1    2    0    0 -0.24370146312E+01 -0.11083978347E+02 -0.30893280702E+02  0.32959765440E+02  0.17770000000E+01 0. -1.
         15    1    1    2    0    0  0.13751731712E+01 -0.15967438240E+01 -0.47758584926E+02  0.47838069100E+02  0.17770000000E+01 0.  1.
</event>
<event>
 6    1  0.1860328E-003  0.4803708E+03  0.7546771E-02  0.9444835E-01
        -11   -1    0    0    0    0  0.00000000000E+00  0.00000000000E+00  0.50000000000E+03  0.50000000000E+03  0.00000000000E+00 0. -1.
         11   -1    0    0    0    0 -0.00000000000E+00 -0.00000000000E+00 -0.50000000000E+03  0.50000000000E+03  0.00000000000E+00 0.  1.
        -11    1    1    2    0    0  0.79562664640E+01  0.33397520921E+01  0.47995152512E+03  0.48002908515E+03  0.00000000000E+00 0. -1.
         11    1    1    2    0    0 -0.42179332447E+01 -0.51773090882E+01 -0.48067550632E+03  0.48072189243E+03  0.00000000000E+00 0.  1.
        -15    1    1    2    0    0 -0.37288498181E+00 -0.16348842891E+01 -0.18850367613E+02  0.19008050347E+02  0.17770000000E+01 0.  1.
         15    1    1    2    0    0 -0.33654482375E+01  0.34724412852E+01  0.19574348808E+02  0.20240972076E+02  0.17770000000E+01 0. -1.
</event>
<event>
 6    1  0.1860328E-003  0.5305629E+03  0.7546771E-02  0.9333906E-01
        -11   -1    0    0    0    0  0.00000000000E+00  0.00000000000E+00  0.50000000000E+03  0.50000000000E+03  0.00000000000E+00 0. -1.
         11   -1    0    0    0    0 -0.00000000000E+00 -0.00000000000E+00 -0.50000000000E+03  0.50000000000E+03  0.00000000000E+00 0.  1.
        -11    1    1    2    0    0  0.62542444145E+01  0.12735869442E+02  0.45430363349E+03  0.45452514710E+03  0.00000000000E+00 0. -1.
         11    1    1    2    0    0 -0.13811775491E+02 -0.20939387245E+02 -0.46876647964E+03  0.46943714757E+03  0.00000000000E+00 0.  1.
        -15    1    1    2    0    0  0.11957702869E+02 -0.27897745435E+02 -0.10188417808E+02  0.32066063755E+02  0.17770000000E+01 0.  1.
         15    1    1    2    0    0 -0.44001717927E+01  0.36101263239E+02  0.24651263962E+02  0.43971641579E+02  0.17770000000E+01 0. -1.
</event>
<event>
 6    1  0.1860328E-003  0.5059764E+03  0.7546771E-02  0.9386535E-01
        -11   -1    0    0    0    0  0.00000000000E+00  0.00000000000E+00  0.50000000000E+03  0.50000000000E+03  0.00000000000E+00 0. -1.
         11   -1    0    0    0    0 -0.00000000000E+00 -0.00000000000E+00 -0.50000000000E+03  0.50000000000E+03  0.00000000000E+00 0. -1.
        -11    1    1    2    0    0 -0.86999502092E+01  0.21840863386E+00  0.49394693962E+03  0.49402359862E+03  0.00000000000E+00 0. -1.
         11    1    1    2    0    0  0.63568880933E+01 -0.35733710536E+01 -0.48760694005E+03  0.48766146761E+03  0.00000000000E+00 0. -1.
        -15    1    1    2    0    0 -0.27655608288E+01  0.45774810846E+01 -0.10134260818E+02  0.11595802306E+02  0.17770000000E+01 0. -1.
         15    1    1    2    0    0  0.51086229447E+01 -0.12225186649E+01  0.37942612482E+01  0.67191314689E+01  0.17770000000E+01 0.  1.
</event>
<event>
 6    1  0.1860328E-003  0.2601864E+03  0.7546771E-02  0.1019350E+00
        -11   -1    0    0    0    0  0.00000000000E+00  0.00000000000E+00  0.50000000000E+03  0.50000000000E+03  0.00000000000E+00 0. -1.
         11   -1    0    0    0    0 -0.00000000000E+00 -0.00000000000E+00 -0.50000000000E+03  0.50000000000E+03  0.00000000000E+00 0. -1.
        -11    1    1    2    0    0  0.97180507381E+01  0.67951378567E+02  0.27934312203E+03  0.28765328120E+03  0.00000000000E+00 0. -1.
         11    1    1    2    0    0  0.19914630668E+01 -0.17154234079E+02 -0.31618496337E+03  0.31665622485E+03  0.00000000000E+00 0. -1.
        -15    1    1    2    0    0 -0.40195630849E+01 -0.67822088860E+02  0.21040825137E+03  0.22111260163E+03  0.17770000000E+01 0. -1.
         15    1    1    2    0    0 -0.76899507199E+01  0.17024944372E+02 -0.17356641002E+03  0.17457789233E+03  0.17770000000E+01 0.  1.
</event>
<event>
 6    1  0.1860328E-003  0.5483449E+03  0.7546771E-02  0.9297692E-01
        -11   -1    0    0    0    0  0.00000000000E+00  0.00000000000E+00  0.50000000000E+03  0.50000000000E+03  0.00000000000E+00 0. -1.
         11   -1    0    0    0    0 -0.00000000000E+00 -0.00000000000E+00 -0.50000000000E+03  0.50000000000E+03  0.00000000000E+00 0. -1.
        -11    1    1    2    0    0 -0.77831049128E+01  0.43260271464E+01  0.42595564280E+03  0.42604870715E+03  0.00000000000E+00 0. -1.
         11    1    1    2    0    0  0.27882105318E+01  0.21408218191E+02 -0.45113881988E+03  0.45165509045E+03  0.00000000000E+00 0. -1.
        -15    1    1    2    0    0  0.60360144541E+02 -0.83657838779E+01  0.64878270274E+01  0.61307283559E+02  0.17770000000E+01 0.  1.
         15    1    1    2    0    0 -0.55365250160E+02 -0.17368461459E+02  0.18695350050E+02  0.60988918839E+02  0.17770000000E+01 0. -1.
</event>
<event>
 6    1  0.1860328E-003  0.5010136E+03  0.7546771E-02  0.9397545E-01
        -11   -1    0    0    0    0  0.00000000000E+00  0.00000000000E+00  0.50000000000E+03  0.50000000000E+03  0.00000000000E+00 0.  1.
         11   -1    0    0    0    0 -0.00000000000E+00 -0.00000000000E+00 -0.50000000000E+03  0.50000000000E+03  0.00000000000E+00 0. -1.
        -11    1    1    2    0    0 -0.48419846405E+01  0.22272531194E+01  0.15561274721E+03  0.15570399020E+03  0.00000000000E+00 0.  1.
         11    1    1    2    0    0 -0.61536684596E+01  0.79634313699E+01 -0.49888491286E+03  0.49898641280E+03  0.00000000000E+00 0. -1.
        -15    1    1    2    0    0  0.71787324963E+01 -0.64758767928E+01  0.33589461967E+03  0.33603842702E+03  0.17770000000E+01 0.  1.
         15    1    1    2    0    0  0.38169206038E+01 -0.37148076965E+01  0.73775459816E+01  0.92711699816E+01  0.17770000000E+01 0. -1.
</event>
<event>
 6    1  0.1860328E-003  0.5362287E+03  0.7546771E-02  0.9322205E-01
        -11   -1    0    0    0    0  0.00000000000E+00  0.00000000000E+00  0.50000000000E+03  0.50000000000E+03  0.00000000000E+00 0.  1.
         11   -1    0    0    0    0 -0.00000000000E+00 -0.00000000000E+00 -0.50000000000E+03  0.50000000000E+03  0.00000000000E+00 0. -1.
        -11    1    1    2    0    0 -0.22928751244E+02  0.18029501949E+02  0.27547874102E+03  0.27701864076E+03  0.00000000000E+00 0.  1.
         11    1    1    2    0    0 -0.62685907017E+02  0.35154753245E+02 -0.45816855724E+03  0.46377128680E+03  0.00000000000E+00 0. -1.
        -15    1    1    2    0    0  0.74146605972E+02 -0.53775949629E+02  0.21022732843E+03  0.22932130142E+03  0.17770000000E+01 0.  1.
         15    1    1    2    0    0  0.11468052288E+02  0.59169443458E+00 -0.27537512210E+02  0.29888771024E+02  0.17770000000E+01 0. -1.
</event>
<event>
 6    1  0.1860328E-003  0.5004401E+03  0.7546771E-02  0.9398825E-01
        -11   -1    0    0    0    0  0.00000000000E+00  0.00000000000E+00  0.50000000000E+03  0.50000000000E+03  0.00000000000E+00 0.  1.
         11   -1    0    0    0    0 -0.00000000000E+00 -0.00000000000E+00 -0.50000000000E+03  0.50000000000E+03  0.00000000000E+00 0. -1.
        -11    1    1    2    0    0  0.14713650645E+01  0.39901145894E+01  0.26947111139E+03  0.26950466749E+03  0.00000000000E+00 0.  1.
         11    1    1    2    0    0  0.78015954074E+01  0.19829140442E+01 -0.49949500109E+03  0.49955985923E+03  0.00000000000E+00 0. -1.
        -15    1    1    2    0    0 -0.13109663678E+01  0.57222145901E+01  0.80420606364E+02  0.80654163127E+02  0.17770000000E+01 0. -1.
         15    1    1    2    0    0 -0.79619941041E+01 -0.11695243224E+02  0.14960328334E+03  0.15028131015E+03  0.17770000000E+01 0.  1.
</event>
<event>
 6    1  0.1860328E-003  0.5018807E+03  0.7546771E-02  0.9395611E-01
        -11   -1    0    0    0    0  0.00000000000E+00  0.00000000000E+00  0.50000000000E+03  0.50000000000E+03  0.00000000000E+00 0. -1.
         11   -1    0    0    0    0 -0.00000000000E+00 -0.00000000000E+00 -0.50000000000E+03  0.50000000000E+03  0.00000000000E+00 0. -1.
        -11    1    1    2    0    0 -0.39629116160E+01 -0.57003962821E+01  0.21004689248E+03  0.21016159551E+03  0.00000000000E+00 0. -1.
         11    1    1    2    0    0 -0.22272706362E+02 -0.22909686534E+02 -0.49709341777E+03  0.49811925598E+03  0.00000000000E+00 0. -1.
        -15    1    1    2    0    0 -0.35528514163E+01 -0.47907838107E+00  0.10027745241E+03  0.10035724917E+03  0.17770000000E+01 0.  1.
         15    1    1    2    0    0  0.29788469395E+02  0.29089161198E+02  0.18676907288E+03  0.19136189935E+03  0.17770000000E+01 0. -1.
</event>
<event>
 6    1  0.1860328E-003  0.5101006E+03  0.7546771E-02  0.9377488E-01
        -11   -1    0    0    0    0  0.00000000000E+00  0.00000000000E+00  0.50000000000E+03  0.50000000000E+03  0.00000000000E+00 0.  1.
         11   -1    0    0    0    0 -0.00000000000E+00 -0.00000000000E+00 -0.50000000000E+03  0.50000000000E+03  0.00000000000E+00 0. -1.
        -11    1    1    2    0    0 -0.52104032073E+01 -0.13403193889E+02  0.47738328991E+03  0.47759983186E+03  0.00000000000E+00 0.  1.
         11    1    1    2    0    0 -0.94304740148E+01  0.56490229241E+01 -0.48977606285E+03  0.48989941523E+03  0.00000000000E+00 0. -1.
        -15    1    1    2    0    0 -0.47673111350E+01  0.88699802533E+01  0.21256398775E+01  0.10444131321E+02  0.17770000000E+01 0. -1.
         15    1    1    2    0    0  0.19408188357E+02 -0.11158092888E+01  0.10267133067E+02  0.22056621593E+02  0.17770000000E+01 0.  1.
</event>
<event>
 6    1  0.1860328E-003  0.5063612E+03  0.7546771E-02  0.9385687E-01
        -11   -1    0    0    0    0  0.00000000000E+00  0.00000000000E+00  0.50000000000E+03  0.50000000000E+03  0.00000000000E+00 0. -1.
         11   -1    0    0    0    0 -0.00000000000E+00 -0.00000000000E+00 -0.50000000000E+03  0.50000000000E+03  0.00000000000E+00 0. -1.
        -11    1    1    2    0    0 -0.11883634496E+02  0.12246888862E+02  0.49334373014E+03  0.49363877798E+03  0.00000000000E+00 0. -1.
         11    1    1    2    0    0  0.73257234929E+01 -0.29876501587E+02 -0.31312991863E+03  0.31463727928E+03  0.00000000000E+00 0. -1.
        -15    1    1    2    0    0 -0.15816492869E+02  0.16942683222E+02 -0.16393630860E+03  0.16557622706E+03  0.17770000000E+01 0. -1.
         15    1    1    2    0    0  0.20374403872E+02  0.68692950305E+00 -0.16277502907E+02  0.26147715678E+02  0.17770000000E+01 0.  1.
</event>
<event>
 6    1  0.1860328E-003  0.5028786E+03  0.7546771E-02  0.9393392E-01
        -11   -1    0    0    0    0  0.00000000000E+00  0.00000000000E+00  0.50000000000E+03  0.50000000000E+03  0.00000000000E+00 0.  1.
         11   -1    0    0    0    0 -0.00000000000E+00 -0.00000000000E+00 -0.50000000000E+03  0.50000000000E+03  0.00000000000E+00 0.  1.
        -11    1    1    2    0    0  0.30022638766E+01  0.11881005711E+02  0.39613361773E+03  0.39632311941E+03  0.00000000000E+00 0.  1.
         11    1    1    2    0    0  0.85966937573E+01 -0.11443802095E+02 -0.49691529573E+03  0.49712138847E+03  0.00000000000E+00 0.  1.
        -15    1    1    2    0    0 -0.22521349991E+02  0.10431088018E+01  0.55795368464E+02  0.60204486148E+02  0.17770000000E+01 0. -1.
         15    1    1    2    0    0  0.10922392357E+02 -0.14803124178E+01  0.44986309531E+02  0.46351005964E+02  0.17770000000E+01 0.  1.
</event>
<event>
 6    1  0.1860328E-003  0.5070947E+03  0.7546771E-02  0.9384073E-01
        -11   -1    0    0    0    0  0.00000000000E+00  0.00000000000E+00  0.50000000000E+03  0.50000000000E+03  0.00000000000E+00 0.  1.
         11   -1    0    0    0    0 -0.00000000000E+00 -0.00000000000E+00 -0.50000000000E+03  0.50000000000E+03  0.00000000000E+00 0.  1.
        -11    1    1    2    0    0  0.21488496757E+02  0.44067398423E+00  0.49243644341E+03  0.49290526522E+03  0.00000000000E+00 0.  1.
         11    1    1    2    0    0  0.86190901389E+01  0.51021911280E+01 -0.34406336941E+03  0.34420912719E+03  0.00000000000E+00 0.  1.
        -15    1    1    2    0    0 -0.36855858195E+02 -0.14489361211E+02 -0.49751057392E+02  0.63613059290E+02  0.17770000000E+01 0.  1.
         15    1    1    2    0    0  0.67482712990E+01  0.89464960988E+01 -0.98622016605E+02  0.99272548301E+02  0.17770000000E+01 0. -1.
</event>
<event>
 6    1  0.1860328E-003  0.5168837E+03  0.7546771E-02  0.9362804E-01
        -11   -1    0    0    0    0  0.00000000000E+00  0.00000000000E+00  0.50000000000E+03  0.50000000000E+03  0.00000000000E+00 0. -1.
         11   -1    0    0    0    0 -0.00000000000E+00 -0.00000000000E+00 -0.50000000000E+03  0.50000000000E+03  0.00000000000E+00 0. -1.
        -11    1    1    2    0    0  0.65935333234E+00 -0.66758648771E+01  0.48306977279E+03  0.48311634965E+03  0.00000000000E+00 0. -1.
         11    1    1    2    0    0  0.63821675933E+01 -0.23296967148E+01 -0.47318380681E+03  0.47323257979E+03  0.00000000000E+00 0. -1.
        -15    1    1    2    0    0  0.11663302011E+02  0.71440846180E+00  0.96861128003E+01  0.15281410387E+02  0.17770000000E+01 0. -1.
         15    1    1    2    0    0 -0.18704822936E+02  0.82911531301E+01 -0.19572078778E+02  0.28369660167E+02  0.17770000000E+01 0.  1.
</event>
<event>
 6    1  0.1860328E-003  0.5025221E+03  0.7546771E-02  0.9394184E-01
        -11   -1    0    0    0    0  0.00000000000E+00  0.00000000000E+00  0.50000000000E+03  0.50000000000E+03  0.00000000000E+00 0.  1.
         11   -1    0    0    0    0 -0.00000000000E+00 -0.00000000000E+00 -0.50000000000E+03  0.50000000000E+03  0.00000000000E+00 0. -1.
        -11    1    1    2    0    0  0.39592811846E+01  0.73777917912E+00  0.29696295078E+03  0.29699025971E+03  0.00000000000E+00 0.  1.
         11    1    1    2    0    0  0.12084399110E+02 -0.15236625385E+02 -0.49709763883E+03  0.49747788894E+03  0.00000000000E+00 0. -1.
        -15    1    1    2    0    0  0.12054170749E+01 -0.34533012022E+00  0.15441857715E+03  0.15443389195E+03  0.17770000000E+01 0. -1.
         15    1    1    2    0    0 -0.17249097370E+02  0.14844176326E+02  0.45716110898E+02  0.51097959407E+02  0.17770000000E+01 0.  1.
</event>
<event>
 6    1  0.1860328E-003  0.5089525E+03  0.7546771E-02  0.9379998E-01
        -11   -1    0    0    0    0  0.00000000000E+00  0.00000000000E+00  0.50000000000E+03  0.50000000000E+03  0.00000000000E+00 0. -1.
         11   -1    0    0    0    0 -0.00000000000E+00 -0.00000000000E+00 -0.50000000000E+03  0.50000000000E+03  0.00000000000E+00 0. -1.
        -11    1    1    2    0    0  0.36444677971E+02  0.35259724182E+02  0.48842209881E+03  0.49104746136E+03  0.00000000000E+00 0. -1.
         11    1    1    2    0    0  0.51479882145E+01 -0.55010802958E+01 -0.40261745115E+03  0.40268793828E+03  0.00000000000E+00 0. -1.
        -15    1    1    2    0    0 -0.39123576667E+02 -0.33933215695E+02 -0.57138461831E+02  0.77136754715E+02  0.17770000000E+01 0.  1.
         15    1    1    2    0    0 -0.24690895184E+01  0.41745718091E+01 -0.28666185830E+02  0.29127845644E+02  0.17770000000E+01 0. -1.
</event>
<event>
 6    1  0.1860328E-003  0.5191724E+03  0.7546771E-02  0.9357903E-01
        -11   -1    0    0    0    0  0.00000000000E+00  0.00000000000E+00  0.50000000000E+03  0.50000000000E+03  0.00000000000E+00 0. -1.
         11   -1    0    0    0    0 -0.00000000000E+00 -0.00000000000E+00 -0.50000000000E+03  0.50000000000E+03  0.00000000000E+00 0.  1.
        -11    1    1    2    0    0 -0.58271548326E+01 -0.11666652683E+02  0.47091308915E+03  0.47109362556E+03  0.00000000000E+00 0. -1.
         11    1    1    2    0    0 -0.70023811918E+01  0.73603590233E+01 -0.48072025607E+03  0.48082759158E+03  0.00000000000E+00 0.  1.
        -15    1    1    2    0    0  0.11424266693E+02 -0.74517996014E+01 -0.15110345633E+02  0.20433390833E+02  0.17770000000E+01 0. -1.
         15    1    1    2    0    0  0.14052693318E+01  0.11758093261E+02  0.24917512559E+02  0.27645392024E+02  0.17770000000E+01 0.  1.
</event>
<event>
 6    1  0.1860328E-003  0.5176057E+03  0.7546771E-02  0.9361255E-01
        -11   -1    0    0    0    0  0.00000000000E+00  0.00000000000E+00  0.50000000000E+03  0.50000000000E+03  0.00000000000E+00 0. -1.
         11   -1    0    0    0    0 -0.00000000000E+00 -0.00000000000E+00 -0.50000000000E+03  0.50000000000E+03  0.00000000000E+00 0.  1.
        -11    1    1    2    0    0 -0.82186213328E+01  0.41465396809E+01  0.48230642026E+03  0.48239426049E+03  0.00000000000E+00 0. -1.
         11    1    1    2    0    0 -0.13239745821E+02  0.18659353340E+01 -0.46153276469E+03  0.46172639676E+03  0.00000000000E+00 0.  1.
        -15    1    1    2    0    0 -0.21656920260E+01 -0.12859668281E+02 -0.27354411317E+02  0.30355935791E+02  0.17770000000E+01 0.  1.
         15    1    1    2    0    0  0.23624059180E+02  0.68471932660E+01  0.65807557454E+01  0.25523406962E+02  0.17770000000E+01 0. -1.
</event>
<event>
 6    1  0.1860328E-003  0.5073428E+03  0.7546771E-02  0.9383528E-01
        -11   -1    0    0    0    0  0.00000000000E+00  0.00000000000E+00  0.50000000000E+03  0.50000000000E+03  0.00000000000E+00 0.  1.
         11   -1    0    0    0    0 -0.00000000000E+00 -0.00000000000E+00 -0.50000000000E+03  0.50000000000E+03  0.00000000000E+00 0.  1.
        -11    1    1    2    0    0 -0.67293872562E+01  0.45608493660E+01  0.48571090029E+03  0.48577892570E+03  0.00000000000E+00 0.  1.
         11    1    1    2    0    0  0.57306751980E+01  0.63360722458E+01 -0.49258314722E+03  0.49265722707E+03  0.00000000000E+00 0.  1.
        -15    1    1    2    0    0 -0.77928544158E+01 -0.67978627576E+01  0.25592990329E+01  0.10800336039E+02  0.17770000000E+01 0. -1.
         15    1    1    2    0    0  0.87915664739E+01 -0.40990588542E+01  0.43129479047E+01  0.10763511192E+02  0.17770000000E+01 0.  1.
</event>
<event>
 6    1  0.1860328E-003  0.5012807E+03  0.7546771E-02  0.9396949E-01
        -11   -1    0    0    0    0  0.00000000000E+00  0.00000000000E+00  0.50000000000E+03  0.50000000000E+03  0.00000000000E+00 0.  1.
         11   -1    0    0    0    0 -0.00000000000E+00 -0.00000000000E+00 -0.50000000000E+03  0.50000000000E+03  0.00000000000E+00 0. -1.
        -11    1    1    2    0    0 -0.32736313390E+00 -0.11179954534E+02  0.49859385595E+03  0.49871929153E+03  0.00000000000E+00 0.  1.
         11    1    1    2    0    0  0.10649471974E+02  0.72112213338E+01 -0.41251582728E+03  0.41271627145E+03  0.00000000000E+00 0. -1.
        -15    1    1    2    0    0  0.13843515578E+00  0.84763702470E+01 -0.48158337895E+02  0.48931086793E+02  0.17770000000E+01 0. -1.
         15    1    1    2    0    0 -0.10460543996E+02 -0.45076370467E+01 -0.37919690781E+02  0.39633350229E+02  0.17770000000E+01 0.  1.
</event>
<event>
 6    1  0.1860328E-003  0.4843802E+03  0.7546771E-02  0.9435455E-01
        -11   -1    0    0    0    0  0.00000000000E+00  0.00000000000E+00  0.50000000000E+03  0.50000000000E+03  0.00000000000E+00 0. -1.
         11   -1    0    0    0    0 -0.00000000000E+00 -0.00000000000E+00 -0.50000000000E+03  0.50000000000E+03  0.00000000000E+00 0. -1.
        -11    1    1    2    0    0 -0.31833542881E+01 -0.11497011122E+02  0.48149496416E+03  0.48164272601E+03  0.00000000000E+00 0. -1.
         11    1    1    2    0    0 -0.51726025432E+01  0.47065799069E+01 -0.48714376213E+03  0.48719395798E+03  0.00000000000E+00 0. -1.
        -15    1    1    2    0    0 -0.21551268839E+01  0.15019356405E+02 -0.24153024663E+01  0.15466643259E+02  0.17770000000E+01 0. -1.
         15    1    1    2    0    0  0.10511083715E+02 -0.82289251890E+01  0.80641004328E+01  0.15696672750E+02  0.17770000000E+01 0.  1.
</event>
<event>
 6    1  0.1860328E-003  0.5182305E+03  0.7546771E-02  0.9359917E-01
        -11   -1    0    0    0    0  0.00000000000E+00  0.00000000000E+00  0.50000000000E+03  0.50000000000E+03  0.00000000000E+00 0. -1.
         11   -1    0    0    0    0 -0.00000000000E+00 -0.00000000000E+00 -0.50000000000E+03  0.50000000000E+03  0.00000000000E+00 0. -1.
        -11    1    1    2    0    0  0.22065758025E+01 -0.12656540876E+02  0.48159819913E+03  0.48176953246E+03  0.00000000000E+00 0. -1.
         11    1    1    2    0    0  0.20030706224E+02 -0.98155201273E+01 -0.37986948053E+03  0.38052384402E+03  0.00000000000E+00 0. -1.
        -15    1    1    2    0    0 -0.37854358036E+01  0.18312915402E+02  0.12073335062E+02  0.22329700922E+02  0.17770000000E+01 0. -1.
         15    1    1    2    0    0 -0.18451846222E+02  0.41591456017E+01 -0.11380205366E+03  0.11537692259E+03  0.17770000000E+01 0. -1.
</event>
<event>
 6    1  0.1860328E-003  0.5334220E+03  0.7546771E-02  0.9327982E-01
        -11   -1    0    0    0    0  0.00000000000E+00  0.00000000000E+00  0.50000000000E+03  0.50000000000E+03  0.00000000000E+00 0.  1.
         11   -1    0    0    0    0 -0.00000000000E+00 -0.00000000000E+00 -0.50000000000E+03  0.50000000000E+03  0.00000000000E+00 0.  1.
        -11    1    1    2    0    0  0.11528568210E+02 -0.52758199596E+01  0.46640572405E+03  0.46657801233E+03  0.00000000000E+00 0.  1.
         11    1    1    2    0    0  0.43252519896E+01 -0.49859039369E+01 -0.42507980943E+03  0.42513105206E+03  0.00000000000E+00 0.  1.
        -15    1    1    2    0    0 -0.41490816819E+01 -0.52587079195E+01 -0.71782211457E+02  0.72115965628E+02  0.17770000000E+01 0. -1.
         15    1    1    2    0    0 -0.11704738518E+02  0.15520431816E+02  0.30456296836E+02  0.36174969986E+02  0.17770000000E+01 0.  1.
</event>
<event>
 6    1  0.1860328E-003  0.5020149E+03  0.7546771E-02  0.9395312E-01
        -11   -1    0    0    0    0  0.00000000000E+00  0.00000000000E+00  0.50000000000E+03  0.50000000000E+03  0.00000000000E+00 0. -1.
         11   -1    0    0    0    0 -0.00000000000E+00 -0.00000000000E+00 -0.50000000000E+03  0.50000000000E+03  0.00000000000E+00 0.  1.
        -11    1    1    2    0    0  0.85759179927E+01 -0.36411777802E+01  0.42873249970E+03  0.42883372167E+03  0.00000000000E+00 0. -1.
         11    1    1    2    0    0 -0.25789094967E+01  0.77071035003E+01 -0.49791877707E+03  0.49798509895E+03  0.00000000000E+00 0.  1.
        -15    1    1    2    0    0 -0.33156247783E+01 -0.94798154247E+01  0.12439267202E+02  0.16085812559E+02  0.17770000000E+01 0.  1.
         15    1    1    2    0    0 -0.26813837178E+01  0.54138897046E+01  0.56747010168E+02  0.57095366820E+02  0.17770000000E+01 0. -1.
</event>
<event>
 6    1  0.1860328E-003  0.5074666E+03  0.7546771E-02  0.9383256E-01
        -11   -1    0    0    0    0  0.00000000000E+00  0.00000000000E+00  0.50000000000E+03  0.50000000000E+03  0.00000000000E+00 0.  1.
         11   -1    0    0    0    0 -0.00000000000E+00 -0.00000000000E+00 -0.50000000000E+03  0.50000000000E+03  0.00000000000E+00 0.  1.
        -11    1    1    2    0    0 -0.46809595171E+01 -0.53019073720E+01  0.49248265838E+03  0.49253344091E+03  0.00000000000E+00 0.  1.
         11    1    1    2    0    0 -0.71624678752E+01 -0.31205807292E+00 -0.47033907211E+03  0.47039370858E+03  0.00000000000E+00 0.  1.
        -15    1    1    2    0    0 -0.40932332445E+01 -0.55991880798E+01 -0.14299940191E+02  0.15992231990E+02  0.17770000000E+01 0. -1.
         15    1    1    2    0    0  0.15936660637E+02  0.11213153525E+02 -0.78436460857E+01  0.21080618519E+02  0.17770000000E+01 0.  1.
</event>
<event>
 6    1  0.1860328E-003  0.5023626E+03  0.7546771E-02  0.9394539E-01
        -11   -1    0    0    0    0  0.00000000000E+00  0.00000000000E+00  0.50000000000E+03  0.50000000000E+03  0.00000000000E+00 0. -1.
         11   -1    0    0    0    0 -0.00000000000E+00 -0.00000000000E+00 -0.50000000000E+03  0.50000000000E+03  0.00000000000E+00 0.  1.
        -11    1    1    2    0    0  0.53945227908E+01 -0.30117776419E+01  0.43073626036E+03  0.43078056788E+03  0.00000000000E+00 0. -1.
         11    1    1    2    0    0  0.13568223934E+02  0.11529166751E+02 -0.49731872743E+03  0.49763735294E+03  0.00000000000E+00 0.  1.
        -15    1    1    2    0    0 -0.44852410426E+01 -0.29878700458E+00  0.26885125203E+01  0.55310477720E+01  0.17770000000E+01 0.  1.
         15    1    1    2    0    0 -0.14477505682E+02 -0.82186021045E+01  0.63893954558E+02  0.66051031402E+02  0.17770000000E+01 0. -1.
</event>
<event>
 6    1  0.1860328E-003  0.5014338E+03  0.7546771E-02  0.9396607E-01
        -11   -1    0    0    0    0  0.00000000000E+00  0.00000000000E+00  0.50000000000E+03  0.50000000000E+03  0.00000000000E+00 0. -1.
         11   -1    0    0    0    0 -0.00000000000E+00 -0.00000000000E+00 -0.50000000000E+03  0.50000000000E+03  0.00000000000E+00 0.  1.
        -11    1    1    2    0    0 -0.48898178904E+01 -0.86882525250E+01  0.49846651269E+03  0.49856620456E+03  0.00000000000E+00 0. -1.
         11    1    1    2    0    0 -0.43812237956E+01 -0.41556116067E+01 -0.33240788181E+03  0.33246272591E+03  0.00000000000E+00 0.  1.
        -15    1    1    2    0    0  0.86857270285E+01  0.90276001942E+01 -0.26686592966E+02  0.29534241016E+02  0.17770000000E+01 0. -1.
         15    1    1    2    0    0  0.58531465750E+00  0.38162639375E+01 -0.13937203792E+03  0.13943682852E+03  0.17770000000E+01 0.  1.
</event>
<event>
 6    1  0.1860328E-003  0.5033791E+03  0.7546771E-02  0.9392280E-01
        -11   -1    0    0    0    0  0.00000000000E+00  0.00000000000E+00  0.50000000000E+03  0.50000000000E+03  0.00000000000E+00 0. -1.
         11   -1    0    0    0    0 -0.00000000000E+00 -0.00000000000E+00 -0.50000000000E+03  0.50000000000E+03  0.00000000000E+00 0.  1.
        -11    1    1    2    0    0  0.14309299739E+02 -0.44953307539E+01  0.31939317444E+03  0.31974515468E+03  0.00000000000E+00 0. -1.
         11    1    1    2    0    0 -0.15836829817E+02 -0.19920399658E+02 -0.49596842371E+03  0.49662088641E+03  0.00000000000E+00 0.  1.
        -15    1    1    2    0    0  0.92863246934E+01  0.20338636080E+02  0.33713944440E+02  0.40493008318E+02  0.17770000000E+01 0. -1.
         15    1    1    2    0    0 -0.77587946157E+01  0.40770943319E+01  0.14286130483E+03  0.14314095060E+03  0.17770000000E+01 0.  1.
</event>
<event>
 6    1  0.1860328E-003  0.5063578E+03  0.7546771E-02  0.9385695E-01
        -11   -1    0    0    0    0  0.00000000000E+00  0.00000000000E+00  0.50000000000E+03  0.50000000000E+03  0.00000000000E+00 0. -1.
         11   -1    0    0    0    0 -0.00000000000E+00 -0.00000000000E+00 -0.50000000000E+03  0.50000000000E+03  0.00000000000E+00 0.  1.
        -11    1    1    2    0    0 -0.12216467534E+02 -0.37153828298E+01  0.49347700403E+03  0.49364217775E+03  0.00000000000E+00 0. -1.
         11    1    1    2    0    0  0.10002080296E+02 -0.54934632291E+01 -0.39710864493E+03  0.39727257095E+03  0.00000000000E+00 0.  1.
        -15    1    1    2    0    0 -0.89445426704E+01 -0.38358708689E+01 -0.90225746881E+02  0.90766523995E+02  0.17770000000E+01 0. -1.
         15    1    1    2    0    0  0.11158929908E+02  0.13044716928E+02 -0.61426122162E+01  0.18318727310E+02  0.17770000000E+01 0.  1.
</event>
<event>
 6    1  0.1860328E-003  0.4900607E+03  0.7546771E-02  0.9422328E-01
        -11   -1    0    0    0    0  0.00000000000E+00  0.00000000000E+00  0.50000000000E+03  0.50000000000E+03  0.00000000000E+00 0.  1.
         11   -1    0    0    0    0 -0.00000000000E+00 -0.00000000000E+00 -0.50000000000E+03  0.50000000000E+03  0.00000000000E+00 0. -1.
        -11    1    1    2    0    0  0.17037165535E+01  0.17544310781E+02  0.49023726337E+03  0.49055405399E+03  0.00000000000E+00 0.  1.
         11    1    1    2    0    0 -0.49310530332E+01 -0.49083451295E+01 -0.48960495810E+03  0.48965439049E+03  0.00000000000E+00 0. -1.
        -15    1    1    2    0    0  0.61311621600E+01 -0.10857278224E+02  0.45057138290E+01  0.13376502756E+02  0.17770000000E+01 0.  1.
         15    1    1    2    0    0 -0.29038256803E+01 -0.17786874280E+01 -0.51380191036E+01  0.64150527556E+01  0.17770000000E+01 0. -1.
</event>
<event>
 6    1  0.1860328E-003  0.5002553E+03  0.7546771E-02  0.9399239E-01
        -11   -1    0    0    0    0  0.00000000000E+00  0.00000000000E+00  0.50000000000E+03  0.50000000000E+03  0.00000000000E+00 0.  1.
         11   -1    0    0    0    0 -0.00000000000E+00 -0.00000000000E+00 -0.50000000000E+03  0.50000000000E+03  0.00000000000E+00 0. -1.
        -11    1    1    2    0    0  0.74843806301E+00 -0.77105132646E+01  0.49968467761E+03  0.49974472405E+03  0.00000000000E+00 0.  1.
         11    1    1    2    0    0  0.24116364445E+01 -0.49477130809E+01 -0.23985635734E+03  0.23991950319E+03  0.00000000000E+00 0. -1.
        -15    1    1    2    0    0 -0.59804537802E+01  0.10323218985E+02 -0.20681941609E+03  0.20717085528E+03  0.17770000000E+01 0. -1.
         15    1    1    2    0    0  0.28203792727E+01  0.23350073609E+01 -0.53008904180E+02  0.53164917474E+02  0.17770000000E+01 0.  1.
</event>
<event>
 6    1  0.1860328E-003  0.5031247E+03  0.7546771E-02  0.9392845E-01
        -11   -1    0    0    0    0  0.00000000000E+00  0.00000000000E+00  0.50000000000E+03  0.50000000000E+03  0.00000000000E+00 0.  1.
         11   -1    0    0    0    0 -0.00000000000E+00 -0.00000000000E+00 -0.50000000000E+03  0.50000000000E+03  0.00000000000E+00 0. -1.
        -11    1    1    2    0    0  0.89538591728E+01 -0.11630842438E+02  0.49665845816E+03  0.49687530846E+03  0.00000000000E+00 0.  1.
         11    1    1    2    0    0  0.10186811444E+02  0.95374972026E+01 -0.45623098723E+03  0.45644435443E+03  0.00000000000E+00 0. -1.
        -15    1    1    2    0    0 -0.12086322069E+02 -0.21979050007E+01 -0.12966615701E+02  0.17949953183E+02  0.17770000000E+01 0. -1.
         15    1    1    2    0    0 -0.70543485486E+01  0.42912502362E+01 -0.27460855227E+02  0.28730383931E+02  0.17770000000E+01 0.  1.
</event>
<event>
 6    1  0.1860328E-003  0.5150127E+03  0.7546771E-02  0.9366830E-01
        -11   -1    0    0    0    0  0.00000000000E+00  0.00000000000E+00  0.50000000000E+03  0.50000000000E+03  0.00000000000E+00 0. -1.
         11   -1    0    0    0    0 -0.00000000000E+00 -0.00000000000E+00 -0.50000000000E+03  0.50000000000E+03  0.00000000000E+00 0.  1.
        -11    1    1    2    0    0 -0.12296331854E+02 -0.15857603794E+02  0.45682006961E+03  0.45726058148E+03  0.00000000000E+00 0. -1.
         11    1    1    2    0    0  0.14049956471E+02  0.32232703271E+02 -0.48371104890E+03  0.48498734753E+03  0.00000000000E+00 0.  1.
        -15    1    1    2    0    0  0.76153282064E+01 -0.14034905008E+02 -0.10433994577E+02  0.19157185443E+02  0.17770000000E+01 0. -1.
         15    1    1    2    0    0 -0.93689528232E+01 -0.23401944689E+01  0.37324973863E+02  0.38594885542E+02  0.17770000000E+01 0.  1.
</event>
<event>
 6    1  0.1860328E-003  0.5239797E+03  0.7546771E-02  0.9347696E-01
        -11   -1    0    0    0    0  0.00000000000E+00  0.00000000000E+00  0.50000000000E+03  0.50000000000E+03  0.00000000000E+00 0.  1.
         11   -1    0    0    0    0 -0.00000000000E+00 -0.00000000000E+00 -0.50000000000E+03  0.50000000000E+03  0.00000000000E+00 0. -1.
        -11    1    1    2    0    0 -0.12563838681E+02  0.91731948758E+01  0.42213111805E+03  0.42241765869E+03  0.00000000000E+00 0.  1.
         11    1    1    2    0    0  0.20157514895E+01  0.66616815663E+01 -0.47596942118E+03  0.47602030540E+03  0.00000000000E+00 0. -1.
        -15    1    1    2    0    0 -0.85448842534E+01 -0.42036216303E+02  0.54134106370E+02  0.69092095998E+02  0.17770000000E+01 0. -1.
         15    1    1    2    0    0  0.19092971445E+02  0.26201339861E+02 -0.29580324039E+00  0.32469939908E+02  0.17770000000E+01 0.  1.
</event>
<event>
 6    1  0.1860328E-003  0.4672828E+03  0.7546771E-02  0.9476148E-01
        -11   -1    0    0    0    0  0.00000000000E+00  0.00000000000E+00  0.50000000000E+03  0.50000000000E+03  0.00000000000E+00 0.  1.
         11   -1    0    0    0    0 -0.00000000000E+00 -0.00000000000E+00 -0.50000000000E+03  0.50000000000E+03  0.00000000000E+00 0. -1.
        -11    1    1    2    0    0  0.14394936582E+02  0.19692431526E+02  0.46934511401E+03  0.46997855494E+03  0.00000000000E+00 0.  1.
         11    1    1    2    0    0 -0.20603869089E+02 -0.33326148849E+01 -0.46429560564E+03  0.46476449430E+03  0.00000000000E+00 0. -1.
        -15    1    1    2    0    0  0.30335321779E+02 -0.37597743952E+01 -0.17506748673E+02  0.35270549032E+02  0.17770000000E+01 0.  1.
         15    1    1    2    0    0 -0.24126389273E+02 -0.12600042246E+02  0.12457240307E+02  0.29986401735E+02  0.17770000000E+01 0. -1.
</event>
<event>
 6    1  0.1860328E-003  0.5065205E+03  0.7546771E-02  0.9385337E-01
        -11   -1    0    0    0    0  0.00000000000E+00  0.00000000000E+00  0.50000000000E+03  0.50000000000E+03  0.00000000000E+00 0.  1.
         11   -1    0    0    0    0 -0.00000000000E+00 -0.00000000000E+00 -0.50000000000E+03  0.50000000000E+03  0.00000000000E+00 0.  1.
        -11    1    1    2    0    0 -0.73424327278E+01 -0.14051046570E+02  0.49322479500E+03  0.49347952504E+03  0.00000000000E+00 0.  1.
         11    1    1    2    0    0 -0.16811852947E+00 -0.66590534586E+01 -0.41046794691E+03  0.41052199295E+03  0.00000000000E+00 0.  1.
        -15    1    1    2    0    0  0.11234976156E+02 -0.10799305984E+02 -0.37977511272E+02  0.41088913229E+02  0.17770000000E+01 0.  1.
         15    1    1    2    0    0 -0.37244248990E+01  0.31509406013E+02 -0.44779336823E+02  0.54909568779E+02  0.17770000000E+01 0. -1.
</event>
<event>
 6    1  0.1860328E-003  0.5260205E+03  0.7546771E-02  0.9343398E-01
        -11   -1    0    0    0    0  0.00000000000E+00  0.00000000000E+00  0.50000000000E+03  0.50000000000E+03  0.00000000000E+00 0. -1.
         11   -1    0    0    0    0 -0.00000000000E+00 -0.00000000000E+00 -0.50000000000E+03  0.50000000000E+03  0.00000000000E+00 0.  1.
        -11    1    1    2    0    0 -0.99823193780E+01  0.47995743105E+01  0.47385002513E+03  0.47397946045E+03  0.00000000000E+00 0. -1.
         11    1    1    2    0    0 -0.63477246418E+01 -0.38764264311E+01 -0.46024316613E+03  0.46030326118E+03  0.00000000000E+00 0.  1.
        -15    1    1    2    0    0  0.33074845121E+02 -0.10840779797E+02  0.88403126434E+01  0.35955204672E+02  0.17770000000E+01 0.  1.
         15    1    1    2    0    0 -0.16744801102E+02  0.99176319173E+01 -0.22447171646E+02  0.29762073696E+02  0.17770000000E+01 0. -1.
</event>
<event>
 6    1  0.1860328E-003  0.4606182E+03  0.7546771E-02  0.9492515E-01
        -11   -1    0    0    0    0  0.00000000000E+00  0.00000000000E+00  0.50000000000E+03  0.50000000000E+03  0.00000000000E+00 0.  1.
         11   -1    0    0    0    0 -0.00000000000E+00 -0.00000000000E+00 -0.50000000000E+03  0.50000000000E+03  0.00000000000E+00 0. -1.
        -11    1    1    2    0    0 -0.13479950500E+02  0.13683480898E+02  0.46309266916E+03  0.46349084882E+03  0.00000000000E+00 0.  1.
         11    1    1    2    0    0 -0.16671623486E+02 -0.97641140439E+00 -0.45803600047E+03  0.45834034749E+03  0.00000000000E+00 0. -1.
        -15    1    1    2    0    0  0.26500854602E+02  0.17043260247E+02 -0.26551374999E+02  0.41241984164E+02  0.17770000000E+01 0.  1.
         15    1    1    2    0    0  0.36507193840E+01 -0.29750329740E+02  0.21494706313E+02  0.36926819524E+02  0.17770000000E+01 0. -1.
</event>
<event>
 6    1  0.1860328E-003  0.5009801E+03  0.7546771E-02  0.9397619E-01
        -11   -1    0    0    0    0  0.00000000000E+00  0.00000000000E+00  0.50000000000E+03  0.50000000000E+03  0.00000000000E+00 0.  1.
         11   -1    0    0    0    0 -0.00000000000E+00 -0.00000000000E+00 -0.50000000000E+03  0.50000000000E+03  0.00000000000E+00 0.  1.
        -11    1    1    2    0    0  0.33965279709E+01 -0.28874666426E+01  0.65838371377E+02  0.65989127979E+02  0.00000000000E+00 0.  1.
         11    1    1    2    0    0 -0.74559869745E+01  0.41258800364E+01 -0.49894715145E+03  0.49901991400E+03  0.00000000000E+00 0.  1.
        -15    1    1    2    0    0  0.13802939736E+02 -0.11928422516E+02  0.10713903325E+03  0.10869562357E+03  0.17770000000E+01 0.  1.
         15    1    1    2    0    0 -0.97434807327E+01  0.10690009122E+02  0.32596974682E+03  0.32629533445E+03  0.17770000000E+01 0. -1.
</event>
<event>
 6    1  0.1860328E-003  0.5028682E+03  0.7546771E-02  0.9393415E-01
        -11   -1    0    0    0    0  0.00000000000E+00  0.00000000000E+00  0.50000000000E+03  0.50000000000E+03  0.00000000000E+00 0. -1.
         11   -1    0    0    0    0 -0.00000000000E+00 -0.00000000000E+00 -0.50000000000E+03  0.50000000000E+03  0.00000000000E+00 0. -1.
        -11    1    1    2    0    0 -0.23720301962E+01 -0.60831656699E+01  0.30194772129E+03  0.30201830710E+03  0.00000000000E+00 0. -1.
         11    1    1    2    0    0 -0.25056717301E+02 -0.36022709104E+01 -0.49648682849E+03  0.49713175950E+03  0.00000000000E+00 0. -1.
        -15    1    1    2    0    0  0.25825637644E+02  0.62351928063E+01  0.53611352091E+02  0.59859635741E+02  0.17770000000E+01 0.  1.
         15    1    1    2    0    0  0.16031098530E+01  0.34502437740E+01  0.14092775511E+03  0.14099029766E+03  0.17770000000E+01 0. -1.
</event>
<event>
 6    1  0.1860328E-003  0.5033457E+03  0.7546771E-02  0.9392354E-01
        -11   -1    0    0    0    0  0.00000000000E+00  0.00000000000E+00  0.50000000000E+03  0.50000000000E+03  0.00000000000E+00 0. -1.
         11   -1    0    0    0    0 -0.00000000000E+00 -0.00000000000E+00 -0.50000000000E+03  0.50000000000E+03  0.00000000000E+00 0. -1.
        -11    1    1    2    0    0  0.61286237142E+01 -0.60561951358E+01  0.44472201592E+03  0.44480547318E+03  0.00000000000E+00 0. -1.
         11    1    1    2    0    0 -0.19568913523E+01 -0.66764673005E+01 -0.49660554575E+03  0.49665427886E+03  0.00000000000E+00 0. -1.
        -15    1    1    2    0    0 -0.49217540893E+01  0.60882572878E+01  0.21269554466E+01  0.83049508481E+01  0.17770000000E+01 0.  1.
         15    1    1    2    0    0  0.75002172744E+00  0.66444051485E+01  0.49756574384E+02  0.50235297110E+02  0.17770000000E+01 0. -1.
</event>
<event>
 6    1  0.1860328E-003  0.5049715E+03  0.7546771E-02  0.9388754E-01
        -11   -1    0    0    0    0  0.00000000000E+00  0.00000000000E+00  0.50000000000E+03  0.50000000000E+03  0.00000000000E+00 0. -1.
         11   -1    0    0    0    0 -0.00000000000E+00 -0.00000000000E+00 -0.50000000000E+03  0.50000000000E+03  0.00000000000E+00 0. -1.
        -11    1    1    2    0    0 -0.57498341396E+01  0.33908290552E+01  0.49498346458E+03  0.49502847243E+03  0.00000000000E+00 0. -1.
         11    1    1    2    0    0  0.11817390099E+01  0.67987770955E+01 -0.48354655353E+03  0.48359579124E+03  0.00000000000E+00 0. -1.
        -15    1    1    2    0    0  0.31359801296E+01 -0.10246332695E+02 -0.14144681174E+02  0.17833996736E+02  0.17770000000E+01 0.  1.
         15    1    1    2    0    0  0.14321150001E+01  0.56726544174E-01  0.27077701271E+01  0.35417395917E+01  0.17770000000E+01 0. -1.
</event>
<event>
 6    1  0.1860328E-003  0.4845996E+03  0.7546771E-02  0.9434944E-01
        -11   -1    0    0    0    0  0.00000000000E+00  0.00000000000E+00  0.50000000000E+03  0.50000000000E+03  0.00000000000E+00 0. -1.
         11   -1    0    0    0    0 -0.00000000000E+00 -0.00000000000E+00 -0.50000000000E+03  0.50000000000E+03  0.00000000000E+00 0.  1.
        -11    1    1    2    0    0 -0.11986322062E+02  0.34391008092E+01  0.48608155718E+03  0.48624148276E+03  0.00000000000E+00 0. -1.
         11    1    1    2    0    0  0.47601060356E+01 -0.65431618033E+01 -0.48292696652E+03  0.48299474797E+03  0.00000000000E+00 0.  1.
        -15    1    1    2    0    0  0.10781982526E+01  0.78370383633E+01 -0.14672137236E+02  0.16763383365E+02  0.17770000000E+01 0.  1.
         15    1    1    2    0    0  0.61480177741E+01 -0.47329773692E+01  0.11517546575E+02  0.14000385903E+02  0.17770000000E+01 0.  1.
</event>
<event>
 6    1  0.1860328E-003  0.5024385E+03  0.7546771E-02  0.9394370E-01
        -11   -1    0    0    0    0  0.00000000000E+00  0.00000000000E+00  0.50000000000E+03  0.50000000000E+03  0.00000000000E+00 0.  1.
         11   -1    0    0    0    0 -0.00000000000E+00 -0.00000000000E+00 -0.50000000000E+03  0.50000000000E+03  0.00000000000E+00 0. -1.
        -11    1    1    2    0    0 -0.39830058407E+01 -0.10792069697E+02  0.49742847137E+03  0.49756147081E+03  0.00000000000E+00 0.  1.
         11    1    1    2    0    0  0.19776025670E+02  0.41030360816E+01 -0.22837959971E+03  0.22927094814E+03  0.00000000000E+00 0. -1.
        -15    1    1    2    0    0 -0.24759489925E+02  0.36394515995E-01 -0.24830741866E+03  0.24954511728E+03  0.17770000000E+01 0. -1.
         15    1    1    2    0    0  0.89664700960E+01  0.66526390991E+01 -0.20741453007E+02  0.23622463775E+02  0.17770000000E+01 0.  1.
</event>
<event>
 6    1  0.1860328E-003  0.5177515E+03  0.7546771E-02  0.9360943E-01
        -11   -1    0    0    0    0  0.00000000000E+00  0.00000000000E+00  0.50000000000E+03  0.50000000000E+03  0.00000000000E+00 0. -1.
         11   -1    0    0    0    0 -0.00000000000E+00 -0.00000000000E+00 -0.50000000000E+03  0.50000000000E+03  0.00000000000E+00 0.  1.
        -11    1    1    2    0    0 -0.27999757882E+02  0.14252097668E+02  0.48122399073E+03  0.48224852305E+03  0.00000000000E+00 0. -1.
         11    1    1    2    0    0 -0.14365712185E+02 -0.40409777564E+01 -0.36687679511E+03  0.36718018190E+03  0.00000000000E+00 0.  1.
        -15    1    1    2    0    0  0.14084512081E+02  0.65375010824E+01 -0.11653871305E+03  0.11758206398E+03  0.17770000000E+01 0. -1.
         15    1    1    2    0    0  0.28280957986E+02 -0.16748620994E+02  0.21915174289E+01  0.32989231083E+02  0.17770000000E+01 0. -1.
</event>
<event>
 6    1  0.1860328E-003  0.5162992E+03  0.7546771E-02  0.9364060E-01
        -11   -1    0    0    0    0  0.00000000000E+00  0.00000000000E+00  0.50000000000E+03  0.50000000000E+03  0.00000000000E+00 0. -1.
         11   -1    0    0    0    0 -0.00000000000E+00 -0.00000000000E+00 -0.50000000000E+03  0.50000000000E+03  0.00000000000E+00 0.  1.
        -11    1    1    2    0    0  0.53809331290E+01 -0.79576653451E+01  0.43650750370E+03  0.43661319227E+03  0.00000000000E+00 0. -1.
         11    1    1    2    0    0 -0.50439562037E+01  0.89694135997E+01 -0.48359137404E+03  0.48370084652E+03  0.00000000000E+00 0.  1.
        -15    1    1    2    0    0 -0.16416275982E+02 -0.11863366094E+01  0.57903321470E+02  0.60223366544E+02  0.17770000000E+01 0.  1.
         15    1    1    2    0    0  0.16079299057E+02  0.17458835479E+00 -0.10819451131E+02  0.19462594663E+02  0.17770000000E+01 0. -1.
</event>
<event>
 6    1  0.1860328E-003  0.5126141E+03  0.7546771E-02  0.9372019E-01
        -11   -1    0    0    0    0  0.00000000000E+00  0.00000000000E+00  0.50000000000E+03  0.50000000000E+03  0.00000000000E+00 0.  1.
         11   -1    0    0    0    0 -0.00000000000E+00 -0.00000000000E+00 -0.50000000000E+03  0.50000000000E+03  0.00000000000E+00 0. -1.
        -11    1    1    2    0    0 -0.44986391311E+01  0.10754409782E+02  0.48724647780E+03  0.48738590994E+03  0.00000000000E+00 0.  1.
         11    1    1    2    0    0  0.21196612320E+00  0.97694020759E+01 -0.29939989556E+03  0.29955931568E+03  0.00000000000E+00 0. -1.
        -15    1    1    2    0    0  0.31781025978E+01 -0.95144279588E+01  0.10361126004E+02  0.14530496777E+02  0.17770000000E+01 0.  1.
         15    1    1    2    0    0  0.11085704101E+01 -0.11009383900E+02 -0.19820770824E+03  0.19852427760E+03  0.17770000000E+01 0. -1.
</event>
<event>
 6    1  0.1860328E-003  0.5151417E+03  0.7546771E-02  0.9366552E-01
        -11   -1    0    0    0    0  0.00000000000E+00  0.00000000000E+00  0.50000000000E+03  0.50000000000E+03  0.00000000000E+00 0.  1.
         11   -1    0    0    0    0 -0.00000000000E+00 -0.00000000000E+00 -0.50000000000E+03  0.50000000000E+03  0.00000000000E+00 0. -1.
        -11    1    1    2    0    0 -0.23996619434E+01 -0.60080457853E+01  0.44901409434E+03  0.44906069958E+03  0.00000000000E+00 0.  1.
         11    1    1    2    0    0 -0.29806682720E+02  0.60129645476E+01 -0.48390393796E+03  0.48485834555E+03  0.00000000000E+00 0. -1.
        -15    1    1    2    0    0 -0.27811600722E+01 -0.77751875313E-01 -0.91960181864E+01  0.97706384738E+01  0.17770000000E+01 0. -1.
         15    1    1    2    0    0  0.34987504736E+02  0.72833112940E-01  0.44085861802E+02  0.56310316391E+02  0.17770000000E+01 0.  1.
</event>
<event>
 6    1  0.1860328E-003  0.5016852E+03  0.7546771E-02  0.9396047E-01
        -11   -1    0    0    0    0  0.00000000000E+00  0.00000000000E+00  0.50000000000E+03  0.50000000000E+03  0.00000000000E+00 0. -1.
         11   -1    0    0    0    0 -0.00000000000E+00 -0.00000000000E+00 -0.50000000000E+03  0.50000000000E+03  0.00000000000E+00 0.  1.
        -11    1    1    2    0    0 -0.44635875230E+01 -0.11459934123E+02  0.40039004310E+03  0.40057888151E+03  0.00000000000E+00 0. -1.
         11    1    1    2    0    0  0.70023611085E+01 -0.27097406459E+01 -0.49825821814E+03  0.49831478776E+03  0.00000000000E+00 0.  1.
        -15    1    1    2    0    0 -0.85228268824E+01 -0.92331779234E-01  0.22058277932E+02  0.23714393468E+02  0.17770000000E+01 0. -1.
         15    1    1    2    0    0  0.59840532969E+01  0.14262006548E+02  0.75809897108E+02  0.77391937262E+02  0.17770000000E+01 0.  1.
</event>
<event>
 6    1  0.1860328E-003  0.5178426E+03  0.7546771E-02  0.9360747E-01
        -11   -1    0    0    0    0  0.00000000000E+00  0.00000000000E+00  0.50000000000E+03  0.50000000000E+03  0.00000000000E+00 0.  1.
         11   -1    0    0    0    0 -0.00000000000E+00 -0.00000000000E+00 -0.50000000000E+03  0.50000000000E+03  0.00000000000E+00 0.  1.
        -11    1    1    2    0    0 -0.56531360152E+00  0.35332374560E+02  0.48086070285E+03  0.48215735172E+03  0.00000000000E+00 0.  1.
         11    1    1    2    0    0  0.24741860349E+02  0.23342441868E+02 -0.18205158105E+03  0.18520207183E+03  0.00000000000E+00 0.  1.
        -15    1    1    2    0    0 -0.82944826962E+01 -0.13135363719E+02  0.10985248110E+02  0.19109412033E+02  0.17770000000E+01 0. -1.
         15    1    1    2    0    0 -0.15882064051E+02 -0.45539452710E+02 -0.30979436991E+03  0.31353116443E+03  0.17770000000E+01 0.  1.
</event>
<event>
 6    1  0.1860328E-003  0.5165473E+03  0.7546771E-02  0.9363527E-01
        -11   -1    0    0    0    0  0.00000000000E+00  0.00000000000E+00  0.50000000000E+03  0.50000000000E+03  0.00000000000E+00 0. -1.
         11   -1    0    0    0    0 -0.00000000000E+00 -0.00000000000E+00 -0.50000000000E+03  0.50000000000E+03  0.00000000000E+00 0.  1.
        -11    1    1    2    0    0 -0.24816810505E+02  0.43252246913E+01  0.48279595118E+03  0.48345269896E+03  0.00000000000E+00 0. -1.
         11    1    1    2    0    0 -0.21290962099E+02  0.27254991862E+02 -0.41141636592E+03  0.41286749181E+03  0.00000000000E+00 0.  1.
        -15    1    1    2    0    0 -0.21308950412E+01  0.10683144676E+02 -0.10498821721E+02  0.15233295125E+02  0.17770000000E+01 0. -1.
         15    1    1    2    0    0  0.48238667646E+02 -0.42263361230E+02 -0.60880763544E+02  0.88446514105E+02  0.17770000000E+01 0.  1.
</event>
<event>
 6    1  0.1860328E-003  0.5001333E+03  0.7546771E-02  0.9399511E-01
        -11   -1    0    0    0    0  0.00000000000E+00  0.00000000000E+00  0.50000000000E+03  0.50000000000E+03  0.00000000000E+00 0.  1.
         11   -1    0    0    0    0 -0.00000000000E+00 -0.00000000000E+00 -0.50000000000E+03  0.50000000000E+03  0.00000000000E+00 0.  1.
        -11    1    1    2    0    0  0.80818836958E+01  0.51634524777E+01  0.49977468728E+03  0.49986669837E+03  0.00000000000E+00 0.  1.
         11    1    1    2    0    0 -0.67184003887E+01 -0.13088615893E+01 -0.25449838324E+03  0.25459041045E+03  0.00000000000E+00 0.  1.
        -15    1    1    2    0    0  0.12603179270E+01 -0.88339465119E+00 -0.12106910904E+02  0.12333037259E+02  0.17770000000E+01 0. -1.
         15    1    1    2    0    0 -0.26238012341E+01 -0.29711962373E+01 -0.23316939314E+03  0.23320985392E+03  0.17770000000E+01 0.  1.
</event>
<event>
 6    1  0.1860328E-003  0.5044565E+03  0.7546771E-02  0.9389893E-01
        -11   -1    0    0    0    0  0.00000000000E+00  0.00000000000E+00  0.50000000000E+03  0.50000000000E+03  0.00000000000E+00 0.  1.
         11   -1    0    0    0    0 -0.00000000000E+00 -0.00000000000E+00 -0.50000000000E+03  0.50000000000E+03  0.00000000000E+00 0.  1.
        -11    1    1    2    0    0  0.13943353677E+02  0.14856357679E+02  0.40491022687E+03  0.40542252071E+03  0.00000000000E+00 0.  1.
         11    1    1    2    0    0 -0.44146402410E+01 -0.66198988792E+01 -0.49547962962E+03  0.49554351522E+03  0.00000000000E+00 0.  1.
        -15    1    1    2    0    0 -0.90129389756E+01 -0.41563954944E+01  0.93263036222E+02  0.93806504822E+02  0.17770000000E+01 0.  1.
         15    1    1    2    0    0 -0.51577446031E+00 -0.40800633057E+01 -0.26936334752E+01  0.52274592463E+01  0.17770000000E+01 0. -1.
</event>
<event>
 6    1  0.1860328E-003  0.5018418E+03  0.7546771E-02  0.9395698E-01
        -11   -1    0    0    0    0  0.00000000000E+00  0.00000000000E+00  0.50000000000E+03  0.50000000000E+03  0.00000000000E+00 0. -1.
         11   -1    0    0    0    0 -0.00000000000E+00 -0.00000000000E+00 -0.50000000000E+03  0.50000000000E+03  0.00000000000E+00 0.  1.
        -11    1    1    2    0    0 -0.36629923307E+00 -0.64632629239E+01  0.42990534101E+03  0.42995407915E+03  0.00000000000E+00 0. -1.
         11    1    1    2    0    0  0.63041403515E+01 -0.68517842038E+01 -0.49807119371E+03  0.49815821095E+03  0.00000000000E+00 0.  1.
        -15    1    1    2    0    0  0.45760334367E+01  0.46853702986E-01  0.25184115745E+02  0.25658131112E+02  0.17770000000E+01 0.  1.
         15    1    1    2    0    0 -0.10513874555E+02  0.13268193425E+02  0.42981736952E+02  0.46229578793E+02  0.17770000000E+01 0. -1.
</event>
<event>
 6    1  0.1860328E-003  0.5483316E+03  0.7546771E-02  0.9297718E-01
        -11   -1    0    0    0    0  0.00000000000E+00  0.00000000000E+00  0.50000000000E+03  0.50000000000E+03  0.00000000000E+00 0.  1.
         11   -1    0    0    0    0 -0.00000000000E+00 -0.00000000000E+00 -0.50000000000E+03  0.50000000000E+03  0.00000000000E+00 0. -1.
        -11    1    1    2    0    0 -0.59178275037E+01 -0.10428723343E+01  0.34151683722E+03  0.34156969767E+03  0.00000000000E+00 0.  1.
         11    1    1    2    0    0  0.93086037775E+01  0.54659584799E+01 -0.45153934341E+03  0.45166835781E+03  0.00000000000E+00 0. -1.
        -15    1    1    2    0    0 -0.11716950656E+02 -0.18662825657E+02 -0.45378797657E+02  0.50477529654E+02  0.17770000000E+01 0. -1.
         15    1    1    2    0    0  0.83261743819E+01  0.14239739512E+02  0.15540130385E+03  0.15628441486E+03  0.17770000000E+01 0.  1.
</event>
<event>
 6    1  0.1860328E-003  0.5033686E+03  0.7546771E-02  0.9392303E-01
        -11   -1    0    0    0    0  0.00000000000E+00  0.00000000000E+00  0.50000000000E+03  0.50000000000E+03  0.00000000000E+00 0. -1.
         11   -1    0    0    0    0 -0.00000000000E+00 -0.00000000000E+00 -0.50000000000E+03  0.50000000000E+03  0.00000000000E+00 0.  1.
        -11    1    1    2    0    0  0.72368603317E+01  0.99677924189E+01  0.49647856939E+03  0.49663135110E+03  0.00000000000E+00 0. -1.
         11    1    1    2    0    0  0.92241234279E+01 -0.11007809911E+01 -0.45987797143E+03  0.45997178694E+03  0.00000000000E+00 0.  1.
        -15    1    1    2    0    0 -0.46547738726E+01  0.18967577600E+01 -0.18194279708E+02  0.18959276170E+02  0.17770000000E+01 0.  1.
         15    1    1    2    0    0 -0.11806209887E+02 -0.10763769188E+02 -0.18406318244E+02  0.24437585792E+02  0.17770000000E+01 0.  1.
</event>
<event>
 6    1  0.1860328E-003  0.5011845E+03  0.7546771E-02  0.9397163E-01
        -11   -1    0    0    0    0  0.00000000000E+00  0.00000000000E+00  0.50000000000E+03  0.50000000000E+03  0.00000000000E+00 0. -1.
         11   -1    0    0    0    0 -0.00000000000E+00 -0.00000000000E+00 -0.50000000000E+03  0.50000000000E+03  0.00000000000E+00 0. -1.
        -11    1    1    2    0    0  0.33520427956E+01 -0.66330434279E+01  0.27919087000E+03  0.27928976950E+03  0.00000000000E+00 0. -1.
         11    1    1    2    0    0 -0.71229857511E+01 -0.40333750720E+01 -0.49874834045E+03  0.49881550912E+03  0.00000000000E+00 0. -1.
        -15    1    1    2    0    0 -0.19246277215E+01  0.69339787617E+01  0.20943533952E+03  0.20956646541E+03  0.17770000000E+01 0.  1.
         15    1    1    2    0    0  0.56955706770E+01  0.37324397382E+01  0.10122130932E+02  0.12328255973E+02  0.17770000000E+01 0. -1.
</event>
<event>
 6    1  0.1860328E-003  0.5228938E+03  0.7546771E-02  0.9349992E-01
        -11   -1    0    0    0    0  0.00000000000E+00  0.00000000000E+00  0.50000000000E+03  0.50000000000E+03  0.00000000000E+00 0.  1.
         11   -1    0    0    0    0 -0.00000000000E+00 -0.00000000000E+00 -0.50000000000E+03  0.50000000000E+03  0.00000000000E+00 0.  1.
        -11    1    1    2    0    0  0.81461792407E+01 -0.27900193505E+02  0.41213243431E+03  0.41315605338E+03  0.00000000000E+00 0.  1.
         11    1    1    2    0    0 -0.20399805796E+02  0.18028448333E+01 -0.47666645170E+03  0.47710618158E+03  0.00000000000E+00 0.  1.
        -15    1    1    2    0    0  0.41909108660E+02  0.14194982138E+02  0.83296605478E+01  0.45060091882E+02  0.17770000000E+01 0.  1.
         15    1    1    2    0    0 -0.29655482105E+02  0.11902366533E+02  0.56204356842E+02  0.64677673156E+02  0.17770000000E+01 0. -1.
</event>
<event>
 6    1  0.1860328E-003  0.5283041E+03  0.7546771E-02  0.9338613E-01
        -11   -1    0    0    0    0  0.00000000000E+00  0.00000000000E+00  0.50000000000E+03  0.50000000000E+03  0.00000000000E+00 0. -1.
         11   -1    0    0    0    0 -0.00000000000E+00 -0.00000000000E+00 -0.50000000000E+03  0.50000000000E+03  0.00000000000E+00 0. -1.
        -11    1    1    2    0    0 -0.73013693637E+01 -0.92836600056E+01  0.40789934926E+03  0.40807030701E+03  0.00000000000E+00 0. -1.
         11    1    1    2    0    0 -0.56014410931E+01  0.55824281637E+01 -0.47162961672E+03  0.47169591372E+03  0.00000000000E+00 0. -1.
        -15    1    1    2    0    0 -0.17809701415E+02  0.20280475325E+01  0.82308533093E+02  0.84256458448E+02  0.17770000000E+01 0. -1.
         15    1    1    2    0    0  0.30712511872E+02  0.16731843093E+01 -0.18578265625E+02  0.35977320827E+02  0.17770000000E+01 0.  1.
</event>
<event>
 6    1  0.1860328E-003  0.5019093E+03  0.7546771E-02  0.9395548E-01
        -11   -1    0    0    0    0  0.00000000000E+00  0.00000000000E+00  0.50000000000E+03  0.50000000000E+03  0.00000000000E+00 0.  1.
         11   -1    0    0    0    0 -0.00000000000E+00 -0.00000000000E+00 -0.50000000000E+03  0.50000000000E+03  0.00000000000E+00 0.  1.
        -11    1    1    2    0    0 -0.41455387245E+01  0.10725524604E+02  0.37558611293E+03  0.37576209308E+03  0.00000000000E+00 0.  1.
         11    1    1    2    0    0  0.96475612597E+01  0.19307612588E+01 -0.49799354485E+03  0.49809072868E+03  0.00000000000E+00 0.  1.
        -15    1    1    2    0    0 -0.45484873503E+01 -0.76623397853E+01  0.11983435366E+03  0.12017832681E+03  0.17770000000E+01 0.  1.
         15    1    1    2    0    0 -0.95353518485E+00 -0.49939460778E+01  0.25730782677E+01  0.59688514430E+01  0.17770000000E+01 0. -1.
</event>
<event>
 6    1  0.1860328E-003  0.5061584E+03  0.7546771E-02  0.9386134E-01
        -11   -1    0    0    0    0  0.00000000000E+00  0.00000000000E+00  0.50000000000E+03  0.50000000000E+03  0.00000000000E+00 0.  1.
         11   -1    0    0    0    0 -0.00000000000E+00 -0.00000000000E+00 -0.50000000000E+03  0.50000000000E+03  0.00000000000E+00 0. -1.
        -11    1    1    2    0    0  0.17784849115E+02 -0.17328487096E+02  0.49321698592E+03  0.49384164721E+03  0.00000000000E+00 0.  1.
         11    1    1    2    0    0 -0.40847296401E+01  0.72365447840E+01 -0.43614903884E+03  0.43622819335E+03  0.00000000000E+00 0. -1.
        -15    1    1    2    0    0 -0.13471048943E+02  0.21341053883E+02 -0.23680476058E+02  0.34653028955E+02  0.17770000000E+01 0. -1.
         15    1    1    2    0    0 -0.22907053146E+00 -0.11249111571E+02 -0.33387471022E+02  0.35277130477E+02  0.17770000000E+01 0.  1.
</event>
<event>
 6    1  0.1860328E-003  0.4750076E+03  0.7546771E-02  0.9457537E-01
        -11   -1    0    0    0    0  0.00000000000E+00  0.00000000000E+00  0.50000000000E+03  0.50000000000E+03  0.00000000000E+00 0.  1.
         11   -1    0    0    0    0 -0.00000000000E+00 -0.00000000000E+00 -0.50000000000E+03  0.50000000000E+03  0.00000000000E+00 0. -1.
        -11    1    1    2    0    0 -0.10763193515E+02  0.15663846837E+02  0.47661716802E+03  0.47699594053E+03  0.00000000000E+00 0.  1.
         11    1    1    2    0    0 -0.52253644081E+01 -0.14393333669E+02 -0.47291406644E+03  0.47316190329E+03  0.00000000000E+00 0. -1.
        -15    1    1    2    0    0 -0.12252092704E+02  0.10562964799E+02  0.64915118270E+01  0.17521057496E+02  0.17770000000E+01 0. -1.
         15    1    1    2    0    0  0.28240650626E+02 -0.11833477967E+02 -0.10194613413E+02  0.32321098686E+02  0.17770000000E+01 0.  1.
</event>
<event>
 6    1  0.1860328E-003  0.5496549E+03  0.7546771E-02  0.9295082E-01
        -11   -1    0    0    0    0  0.00000000000E+00  0.00000000000E+00  0.50000000000E+03  0.50000000000E+03  0.00000000000E+00 0.  1.
         11   -1    0    0    0    0 -0.00000000000E+00 -0.00000000000E+00 -0.50000000000E+03  0.50000000000E+03  0.00000000000E+00 0. -1.
        -11    1    1    2    0    0 -0.10935414101E+01  0.55261045888E+02  0.40052480345E+03  0.40432053770E+03  0.00000000000E+00 0.  1.
         11    1    1    2    0    0 -0.34956802096E+01 -0.71815381376E+01 -0.45027431426E+03  0.45034514803E+03  0.00000000000E+00 0. -1.
        -15    1    1    2    0    0  0.38353961067E+02  0.22426763310E+02  0.50302822632E+02  0.67138049836E+02  0.17770000000E+01 0. -1.
         15    1    1    2    0    0 -0.33764739448E+02 -0.70506271060E+02 -0.55331182211E+00  0.78196264436E+02  0.17770000000E+01 0.  1.
</event>
<event>
 6    1  0.1860328E-003  0.5064488E+03  0.7546771E-02  0.9385495E-01
        -11   -1    0    0    0    0  0.00000000000E+00  0.00000000000E+00  0.50000000000E+03  0.50000000000E+03  0.00000000000E+00 0.  1.
         11   -1    0    0    0    0 -0.00000000000E+00 -0.00000000000E+00 -0.50000000000E+03  0.50000000000E+03  0.00000000000E+00 0. -1.
        -11    1    1    2    0    0  0.24513044000E+01 -0.39466299886E+01  0.27634921029E+03  0.27638826098E+03  0.00000000000E+00 0.  1.
         11    1    1    2    0    0  0.24225127945E+02 -0.18747558634E+02 -0.49259972679E+03  0.49355123200E+03  0.00000000000E+00 0. -1.
        -15    1    1    2    0    0 -0.21534086231E+02 -0.20369471694E+02  0.13184953176E+03  0.13515209580E+03  0.17770000000E+01 0. -1.
         15    1    1    2    0    0 -0.51423461139E+01  0.43063660317E+02  0.84400984748E+02  0.94908411212E+02  0.17770000000E+01 0.  1.
</event>
<event>
 6    1  0.1860328E-003  0.5002242E+03  0.7546771E-02  0.9399308E-01
        -11   -1    0    0    0    0  0.00000000000E+00  0.00000000000E+00  0.50000000000E+03  0.50000000000E+03  0.00000000000E+00 0. -1.
         11   -1    0    0    0    0 -0.00000000000E+00 -0.00000000000E+00 -0.50000000000E+03  0.50000000000E+03  0.00000000000E+00 0.  1.
        -11    1    1    2    0    0  0.20162281893E+01  0.79506320334E+01  0.49970849406E+03  0.49977580650E+03  0.00000000000E+00 0. -1.
         11    1    1    2    0    0 -0.12054031379E+01  0.12706340043E+01 -0.26389000036E+02  0.26447057121E+02  0.00000000000E+00 0.  1.
        -15    1    1    2    0    0  0.13140903047E+01 -0.13187885096E+02 -0.21677635623E+03  0.21718838251E+03  0.17770000000E+01 0. -1.
         15    1    1    2    0    0 -0.21249153560E+01  0.39666190581E+01 -0.25654313780E+03  0.25658875387E+03  0.17770000000E+01 0.  1.
</event>
<event>
 6    1  0.1860328E-003  0.5100078E+03  0.7546771E-02  0.9377691E-01
        -11   -1    0    0    0    0  0.00000000000E+00  0.00000000000E+00  0.50000000000E+03  0.50000000000E+03  0.00000000000E+00 0. -1.
         11   -1    0    0    0    0 -0.00000000000E+00 -0.00000000000E+00 -0.50000000000E+03  0.50000000000E+03  0.00000000000E+00 0. -1.
        -11    1    1    2    0    0  0.53163413285E+01  0.52519220443E+01  0.45306543871E+03  0.45312706598E+03  0.00000000000E+00 0. -1.
         11    1    1    2    0    0  0.38253068561E+01 -0.79612301274E+01 -0.48991258812E+03  0.48999220214E+03  0.00000000000E+00 0. -1.
        -15    1    1    2    0    0 -0.10279850198E+01  0.74073260649E+01 -0.79619109578E+01  0.11066841814E+02  0.17770000000E+01 0. -1.
         15    1    1    2    0    0 -0.81136631649E+01 -0.46980179818E+01  0.44809060370E+02  0.45813890068E+02  0.17770000000E+01 0.  1.
</event>
<event>
 6    1  0.1860328E-003  0.5002886E+03  0.7546771E-02  0.9399164E-01
        -11   -1    0    0    0    0  0.00000000000E+00  0.00000000000E+00  0.50000000000E+03  0.50000000000E+03  0.00000000000E+00 0. -1.
         11   -1    0    0    0    0 -0.00000000000E+00 -0.00000000000E+00 -0.50000000000E+03  0.50000000000E+03  0.00000000000E+00 0. -1.
        -11    1    1    2    0    0  0.61062785467E+01  0.34439532563E+01  0.49966225928E+03  0.49971143753E+03  0.00000000000E+00 0. -1.
         11    1    1    2    0    0  0.22109425755E+01  0.26811795812E+01 -0.15256781579E+03  0.15260738975E+03  0.00000000000E+00 0. -1.
        -15    1    1    2    0    0  0.24370941952E+01 -0.80189906854E+01 -0.11236396981E+03  0.11269011970E+03  0.17770000000E+01 0. -1.
         15    1    1    2    0    0 -0.10754315317E+02  0.18938578479E+01 -0.23473047368E+03  0.23499105302E+03  0.17770000000E+01 0.  1.
</event>
<event>
 6    1  0.1860328E-003  0.5039197E+03  0.7546771E-02  0.9391082E-01
        -11   -1    0    0    0    0  0.00000000000E+00  0.00000000000E+00  0.50000000000E+03  0.50000000000E+03  0.00000000000E+00 0.  1.
         11   -1    0    0    0    0 -0.00000000000E+00 -0.00000000000E+00 -0.50000000000E+03  0.50000000000E+03  0.00000000000E+00 0. -1.
        -11    1    1    2    0    0  0.73769533962E+01  0.67909192827E+01  0.49597894527E+03  0.49608028602E+03  0.00000000000E+00 0.  1.
         11    1    1    2    0    0  0.66495654130E+01 -0.59541935874E+01 -0.37268067132E+03  0.37278754260E+03  0.00000000000E+00 0. -1.
        -15    1    1    2    0    0  0.32965713104E+01  0.10848065368E+02 -0.81153777537E+01  0.14055781363E+02  0.17770000000E+01 0.  1.
         15    1    1    2    0    0 -0.17323090120E+02 -0.11684791063E+02 -0.11518289620E+03  0.11707639002E+03  0.17770000000E+01 0. -1.
</event>
<event>
 6    1  0.1860328E-003  0.2174802E+03  0.7546771E-02  0.1043586E+00
        -11   -1    0    0    0    0  0.00000000000E+00  0.00000000000E+00  0.50000000000E+03  0.50000000000E+03  0.00000000000E+00 0. -1.
         11   -1    0    0    0    0 -0.00000000000E+00 -0.00000000000E+00 -0.50000000000E+03  0.50000000000E+03  0.00000000000E+00 0. -1.
        -11    1    1    2    0    0 -0.13861576636E+02  0.70780225993E+01  0.33576261989E+03  0.33612315990E+03  0.00000000000E+00 0. -1.
         11    1    1    2    0    0 -0.85021514980E+01 -0.11777395476E+02 -0.29641874154E+03  0.29677443280E+03  0.00000000000E+00 0. -1.
        -15    1    1    2    0    0  0.51186286721E+02  0.16445292963E+03  0.53152321236E+02  0.18025850602E+03  0.17770000000E+01 0.  1.
         15    1    1    2    0    0 -0.28822558587E+02 -0.15975355675E+03 -0.92496199581E+02  0.18684390128E+03  0.17770000000E+01 0. -1.
</event>
<event>
 6    1  0.1860328E-003  0.5253976E+03  0.7546771E-02  0.9344708E-01
        -11   -1    0    0    0    0  0.00000000000E+00  0.00000000000E+00  0.50000000000E+03  0.50000000000E+03  0.00000000000E+00 0. -1.
         11   -1    0    0    0    0 -0.00000000000E+00 -0.00000000000E+00 -0.50000000000E+03  0.50000000000E+03  0.00000000000E+00 0.  1.
        -11    1    1    2    0    0 -0.72216483114E+01  0.77735912042E+01  0.42394848838E+03  0.42408124425E+03  0.00000000000E+00 0. -1.
         11    1    1    2    0    0 -0.18646763610E+01 -0.64924913213E+01 -0.47455434502E+03  0.47460241870E+03  0.00000000000E+00 0.  1.
        -15    1    1    2    0    0  0.10398403765E+02 -0.89628941585E+01  0.74678890747E+02  0.75951002131E+02  0.17770000000E+01 0. -1.
         15    1    1    2    0    0 -0.13120790924E+01  0.76817942756E+01 -0.24073034116E+02  0.25365334916E+02  0.17770000000E+01 0. -1.
</event>
<event>
 6    1  0.1860328E-003  0.5063223E+03  0.7546771E-02  0.9385773E-01
        -11   -1    0    0    0    0  0.00000000000E+00  0.00000000000E+00  0.50000000000E+03  0.50000000000E+03  0.00000000000E+00 0.  1.
         11   -1    0    0    0    0 -0.00000000000E+00 -0.00000000000E+00 -0.50000000000E+03  0.50000000000E+03  0.00000000000E+00 0.  1.
        -11    1    1    2    0    0  0.82780144914E+01 -0.37868460860E+01  0.45242106923E+03  0.45251264028E+03  0.00000000000E+00 0.  1.
         11    1    1    2    0    0 -0.83883907422E+01 -0.22302997242E+02 -0.49310233543E+03  0.49367773090E+03  0.00000000000E+00 0.  1.
        -15    1    1    2    0    0  0.57363893456E+01  0.27575908518E+02  0.28056502150E+02  0.39795250159E+02  0.17770000000E+01 0. -1.
         15    1    1    2    0    0 -0.56260130948E+01 -0.14860651903E+01  0.12624764045E+02  0.14014378662E+02  0.17770000000E+01 0.  1.
</event>
<event>
 6    1  0.1860328E-003  0.4657069E+03  0.7546771E-02  0.9479992E-01
        -11   -1    0    0    0    0  0.00000000000E+00  0.00000000000E+00  0.50000000000E+03  0.50000000000E+03  0.00000000000E+00 0. -1.
         11   -1    0    0    0    0 -0.00000000000E+00 -0.00000000000E+00 -0.50000000000E+03  0.50000000000E+03  0.00000000000E+00 0. -1.
        -11    1    1    2    0    0  0.17758611992E+02 -0.13021181384E+02  0.47299406451E+03  0.47350639333E+03  0.00000000000E+00 0. -1.
         11    1    1    2    0    0  0.64368534042E+01 -0.65960663390E+01 -0.45844891489E+03  0.45854154527E+03  0.00000000000E+00 0. -1.
        -15    1    1    2    0    0 -0.18777675144E+02  0.18911811475E+02  0.19724927507E+02  0.33203737610E+02  0.17770000000E+01 0. -1.
         15    1    1    2    0    0 -0.54177902521E+01  0.70543624746E+00 -0.34270077121E+02  0.34748323792E+02  0.17770000000E+01 0.  1.
</event>
<event>
 6    1  0.1860328E-003  0.5097023E+03  0.7546771E-02  0.9378358E-01
        -11   -1    0    0    0    0  0.00000000000E+00  0.00000000000E+00  0.50000000000E+03  0.50000000000E+03  0.00000000000E+00 0.  1.
         11   -1    0    0    0    0 -0.00000000000E+00 -0.00000000000E+00 -0.50000000000E+03  0.50000000000E+03  0.00000000000E+00 0. -1.
        -11    1    1    2    0    0 -0.85186863005E+01  0.59541334441E+01  0.49018754078E+03  0.49029771044E+03  0.00000000000E+00 0.  1.
         11    1    1    2    0    0  0.95542217196E+01 -0.33143760594E+01 -0.48125904688E+03  0.48136528587E+03  0.00000000000E+00 0. -1.
        -15    1    1    2    0    0  0.49109563424E+01 -0.40852214849E+01  0.79168092836E+01  0.10326670568E+02  0.17770000000E+01 0.  1.
         15    1    1    2    0    0 -0.59464917616E+01  0.14454641002E+01 -0.16845303191E+02  0.18010333126E+02  0.17770000000E+01 0.  1.
</event>
<event>
 6    1  0.1860328E-003  0.4924453E+03  0.7546771E-02  0.9416874E-01
        -11   -1    0    0    0    0  0.00000000000E+00  0.00000000000E+00  0.50000000000E+03  0.50000000000E+03  0.00000000000E+00 0. -1.
         11   -1    0    0    0    0 -0.00000000000E+00 -0.00000000000E+00 -0.50000000000E+03  0.50000000000E+03  0.00000000000E+00 0. -1.
        -11    1    1    2    0    0 -0.69880496111E+01 -0.16207672515E+01  0.49050780989E+03  0.49056026264E+03  0.00000000000E+00 0. -1.
         11    1    1    2    0    0  0.92245853774E+01 -0.56429176661E+01 -0.49424846877E+03  0.49436675088E+03  0.00000000000E+00 0. -1.
        -15    1    1    2    0    0  0.39075147422E+00  0.51953055711E+01  0.77837689198E+01  0.95335551757E+01  0.17770000000E+01 0.  1.
         15    1    1    2    0    0 -0.26272872405E+01  0.20683793465E+01 -0.40431100342E+01  0.55394312988E+01  0.17770000000E+01 0. -1.
</event>
<event>
 6    1  0.1860328E-003  0.4987785E+03  0.7546771E-02  0.9402547E-01
        -11   -1    0    0    0    0  0.00000000000E+00  0.00000000000E+00  0.50000000000E+03  0.50000000000E+03  0.00000000000E+00 0.  1.
         11   -1    0    0    0    0 -0.00000000000E+00 -0.00000000000E+00 -0.50000000000E+03  0.50000000000E+03  0.00000000000E+00 0. -1.
        -11    1    1    2    0    0  0.83122109890E+01  0.16352905428E+01  0.49893053342E+03  0.49900244909E+03  0.00000000000E+00 0.  1.
         11    1    1    2    0    0 -0.10163694797E+01 -0.11783407713E+01 -0.38332187221E+01  0.41370351296E+01  0.00000000000E+00 0. -1.
        -15    1    1    2    0    0  0.18330183790E+01 -0.11499158460E+02 -0.43085596554E+03  0.43101695022E+03  0.17770000000E+01 0.  1.
         15    1    1    2    0    0 -0.91288598884E+01  0.11042208689E+02 -0.64241349153E+02  0.65843565560E+02  0.17770000000E+01 0. -1.
</event>
<event>
 6    1  0.1860328E-003  0.5297980E+03  0.7546771E-02  0.9335497E-01
        -11   -1    0    0    0    0  0.00000000000E+00  0.00000000000E+00  0.50000000000E+03  0.50000000000E+03  0.00000000000E+00 0.  1.
         11   -1    0    0    0    0 -0.00000000000E+00 -0.00000000000E+00 -0.50000000000E+03  0.50000000000E+03  0.00000000000E+00 0.  1.
        -11    1    1    2    0    0  0.67074996037E+01 -0.22576634941E+02  0.46961183154E+03  0.47020204946E+03  0.00000000000E+00 0.  1.
         11    1    1    2    0    0  0.28942563788E+01  0.20051719194E+02 -0.39461317955E+03  0.39513290124E+03  0.00000000000E+00 0.  1.
        -15    1    1    2    0    0  0.12471697570E+02  0.54149390896E+02 -0.39826377491E+02  0.68388579805E+02  0.17770000000E+01 0.  1.
         15    1    1    2    0    0 -0.22073453552E+02 -0.51624475149E+02 -0.35172274497E+02  0.66276469493E+02  0.17770000000E+01 0. -1.
</event>
<event>
 6    1  0.1860328E-003  0.5061051E+03  0.7546771E-02  0.9386252E-01
        -11   -1    0    0    0    0  0.00000000000E+00  0.00000000000E+00  0.50000000000E+03  0.50000000000E+03  0.00000000000E+00 0.  1.
         11   -1    0    0    0    0 -0.00000000000E+00 -0.00000000000E+00 -0.50000000000E+03  0.50000000000E+03  0.00000000000E+00 0.  1.
        -11    1    1    2    0    0 -0.38193413514E+01 -0.40626152063E+01  0.38784369607E+03  0.38788377743E+03  0.00000000000E+00 0.  1.
         11    1    1    2    0    0 -0.14679499266E+02  0.36137956512E+02 -0.49235229240E+03  0.49389494776E+03  0.00000000000E+00 0.  1.
        -15    1    1    2    0    0 -0.63851127595E+01 -0.25874384898E+02  0.71884470113E+02  0.76686297545E+02  0.17770000000E+01 0.  1.
         15    1    1    2    0    0  0.24883953377E+02 -0.62009564074E+01  0.32624126208E+02  0.41534977258E+02  0.17770000000E+01 0. -1.
</event>
<event>
 6    1  0.1860328E-003  0.5026463E+03  0.7546771E-02  0.9393908E-01
        -11   -1    0    0    0    0  0.00000000000E+00  0.00000000000E+00  0.50000000000E+03  0.50000000000E+03  0.00000000000E+00 0. -1.
         11   -1    0    0    0    0 -0.00000000000E+00 -0.00000000000E+00 -0.50000000000E+03  0.50000000000E+03  0.00000000000E+00 0.  1.
        -11    1    1    2    0    0 -0.56290573063E+01  0.14340031636E+01  0.39053048151E+03  0.39057368017E+03  0.00000000000E+00 0. -1.
         11    1    1    2    0    0 -0.62691092007E+01 -0.60974869550E+01 -0.49727677611E+03  0.49735367007E+03  0.00000000000E+00 0.  1.
        -15    1    1    2    0    0 -0.28267567776E+01 -0.54247751502E+01  0.77516764337E+02  0.77778051027E+02  0.17770000000E+01 0.  1.
         15    1    1    2    0    0  0.14724923285E+02  0.10088258942E+02  0.29229530263E+02  0.34294598738E+02  0.17770000000E+01 0. -1.
</event>
<event>
 6    1  0.1860328E-003  0.5152639E+03  0.7546771E-02  0.9366289E-01
        -11   -1    0    0    0    0  0.00000000000E+00  0.00000000000E+00  0.50000000000E+03  0.50000000000E+03  0.00000000000E+00 0.  1.
         11   -1    0    0    0    0 -0.00000000000E+00 -0.00000000000E+00 -0.50000000000E+03  0.50000000000E+03  0.00000000000E+00 0. -1.
        -11    1    1    2    0    0 -0.12870318703E+02 -0.31168642943E+00  0.42735734380E+03  0.42755121513E+03  0.00000000000E+00 0.  1.
         11    1    1    2    0    0 -0.38476932712E+01  0.95646926746E+01 -0.48462644682E+03  0.48473609423E+03  0.00000000000E+00 0. -1.
        -15    1    1    2    0    0  0.23040143822E+01 -0.78801023597E+01 -0.13256676608E+02  0.15694002012E+02  0.17770000000E+01 0.  1.
         15    1    1    2    0    0  0.14413997592E+02 -0.13729038855E+01  0.70525779626E+02  0.72018688633E+02  0.17770000000E+01 0. -1.
</event>
<event>
 6    1  0.3586150E-003  0.2661871E+03  0.7546771E-02  0.1016350E+00
        -11   -1    0    0    0    0  0.00000000000E+00  0.00000000000E+00  0.50000000000E+03  0.50000000000E+03  0.00000000000E+00 0.  1.
         11   -1    0    0    0    0 -0.00000000000E+00 -0.00000000000E+00 -0.50000000000E+03  0.50000000000E+03  0.00000000000E+00 0.  1.
        -11    1    1    2    0    0  0.36945692484E+01 -0.33199814751E+02  0.34705041724E+03  0.34865436989E+03  0.00000000000E+00 0.  1.
         11    1    1    2    0    0  0.22609348022E+01 -0.67682486740E+01 -0.29103921680E+03  0.29112668502E+03  0.00000000000E+00 0.  1.
        -15    1    1    2    0    0  0.18994906621E+01 -0.87012180517E+01 -0.20401156702E+03  0.20421360500E+03  0.17770000000E+01 0. -1.
         15    1    1    2    0    0 -0.78549947127E+01  0.48669281477E+02  0.14800036658E+03  0.15600534009E+03  0.17770000000E+01 0.  1.
</event>
<event>
 6    1  0.1860328E-003  0.5016727E+03  0.7546771E-02  0.9396075E-01
        -11   -1    0    0    0    0  0.00000000000E+00  0.00000000000E+00  0.50000000000E+03  0.50000000000E+03  0.00000000000E+00 0. -1.
         11   -1    0    0    0    0 -0.00000000000E+00 -0.00000000000E+00 -0.50000000000E+03  0.50000000000E+03  0.00000000000E+00 0.  1.
        -11    1    1    2    0    0  0.26125770239E+01 -0.12924164917E+02  0.49815280662E+03  0.49832728035E+03  0.00000000000E+00 0. -1.
         11    1    1    2    0    0 -0.10058767106E+02  0.79290902980E+01 -0.40817160917E+03  0.40837251597E+03  0.00000000000E+00 0.  1.
        -15    1    1    2    0    0  0.22851698073E+01  0.13279011209E+02 -0.37435901968E+02  0.39826606997E+02  0.17770000000E+01 0. -1.
         15    1    1    2    0    0  0.51610202749E+01 -0.82839365896E+01 -0.52545295483E+02  0.53473596682E+02  0.17770000000E+01 0.  1.
</event>
<event>
 6    1  0.1860328E-003  0.4785232E+03  0.7546771E-02  0.9449191E-01
        -11   -1    0    0    0    0  0.00000000000E+00  0.00000000000E+00  0.50000000000E+03  0.50000000000E+03  0.00000000000E+00 0. -1.
         11   -1    0    0    0    0 -0.00000000000E+00 -0.00000000000E+00 -0.50000000000E+03  0.50000000000E+03  0.00000000000E+00 0. -1.
        -11    1    1    2    0    0  0.32310118888E+01 -0.90974942598E+01  0.48378997958E+03  0.48388629675E+03  0.00000000000E+00 0. -1.
         11    1    1    2    0    0  0.60006370007E+01 -0.65558657656E+01 -0.47330656261E+03  0.47338999697E+03  0.00000000000E+00 0. -1.
        -15    1    1    2    0    0 -0.55727506361E+00 -0.35992740293E+00 -0.21355256072E+02  0.21439328211E+02  0.17770000000E+01 0. -1.
         15    1    1    2    0    0 -0.86743738258E+01  0.16013287428E+02  0.10871839101E+02  0.21284378074E+02  0.17770000000E+01 0.  1.
</event>
<event>
 6    1  0.1860328E-003  0.4606467E+03  0.7546771E-02  0.9492445E-01
        -11   -1    0    0    0    0  0.00000000000E+00  0.00000000000E+00  0.50000000000E+03  0.50000000000E+03  0.00000000000E+00 0.  1.
         11   -1    0    0    0    0 -0.00000000000E+00 -0.00000000000E+00 -0.50000000000E+03  0.50000000000E+03  0.00000000000E+00 0.  1.
        -11    1    1    2    0    0 -0.25448222400E+02  0.17861602502E+02  0.47374036312E+03  0.47475949755E+03  0.00000000000E+00 0.  1.
         11    1    1    2    0    0  0.28710074640E+02  0.24763829301E+02 -0.44632513888E+03  0.44793263470E+03  0.00000000000E+00 0.  1.
        -15    1    1    2    0    0 -0.24377793439E+02 -0.13101595297E+02  0.55041694066E+01  0.28273348266E+02  0.17770000000E+01 0.  1.
         15    1    1    2    0    0  0.21115941199E+02 -0.29523836506E+02 -0.32919393639E+02  0.49034519487E+02  0.17770000000E+01 0. -1.
</event>
<event>
 6    1  0.1860328E-003  0.5154996E+03  0.7546771E-02  0.9365781E-01
        -11   -1    0    0    0    0  0.00000000000E+00  0.00000000000E+00  0.50000000000E+03  0.50000000000E+03  0.00000000000E+00 0. -1.
         11   -1    0    0    0    0 -0.00000000000E+00 -0.00000000000E+00 -0.50000000000E+03  0.50000000000E+03  0.00000000000E+00 0. -1.
        -11    1    1    2    0    0  0.14888795914E+02 -0.30390838562E+01  0.44189099522E+03  0.44215219543E+03  0.00000000000E+00 0. -1.
         11    1    1    2    0    0 -0.82446172068E+01 -0.59720779469E+01 -0.48439346094E+03  0.48450042768E+03  0.00000000000E+00 0. -1.
        -15    1    1    2    0    0 -0.86123294086E+01  0.26120226878E+02  0.47856267931E+02  0.55225162556E+02  0.17770000000E+01 0. -1.
         15    1    1    2    0    0  0.19681507009E+01 -0.17109065075E+02 -0.53538022108E+01  0.18122214325E+02  0.17770000000E+01 0.  1.
</event>
<event>
 6    1  0.1860328E-003  0.4861781E+03  0.7546771E-02  0.9431280E-01
        -11   -1    0    0    0    0  0.00000000000E+00  0.00000000000E+00  0.50000000000E+03  0.50000000000E+03  0.00000000000E+00 0. -1.
         11   -1    0    0    0    0 -0.00000000000E+00 -0.00000000000E+00 -0.50000000000E+03  0.50000000000E+03  0.00000000000E+00 0. -1.
        -11    1    1    2    0    0 -0.87839779879E+01  0.10786770320E+02  0.48265606495E+03  0.48285648978E+03  0.00000000000E+00 0. -1.
         11    1    1    2    0    0 -0.74859713650E+01 -0.64964198282E+01 -0.48956957800E+03  0.48966990406E+03  0.00000000000E+00 0. -1.
        -15    1    1    2    0    0  0.12088926984E+02  0.90269433717E+00  0.13291902275E+02  0.18077317494E+02  0.17770000000E+01 0.  1.
         15    1    1    2    0    0  0.41810223693E+01 -0.51930448288E+01 -0.63783892246E+01  0.93962886688E+01  0.17770000000E+01 0. -1.
</event>
<event>
 6    1  0.1860328E-003  0.5054321E+03  0.7546771E-02  0.9387736E-01
        -11   -1    0    0    0    0  0.00000000000E+00  0.00000000000E+00  0.50000000000E+03  0.50000000000E+03  0.00000000000E+00 0.  1.
         11   -1    0    0    0    0 -0.00000000000E+00 -0.00000000000E+00 -0.50000000000E+03  0.50000000000E+03  0.00000000000E+00 0.  1.
        -11    1    1    2    0    0  0.14618782022E+00  0.80644303575E+01  0.49450211519E+03  0.49456789052E+03  0.00000000000E+00 0.  1.
         11    1    1    2    0    0  0.33443967197E+00  0.80497247245E+01 -0.43711766928E+03  0.43719191062E+03  0.00000000000E+00 0.  1.
        -15    1    1    2    0    0  0.52987539365E+01  0.92240435385E+01 -0.19081443640E+02  0.21918462374E+02  0.17770000000E+01 0. -1.
         15    1    1    2    0    0 -0.57793814287E+01 -0.25338198621E+02 -0.38303002268E+02  0.46321736483E+02  0.17770000000E+01 0.  1.
</event>
<event>
 6    1  0.1860328E-003  0.5084422E+03  0.7546771E-02  0.9381115E-01
        -11   -1    0    0    0    0  0.00000000000E+00  0.00000000000E+00  0.50000000000E+03  0.50000000000E+03  0.00000000000E+00 0.  1.
         11   -1    0    0    0    0 -0.00000000000E+00 -0.00000000000E+00 -0.50000000000E+03  0.50000000000E+03  0.00000000000E+00 0. -1.
        -11    1    1    2    0    0  0.59400116125E+00  0.10667717494E+02  0.46541917400E+03  0.46554179250E+03  0.00000000000E+00 0.  1.
         11    1    1    2    0    0 -0.15388700875E+02  0.30545229612E+01 -0.49130738511E+03  0.49155781846E+03  0.00000000000E+00 0. -1.
        -15    1    1    2    0    0  0.88362872974E+01 -0.41973402462E+01 -0.41550707580E+01  0.10775898123E+02  0.17770000000E+01 0. -1.
         15    1    1    2    0    0  0.59584124166E+01 -0.95249002088E+01  0.30043281867E+02  0.32124490920E+02  0.17770000000E+01 0.  1.
</event>
<event>
 6    1  0.1860328E-003  0.5028030E+03  0.7546771E-02  0.9393559E-01
        -11   -1    0    0    0    0  0.00000000000E+00  0.00000000000E+00  0.50000000000E+03  0.50000000000E+03  0.00000000000E+00 0. -1.
         11   -1    0    0    0    0 -0.00000000000E+00 -0.00000000000E+00 -0.50000000000E+03  0.50000000000E+03  0.00000000000E+00 0.  1.
        -11    1    1    2    0    0 -0.89601401201E+01 -0.95335116317E+01  0.49702480025E+03  0.49719696703E+03  0.00000000000E+00 0. -1.
         11    1    1    2    0    0  0.72264022230E+01 -0.27493100526E+01 -0.45599556506E+03  0.45606110879E+03  0.00000000000E+00 0.  1.
        -15    1    1    2    0    0  0.63066140494E+01  0.66939917677E+01 -0.64520821427E+01  0.11374093350E+02  0.17770000000E+01 0. -1.
         15    1    1    2    0    0 -0.45728761523E+01  0.55888299166E+01 -0.34577153045E+02  0.35367830833E+02  0.17770000000E+01 0.  1.
</event>
<event>
 6    1  0.1860328E-003  0.5044072E+03  0.7546771E-02  0.9390002E-01
        -11   -1    0    0    0    0  0.00000000000E+00  0.00000000000E+00  0.50000000000E+03  0.50000000000E+03  0.00000000000E+00 0. -1.
         11   -1    0    0    0    0 -0.00000000000E+00 -0.00000000000E+00 -0.50000000000E+03  0.50000000000E+03  0.00000000000E+00 0. -1.
        -11    1    1    2    0    0  0.34626159500E+01 -0.10055970498E+02  0.32186067504E+03  0.32203634328E+03  0.00000000000E+00 0. -1.
         11    1    1    2    0    0  0.22991265464E+02  0.12674130974E+01 -0.49505758225E+03  0.49559279088E+03  0.00000000000E+00 0. -1.
        -15    1    1    2    0    0 -0.15313945757E+02  0.11965348148E+02  0.17436333188E+02  0.26170019774E+02  0.17770000000E+01 0.  1.
         15    1    1    2    0    0 -0.11139935658E+02 -0.31767907476E+01  0.15576057402E+03  0.15620084607E+03  0.17770000000E+01 0. -1.
</event>
<event>
 6    1  0.1860328E-003  0.5011157E+03  0.7546771E-02  0.9397317E-01
        -11   -1    0    0    0    0  0.00000000000E+00  0.00000000000E+00  0.50000000000E+03  0.50000000000E+03  0.00000000000E+00 0. -1.
         11   -1    0    0    0    0 -0.00000000000E+00 -0.00000000000E+00 -0.50000000000E+03  0.50000000000E+03  0.00000000000E+00 0.  1.
        -11    1    1    2    0    0 -0.73475201711E+01 -0.44207968548E+01  0.43870424526E+03  0.43878804030E+03  0.00000000000E+00 0. -1.
         11    1    1    2    0    0  0.58973235594E+01  0.66357766964E+01 -0.49880528082E+03  0.49888427529E+03  0.00000000000E+00 0.  1.
        -15    1    1    2    0    0 -0.45192157222E+01 -0.46501799224E+01  0.11925789819E+02  0.13690495822E+02  0.17770000000E+01 0.  1.
         15    1    1    2    0    0  0.59694123338E+01  0.24352000808E+01  0.48175245738E+02  0.48637188590E+02  0.17770000000E+01 0. -1.
</event>
<event>
 6    1  0.1860328E-003  0.5019741E+03  0.7546771E-02  0.9395403E-01
        -11   -1    0    0    0    0  0.00000000000E+00  0.00000000000E+00  0.50000000000E+03  0.50000000000E+03  0.00000000000E+00 0.  1.
         11   -1    0    0    0    0 -0.00000000000E+00 -0.00000000000E+00 -0.50000000000E+03  0.50000000000E+03  0.00000000000E+00 0. -1.
        -11    1    1    2    0    0  0.81934865277E+01 -0.64992457538E+01  0.49791610809E+03  0.49802592715E+03  0.00000000000E+00 0.  1.
         11    1    1    2    0    0  0.86843905994E+00  0.55050432051E+00 -0.49233676892E+02  0.49244412695E+02  0.00000000000E+00 0. -1.
        -15    1    1    2    0    0 -0.74480156085E+01  0.24474558096E+02 -0.39606828035E+03  0.39689761572E+03  0.17770000000E+01 0. -1.
         15    1    1    2    0    0 -0.16139099792E+01 -0.18525816663E+02 -0.52614150843E+02  0.55832044440E+02  0.17770000000E+01 0.  1.
</event>
<event>
 6    1  0.1860328E-003  0.5043911E+03  0.7546771E-02  0.9390037E-01
        -11   -1    0    0    0    0  0.00000000000E+00  0.00000000000E+00  0.50000000000E+03  0.50000000000E+03  0.00000000000E+00 0. -1.
         11   -1    0    0    0    0 -0.00000000000E+00 -0.00000000000E+00 -0.50000000000E+03  0.50000000000E+03  0.00000000000E+00 0. -1.
        -11    1    1    2    0    0 -0.60916532080E+01 -0.44724342488E+01  0.49555124478E+03  0.49560886504E+03  0.00000000000E+00 0. -1.
         11    1    1    2    0    0  0.49124525556E+01 -0.38820347059E+01 -0.41185941834E+03  0.41190700754E+03  0.00000000000E+00 0. -1.
        -15    1    1    2    0    0 -0.62417277169E+00  0.33450920984E+01  0.34502302861E+01  0.51614969556E+01  0.17770000000E+01 0.  1.
         15    1    1    2    0    0  0.18033734241E+01  0.50093768564E+01 -0.87142056721E+02  0.87322630462E+02  0.17770000000E+01 0. -1.
</event>
<event>
 6    1  0.1860328E-003  0.5008001E+03  0.7546771E-02  0.9398021E-01
        -11   -1    0    0    0    0  0.00000000000E+00  0.00000000000E+00  0.50000000000E+03  0.50000000000E+03  0.00000000000E+00 0. -1.
         11   -1    0    0    0    0 -0.00000000000E+00 -0.00000000000E+00 -0.50000000000E+03  0.50000000000E+03  0.00000000000E+00 0.  1.
        -11    1    1    2    0    0  0.62610059526E+01  0.25255671602E+01  0.39342542803E+03  0.39348334921E+03  0.00000000000E+00 0. -1.
         11    1    1    2    0    0 -0.38752703841E+01 -0.10121728867E+02 -0.49908224969E+03  0.49919991894E+03  0.00000000000E+00 0.  1.
        -15    1    1    2    0    0 -0.38768682061E+01  0.42578591785E+00  0.59900986132E+01  0.73654878407E+01  0.17770000000E+01 0.  1.
         15    1    1    2    0    0  0.14911326376E+01  0.71703757887E+01  0.99666723047E+02  0.99951244001E+02  0.17770000000E+01 0. -1.
</event>
<event>
 6    1  0.1860328E-003  0.5010663E+03  0.7546771E-02  0.9397427E-01
        -11   -1    0    0    0    0  0.00000000000E+00  0.00000000000E+00  0.50000000000E+03  0.50000000000E+03  0.00000000000E+00 0.  1.
         11   -1    0    0    0    0 -0.00000000000E+00 -0.00000000000E+00 -0.50000000000E+03  0.50000000000E+03  0.00000000000E+00 0. -1.
        -11    1    1    2    0    0  0.40717244904E+01 -0.65579447017E+01  0.49887395832E+03  0.49893367482E+03  0.00000000000E+00 0.  1.
         11    1    1    2    0    0  0.90889176796E+01 -0.85011387503E+00 -0.36753536898E+03  0.36764871627E+03  0.00000000000E+00 0. -1.
        -15    1    1    2    0    0 -0.36328944070E+01  0.40210271676E+00 -0.96462914271E+02  0.96548491272E+02  0.17770000000E+01 0.  1.
         15    1    1    2    0    0 -0.95277477630E+01  0.70059558600E+01 -0.34875675070E+02  0.36869117640E+02  0.17770000000E+01 0. -1.
</event>
<event>
 6    1  0.1860328E-003  0.5038479E+03  0.7546771E-02  0.9391241E-01
        -11   -1    0    0    0    0  0.00000000000E+00  0.00000000000E+00  0.50000000000E+03  0.50000000000E+03  0.00000000000E+00 0.  1.
         11   -1    0    0    0    0 -0.00000000000E+00 -0.00000000000E+00 -0.50000000000E+03  0.50000000000E+03  0.00000000000E+00 0.  1.
        -11    1    1    2    0    0  0.36492229970E+01 -0.58110392419E+01  0.49610460578E+03  0.49615205823E+03  0.00000000000E+00 0.  1.
         11    1    1    2    0    0 -0.27869448313E+01 -0.94601947746E+01 -0.46243690307E+03  0.46254205395E+03  0.00000000000E+00 0.  1.
        -15    1    1    2    0    0  0.86025937128E+01  0.76066941981E+01 -0.16058867806E+02  0.19821992317E+02  0.17770000000E+01 0. -1.
         15    1    1    2    0    0 -0.94648718785E+01  0.76645398183E+01 -0.17608834906E+02  0.21483895505E+02  0.17770000000E+01 0.  1.
</event>
<event>
 6    1  0.1974801E-003  0.5428544E+03  0.7546771E-02  0.9308716E-01
        -11   -1    0    0    0    0  0.00000000000E+00  0.00000000000E+00  0.50000000000E+03  0.50000000000E+03  0.00000000000E+00 0. -1.
         11   -1    0    0    0    0 -0.00000000000E+00 -0.00000000000E+00 -0.50000000000E+03  0.50000000000E+03  0.00000000000E+00 0.  1.
        -11    1    1    2    0    0 -0.39706956763E+02  0.30611132972E+02  0.26382696497E+03  0.26854860141E+03  0.00000000000E+00 0. -1.
         11    1    1    2    0    0 -0.39422471414E+02  0.16456374730E+01 -0.45543962632E+03  0.45714559234E+03  0.00000000000E+00 0.  1.
        -15    1    1    2    0    0  0.72681356686E+02 -0.42058437919E+02  0.22431121072E+03  0.23952070640E+03  0.17770000000E+01 0. -1.
         15    1    1    2    0    0  0.64480714908E+01  0.98016674741E+01 -0.32698549375E+02  0.34785099848E+02  0.17770000000E+01 0.  1.
</event>
<event>
 6    1  0.1860328E-003  0.5075673E+03  0.7546771E-02  0.9383035E-01
        -11   -1    0    0    0    0  0.00000000000E+00  0.00000000000E+00  0.50000000000E+03  0.50000000000E+03  0.00000000000E+00 0.  1.
         11   -1    0    0    0    0 -0.00000000000E+00 -0.00000000000E+00 -0.50000000000E+03  0.50000000000E+03  0.00000000000E+00 0. -1.
        -11    1    1    2    0    0  0.61948105807E+01  0.23639289515E+01  0.48299394490E+03  0.48303945455E+03  0.00000000000E+00 0.  1.
         11    1    1    2    0    0 -0.25147548675E+01 -0.98349551827E+01 -0.49232809741E+03  0.49243274245E+03  0.00000000000E+00 0. -1.
        -15    1    1    2    0    0 -0.78179498629E+01 -0.96150529412E+00 -0.32671355380E+01  0.87107253494E+01  0.17770000000E+01 0.  1.
         15    1    1    2    0    0  0.41378941498E+01  0.84325315254E+01  0.12601288048E+02  0.15817077650E+02  0.17770000000E+01 0. -1.
</event>
<event>
 6    1  0.1860328E-003  0.5023235E+03  0.7546771E-02  0.9394626E-01
        -11   -1    0    0    0    0  0.00000000000E+00  0.00000000000E+00  0.50000000000E+03  0.50000000000E+03  0.00000000000E+00 0.  1.
         11   -1    0    0    0    0 -0.00000000000E+00 -0.00000000000E+00 -0.50000000000E+03  0.50000000000E+03  0.00000000000E+00 0.  1.
        -11    1    1    2    0    0 -0.41475350217E+00 -0.49724792429E+00  0.39411479372E+02  0.39416798224E+02  0.00000000000E+00 0.  1.
         11    1    1    2    0    0  0.40802422116E+01  0.90680823258E+01 -0.49757714048E+03  0.49767649053E+03  0.00000000000E+00 0.  1.
        -15    1    1    2    0    0  0.88284518291E+01 -0.25924428445E+01  0.43947877508E+03  0.43957867759E+03  0.17770000000E+01 0.  1.
         15    1    1    2    0    0 -0.12493940539E+02 -0.59783915570E+01  0.18686886032E+02  0.23328033658E+02  0.17770000000E+01 0. -1.
</event>
<event>
 6    1  0.1860328E-003  0.5051602E+03  0.7546771E-02  0.9388337E-01
        -11   -1    0    0    0    0  0.00000000000E+00  0.00000000000E+00  0.50000000000E+03  0.50000000000E+03  0.00000000000E+00 0.  1.
         11   -1    0    0    0    0 -0.00000000000E+00 -0.00000000000E+00 -0.50000000000E+03  0.50000000000E+03  0.00000000000E+00 0.  1.
        -11    1    1    2    0    0  0.96375803092E+01  0.28715411139E+00  0.47025873950E+03  0.47035757407E+03  0.00000000000E+00 0.  1.
         11    1    1    2    0    0  0.48828769935E+01  0.53855550891E+01 -0.49478638670E+03  0.49483978736E+03  0.00000000000E+00 0.  1.
        -15    1    1    2    0    0 -0.15771643952E+02 -0.37114323118E+01  0.82588213232E+01  0.18272529694E+02  0.17770000000E+01 0.  1.
         15    1    1    2    0    0  0.12511866493E+01 -0.19612768887E+01  0.16268825879E+02  0.16530108879E+02  0.17770000000E+01 0. -1.
</event>
<event>
 6    1  0.1860328E-003  0.5027332E+03  0.7546771E-02  0.9393715E-01
        -11   -1    0    0    0    0  0.00000000000E+00  0.00000000000E+00  0.50000000000E+03  0.50000000000E+03  0.00000000000E+00 0. -1.
         11   -1    0    0    0    0 -0.00000000000E+00 -0.00000000000E+00 -0.50000000000E+03  0.50000000000E+03  0.00000000000E+00 0. -1.
        -11    1    1    2    0    0 -0.37282304728E+01 -0.70716924418E+01  0.49720256296E+03  0.49726682692E+03  0.00000000000E+00 0. -1.
         11    1    1    2    0    0  0.84995913583E+01 -0.18337958628E+01 -0.38681211458E+03  0.38690983167E+03  0.00000000000E+00 0. -1.
        -15    1    1    2    0    0 -0.35733023523E+01  0.45445647108E+01 -0.77188751967E+00  0.60971384644E+01  0.17770000000E+01 0.  1.
         15    1    1    2    0    0 -0.11980585332E+01  0.43609235938E+01 -0.10961856086E+03  0.10972620295E+03  0.17770000000E+01 0. -1.
</event>
<event>
 6    1  0.1860328E-003  0.5150359E+03  0.7546771E-02  0.9366780E-01
        -11   -1    0    0    0    0  0.00000000000E+00  0.00000000000E+00  0.50000000000E+03  0.50000000000E+03  0.00000000000E+00 0. -1.
         11   -1    0    0    0    0 -0.00000000000E+00 -0.00000000000E+00 -0.50000000000E+03  0.50000000000E+03  0.00000000000E+00 0. -1.
        -11    1    1    2    0    0 -0.51720118387E+01 -0.78397517702E+01  0.38084024556E+03  0.38095603952E+03  0.00000000000E+00 0. -1.
         11    1    1    2    0    0  0.12850111587E+02  0.11979883372E+02 -0.48464580155E+03  0.48496411819E+03  0.00000000000E+00 0. -1.
        -15    1    1    2    0    0  0.35747960071E+02 -0.14147053254E+02  0.61855727199E+02  0.72851523535E+02  0.17770000000E+01 0.  1.
         15    1    1    2    0    0 -0.43426059820E+02  0.10006921652E+02  0.41949828791E+02  0.61228318751E+02  0.17770000000E+01 0. -1.
</event>
<event>
 6    1  0.1860328E-003  0.5021017E+03  0.7546771E-02  0.9395119E-01
        -11   -1    0    0    0    0  0.00000000000E+00  0.00000000000E+00  0.50000000000E+03  0.50000000000E+03  0.00000000000E+00 0. -1.
         11   -1    0    0    0    0 -0.00000000000E+00 -0.00000000000E+00 -0.50000000000E+03  0.50000000000E+03  0.00000000000E+00 0. -1.
        -11    1    1    2    0    0 -0.21377082194E+02  0.40255301346E+01  0.49742288411E+03  0.49789829300E+03  0.00000000000E+00 0. -1.
         11    1    1    2    0    0  0.12413296308E+02 -0.14495163938E+01 -0.37751309620E+03  0.37771990791E+03  0.00000000000E+00 0. -1.
        -15    1    1    2    0    0  0.17022551180E+02  0.60306205772E+01 -0.44868963363E+02  0.48399558216E+02  0.17770000000E+01 0. -1.
         15    1    1    2    0    0 -0.80587652943E+01 -0.86066343180E+01 -0.75040824541E+02  0.75982240880E+02  0.17770000000E+01 0.  1.
</event>
<event>
 6    1  0.1860328E-003  0.5111486E+03  0.7546771E-02  0.9375204E-01
        -11   -1    0    0    0    0  0.00000000000E+00  0.00000000000E+00  0.50000000000E+03  0.50000000000E+03  0.00000000000E+00 0. -1.
         11   -1    0    0    0    0 -0.00000000000E+00 -0.00000000000E+00 -0.50000000000E+03  0.50000000000E+03  0.00000000000E+00 0. -1.
        -11    1    1    2    0    0  0.81728907655E+01  0.80706056022E+01  0.48871645096E+03  0.48885140918E+03  0.00000000000E+00 0. -1.
         11    1    1    2    0    0  0.73521304923E+01  0.29669418095E+01 -0.46677720201E+03  0.46684452753E+03  0.00000000000E+00 0. -1.
        -15    1    1    2    0    0 -0.84026685251E+01 -0.40475420926E+01 -0.29928053762E+02  0.31397986660E+02  0.17770000000E+01 0. -1.
         15    1    1    2    0    0 -0.71223527327E+01 -0.69900053191E+01  0.79888048149E+01  0.12906076638E+02  0.17770000000E+01 0. -1.
</event>
<event>
 6    1  0.1860328E-003  0.4520434E+03  0.7546771E-02  0.9514013E-01
        -11   -1    0    0    0    0  0.00000000000E+00  0.00000000000E+00  0.50000000000E+03  0.50000000000E+03  0.00000000000E+00 0.  1.
         11   -1    0    0    0    0 -0.00000000000E+00 -0.00000000000E+00 -0.50000000000E+03  0.50000000000E+03  0.00000000000E+00 0.  1.
        -11    1    1    2    0    0  0.28277132904E+01 -0.90653947322E+00  0.34436160761E+02  0.34563954407E+02  0.00000000000E+00 0.  1.
         11    1    1    2    0    0  0.61514859943E+01 -0.39165565764E+01 -0.43909897768E+03  0.43915952955E+03  0.00000000000E+00 0.  1.
        -15    1    1    2    0    0 -0.32006990038E+01  0.81776680587E+01  0.46522986099E+03  0.46531612911E+03  0.17770000000E+01 0.  1.
         15    1    1    2    0    0 -0.57785002809E+01 -0.33545720091E+01 -0.60567044071E+02  0.60960386936E+02  0.17770000000E+01 0. -1.
</event>
<event>
 6    1  0.1860328E-003  0.5023725E+03  0.7546771E-02  0.9394517E-01
        -11   -1    0    0    0    0  0.00000000000E+00  0.00000000000E+00  0.50000000000E+03  0.50000000000E+03  0.00000000000E+00 0.  1.
         11   -1    0    0    0    0 -0.00000000000E+00 -0.00000000000E+00 -0.50000000000E+03  0.50000000000E+03  0.00000000000E+00 0. -1.
        -11    1    1    2    0    0  0.85976402251E+01 -0.41806405662E+01  0.46739703551E+03  0.46749479781E+03  0.00000000000E+00 0.  1.
         11    1    1    2    0    0  0.34335720773E+01 -0.61178608120E+01 -0.49757805964E+03  0.49762751438E+03  0.00000000000E+00 0. -1.
        -15    1    1    2    0    0 -0.10014374798E+02  0.79572429381E+01  0.27615724108E+02  0.30485920764E+02  0.17770000000E+01 0.  1.
         15    1    1    2    0    0 -0.20168375045E+01  0.23412584400E+01  0.25653000164E+01  0.43917670449E+01  0.17770000000E+01 0. -1.
</event>
<event>
 6    1  0.1860328E-003  0.5131842E+03  0.7546771E-02  0.9370783E-01
        -11   -1    0    0    0    0  0.00000000000E+00  0.00000000000E+00  0.50000000000E+03  0.50000000000E+03  0.00000000000E+00 0. -1.
         11   -1    0    0    0    0 -0.00000000000E+00 -0.00000000000E+00 -0.50000000000E+03  0.50000000000E+03  0.00000000000E+00 0.  1.
        -11    1    1    2    0    0  0.10115399989E+02 -0.15538324719E+02  0.46250373133E+03  0.46287521250E+03  0.00000000000E+00 0. -1.
         11    1    1    2    0    0  0.12372470635E+01  0.17849020333E+02 -0.48648693719E+03  0.48681583618E+03  0.00000000000E+00 0.  1.
        -15    1    1    2    0    0  0.70723577652E+01 -0.11107677956E+02 -0.55179130800E+01  0.14387628286E+02  0.17770000000E+01 0.  1.
         15    1    1    2    0    0 -0.18425004817E+02  0.87969823425E+01  0.29501118931E+02  0.35921323027E+02  0.17770000000E+01 0. -1.
</event>
<event>
 6    1  0.1860328E-003  0.5071874E+03  0.7546771E-02  0.9383869E-01
        -11   -1    0    0    0    0  0.00000000000E+00  0.00000000000E+00  0.50000000000E+03  0.50000000000E+03  0.00000000000E+00 0. -1.
         11   -1    0    0    0    0 -0.00000000000E+00 -0.00000000000E+00 -0.50000000000E+03  0.50000000000E+03  0.00000000000E+00 0. -1.
        -11    1    1    2    0    0 -0.73370128137E+01  0.45576239516E+01  0.49273691392E+03  0.49281261147E+03  0.00000000000E+00 0. -1.
         11    1    1    2    0    0  0.24623491801E+01  0.64455467990E+01 -0.48190403550E+03  0.48195342894E+03  0.00000000000E+00 0. -1.
        -15    1    1    2    0    0  0.40610689536E+01 -0.57016741161E+01  0.47595034333E+01  0.86493913488E+01  0.17770000000E+01 0. -1.
         15    1    1    2    0    0  0.81359468001E+00 -0.53014966344E+01 -0.15592381847E+02  0.16584568235E+02  0.17770000000E+01 0.  1.
</event>
<event>
 6    1  0.1860328E-003  0.5005306E+03  0.7546771E-02  0.9398623E-01
        -11   -1    0    0    0    0  0.00000000000E+00  0.00000000000E+00  0.50000000000E+03  0.50000000000E+03  0.00000000000E+00 0. -1.
         11   -1    0    0    0    0 -0.00000000000E+00 -0.00000000000E+00 -0.50000000000E+03  0.50000000000E+03  0.00000000000E+00 0. -1.
        -11    1    1    2    0    0 -0.16230881726E+01  0.14634136839E+02  0.49925236893E+03  0.49946943876E+03  0.00000000000E+00 0. -1.
         11    1    1    2    0    0  0.44131912107E+01 -0.10683636001E+01 -0.24728742613E+03  0.24732911026E+03  0.00000000000E+00 0. -1.
        -15    1    1    2    0    0  0.68942715696E+01 -0.21129228278E+01 -0.14325156574E+03  0.14344394110E+03  0.17770000000E+01 0.  1.
         15    1    1    2    0    0 -0.96843746078E+01 -0.11452850411E+02 -0.10871337706E+03  0.10975750988E+03  0.17770000000E+01 0. -1.
</event>
<event>
 6    1  0.1860328E-003  0.5013235E+03  0.7546771E-02  0.9396853E-01
        -11   -1    0    0    0    0  0.00000000000E+00  0.00000000000E+00  0.50000000000E+03  0.50000000000E+03  0.00000000000E+00 0. -1.
         11   -1    0    0    0    0 -0.00000000000E+00 -0.00000000000E+00 -0.50000000000E+03  0.50000000000E+03  0.00000000000E+00 0. -1.
        -11    1    1    2    0    0 -0.90405644533E+01  0.68078981038E+01  0.49854806903E+03  0.49867650478E+03  0.00000000000E+00 0. -1.
         11    1    1    2    0    0 -0.27140817978E+01 -0.60765684260E+01 -0.41716871613E+03  0.41722179790E+03  0.00000000000E+00 0. -1.
        -15    1    1    2    0    0  0.61224614403E+01  0.79784884285E+01 -0.49080567429E+02  0.50131832600E+02  0.17770000000E+01 0.  1.
         15    1    1    2    0    0  0.56321848109E+01 -0.87098181063E+01 -0.32298785472E+02  0.33969864721E+02  0.17770000000E+01 0. -1.
</event>
<event>
 6    1  0.1860328E-003  0.5095180E+03  0.7546771E-02  0.9378761E-01
        -11   -1    0    0    0    0  0.00000000000E+00  0.00000000000E+00  0.50000000000E+03  0.50000000000E+03  0.00000000000E+00 0.  1.
         11   -1    0    0    0    0 -0.00000000000E+00 -0.00000000000E+00 -0.50000000000E+03  0.50000000000E+03  0.00000000000E+00 0.  1.
        -11    1    1    2    0    0  0.60977993589E+01 -0.74949153011E+01  0.45012641813E+03  0.45023010695E+03  0.00000000000E+00 0.  1.
         11    1    1    2    0    0  0.59307224428E+01 -0.16780777480E+02 -0.49015893505E+03  0.49048195641E+03  0.00000000000E+00 0.  1.
        -15    1    1    2    0    0 -0.18776448309E+02  0.11671244475E+02  0.38972632986E+02  0.44841909076E+02  0.17770000000E+01 0. -1.
         15    1    1    2    0    0  0.67479265076E+01  0.12604448306E+02  0.10598839336E+01  0.14446027558E+02  0.17770000000E+01 0.  1.
</event>
<event>
 6    1  0.1860328E-003  0.5044880E+03  0.7546771E-02  0.9389823E-01
        -11   -1    0    0    0    0  0.00000000000E+00  0.00000000000E+00  0.50000000000E+03  0.50000000000E+03  0.00000000000E+00 0. -1.
         11   -1    0    0    0    0 -0.00000000000E+00 -0.00000000000E+00 -0.50000000000E+03  0.50000000000E+03  0.00000000000E+00 0.  1.
        -11    1    1    2    0    0 -0.14184818121E+01 -0.14974826105E+02  0.49528366700E+03  0.49551202640E+03  0.00000000000E+00 0. -1.
         11    1    1    2    0    0 -0.33326910195E+01  0.63232980294E+01 -0.47124581426E+03  0.47130001951E+03  0.00000000000E+00 0.  1.
        -15    1    1    2    0    0  0.81362417127E+01  0.15226280448E+01 -0.23615957396E+02  0.25087606464E+02  0.17770000000E+01 0.  1.
         15    1    1    2    0    0 -0.33850688811E+01  0.71289000310E+01 -0.42189534622E+00  0.81003476262E+01  0.17770000000E+01 0. -1.
</event>
<event>
 6    1  0.1860328E-003  0.5234501E+03  0.7546771E-02  0.9348815E-01
        -11   -1    0    0    0    0  0.00000000000E+00  0.00000000000E+00  0.50000000000E+03  0.50000000000E+03  0.00000000000E+00 0. -1.
         11   -1    0    0    0    0 -0.00000000000E+00 -0.00000000000E+00 -0.50000000000E+03  0.50000000000E+03  0.00000000000E+00 0. -1.
        -11    1    1    2    0    0  0.10373712210E+02 -0.58591925106E+00  0.47349027793E+03  0.47360426571E+03  0.00000000000E+00 0. -1.
         11    1    1    2    0    0 -0.87778686680E+01  0.23228120260E+01 -0.47646334969E+03  0.47654986101E+03  0.00000000000E+00 0. -1.
        -15    1    1    2    0    0 -0.21684266379E+02 -0.13549348980E+02 -0.27659921508E+01  0.25779850809E+02  0.17770000000E+01 0. -1.
         15    1    1    2    0    0  0.20088422837E+02  0.11812456205E+02  0.57390639118E+01  0.24066022465E+02  0.17770000000E+01 0.  1.
</event>
<event>
 6    1  0.1860328E-003  0.5004917E+03  0.7546771E-02  0.9398710E-01
        -11   -1    0    0    0    0  0.00000000000E+00  0.00000000000E+00  0.50000000000E+03  0.50000000000E+03  0.00000000000E+00 0. -1.
         11   -1    0    0    0    0 -0.00000000000E+00 -0.00000000000E+00 -0.50000000000E+03  0.50000000000E+03  0.00000000000E+00 0.  1.
        -11    1    1    2    0    0 -0.37463556184E+01 -0.98893993458E+01  0.49939633642E+03  0.49950829446E+03  0.00000000000E+00 0. -1.
         11    1    1    2    0    0  0.57749397514E+01  0.82004971272E+01 -0.40262198729E+03  0.40274689662E+03  0.00000000000E+00 0.  1.
        -15    1    1    2    0    0  0.22279531365E+01 -0.47064428251E+01 -0.29380206212E+02  0.29890945541E+02  0.17770000000E+01 0. -1.
         15    1    1    2    0    0 -0.42565372695E+01  0.63953450438E+01 -0.67394142917E+02  0.67853863385E+02  0.17770000000E+01 0.  1.
</event>
<event>
 6    1  0.1860328E-003  0.5007391E+03  0.7546771E-02  0.9398158E-01
        -11   -1    0    0    0    0  0.00000000000E+00  0.00000000000E+00  0.50000000000E+03  0.50000000000E+03  0.00000000000E+00 0.  1.
         11   -1    0    0    0    0 -0.00000000000E+00 -0.00000000000E+00 -0.50000000000E+03  0.50000000000E+03  0.00000000000E+00 0.  1.
        -11    1    1    2    0    0  0.15679890309E+01  0.96013695753E+00  0.65231222579E+02  0.65257128743E+02  0.00000000000E+00 0.  1.
         11    1    1    2    0    0  0.50005544633E+01  0.62015850067E+01 -0.49919736989E+03  0.49926093309E+03  0.00000000000E+00 0.  1.
        -15    1    1    2    0    0  0.71370255230E+01  0.90008884013E+01  0.25363881683E+03  0.25390502212E+03  0.17770000000E+01 0.  1.
         15    1    1    2    0    0 -0.13705569017E+02 -0.16162610366E+02  0.18032733048E+03  0.18157691605E+03  0.17770000000E+01 0. -1.
</event>
<event>
 6    1  0.1860328E-003  0.5060278E+03  0.7546771E-02  0.9386422E-01
        -11   -1    0    0    0    0  0.00000000000E+00  0.00000000000E+00  0.50000000000E+03  0.50000000000E+03  0.00000000000E+00 0.  1.
         11   -1    0    0    0    0 -0.00000000000E+00 -0.00000000000E+00 -0.50000000000E+03  0.50000000000E+03  0.00000000000E+00 0.  1.
        -11    1    1    2    0    0  0.16072553319E+02  0.35883445552E+01  0.49369758392E+03  0.49397217285E+03  0.00000000000E+00 0.  1.
         11    1    1    2    0    0  0.68011913684E+01 -0.10064865680E+02 -0.44468038869E+03  0.44484627211E+03  0.00000000000E+00 0.  1.
        -15    1    1    2    0    0 -0.19281522799E+01 -0.24620277168E+01  0.27965970782E+01  0.45560987600E+01  0.17770000000E+01 0. -1.
         15    1    1    2    0    0 -0.20945592408E+02  0.89385488420E+01 -0.51813792305E+02  0.56625456279E+02  0.17770000000E+01 0.  1.
</event>
<event>
 6    1  0.1860328E-003  0.5319750E+03  0.7546771E-02  0.9330975E-01
        -11   -1    0    0    0    0  0.00000000000E+00  0.00000000000E+00  0.50000000000E+03  0.50000000000E+03  0.00000000000E+00 0. -1.
         11   -1    0    0    0    0 -0.00000000000E+00 -0.00000000000E+00 -0.50000000000E+03  0.50000000000E+03  0.00000000000E+00 0.  1.
        -11    1    1    2    0    0 -0.91852111875E+01 -0.65988326004E+01  0.46788837234E+03  0.46802504384E+03  0.00000000000E+00 0. -1.
         11    1    1    2    0    0 -0.92304646255E+01 -0.44854558873E+01 -0.43773552049E+03  0.43785580582E+03  0.00000000000E+00 0.  1.
        -15    1    1    2    0    0  0.26682082428E+02  0.74139429036E+01  0.25512724580E+02  0.37695582189E+02  0.17770000000E+01 0.  1.
         15    1    1    2    0    0 -0.82664066146E+01  0.36703455841E+01 -0.55665576429E+02  0.56423568154E+02  0.17770000000E+01 0. -1.
</event>
<event>
 6    1  0.1860328E-003  0.5004183E+03  0.7546771E-02  0.9398874E-01
        -11   -1    0    0    0    0  0.00000000000E+00  0.00000000000E+00  0.50000000000E+03  0.50000000000E+03  0.00000000000E+00 0. -1.
         11   -1    0    0    0    0 -0.00000000000E+00 -0.00000000000E+00 -0.50000000000E+03  0.50000000000E+03  0.00000000000E+00 0. -1.
        -11    1    1    2    0    0 -0.85266474005E+01  0.61413976774E+01  0.49947117661E+03  0.49958170177E+03  0.00000000000E+00 0. -1.
         11    1    1    2    0    0 -0.16916158706E+01 -0.36525633480E+01 -0.10596231837E+03  0.10603874621E+03  0.00000000000E+00 0. -1.
        -15    1    1    2    0    0  0.12721322545E+02 -0.11061067183E+02 -0.23627637225E+03  0.23688364457E+03  0.17770000000E+01 0. -1.
         15    1    1    2    0    0 -0.25030592741E+01  0.85722328531E+01 -0.15723248599E+03  0.15749590745E+03  0.17770000000E+01 0.  1.
</event>
<event>
 6    1  0.1860328E-003  0.4695763E+03  0.7546771E-02  0.9470583E-01
        -11   -1    0    0    0    0  0.00000000000E+00  0.00000000000E+00  0.50000000000E+03  0.50000000000E+03  0.00000000000E+00 0. -1.
         11   -1    0    0    0    0 -0.00000000000E+00 -0.00000000000E+00 -0.50000000000E+03  0.50000000000E+03  0.00000000000E+00 0.  1.
        -11    1    1    2    0    0  0.47303930760E+01 -0.18300933683E+02  0.47295728877E+03  0.47333486856E+03  0.00000000000E+00 0. -1.
         11    1    1    2    0    0  0.11193084928E+02 -0.18909063743E+02 -0.46619624787E+03  0.46671380884E+03  0.00000000000E+00 0.  1.
        -15    1    1    2    0    0 -0.78630256528E+01  0.14367262472E+02  0.18592509349E+02  0.24841186289E+02  0.17770000000E+01 0. -1.
         15    1    1    2    0    0 -0.80604523516E+01  0.22842734953E+02 -0.25353550253E+02  0.35110136310E+02  0.17770000000E+01 0.  1.
</event>
<event>
 6    1  0.1860328E-003  0.5145131E+03  0.7546771E-02  0.9367909E-01
        -11   -1    0    0    0    0  0.00000000000E+00  0.00000000000E+00  0.50000000000E+03  0.50000000000E+03  0.00000000000E+00 0. -1.
         11   -1    0    0    0    0 -0.00000000000E+00 -0.00000000000E+00 -0.50000000000E+03  0.50000000000E+03  0.00000000000E+00 0. -1.
        -11    1    1    2    0    0 -0.52243883489E+02 -0.21348706054E+02  0.48219531608E+03  0.48548688289E+03  0.00000000000E+00 0. -1.
         11    1    1    2    0    0  0.43151460320E+01  0.17841689284E+02 -0.28232084912E+03  0.28291696345E+03  0.00000000000E+00 0. -1.
        -15    1    1    2    0    0  0.32968960093E+02  0.14863114038E+02 -0.58750407814E+01  0.36681580142E+02  0.17770000000E+01 0.  1.
         15    1    1    2    0    0  0.14959777364E+02 -0.11356097268E+02 -0.19399942618E+03  0.19491457352E+03  0.17770000000E+01 0. -1.
</event>
<event>
 6    1  0.1860328E-003  0.5131446E+03  0.7546771E-02  0.9370869E-01
        -11   -1    0    0    0    0  0.00000000000E+00  0.00000000000E+00  0.50000000000E+03  0.50000000000E+03  0.00000000000E+00 0. -1.
         11   -1    0    0    0    0 -0.00000000000E+00 -0.00000000000E+00 -0.50000000000E+03  0.50000000000E+03  0.00000000000E+00 0. -1.
        -11    1    1    2    0    0  0.20999141616E+01  0.81404459618E+01  0.42342372258E+03  0.42350717271E+03  0.00000000000E+00 0. -1.
         11    1    1    2    0    0 -0.11086766840E+02 -0.36829333018E+02 -0.48533374667E+03  0.48685538081E+03  0.00000000000E+00 0. -1.
        -15    1    1    2    0    0  0.11058563660E+02  0.40483972555E+02  0.20976762561E+02  0.46951316920E+02  0.17770000000E+01 0.  1.
         15    1    1    2    0    0 -0.20717109815E+01 -0.11795085499E+02  0.40933261529E+02  0.42686129559E+02  0.17770000000E+01 0. -1.
</event>
<event>
 6    1  0.1860328E-003  0.5012940E+03  0.7546771E-02  0.9396919E-01
        -11   -1    0    0    0    0  0.00000000000E+00  0.00000000000E+00  0.50000000000E+03  0.50000000000E+03  0.00000000000E+00 0. -1.
         11   -1    0    0    0    0 -0.00000000000E+00 -0.00000000000E+00 -0.50000000000E+03  0.50000000000E+03  0.00000000000E+00 0. -1.
        -11    1    1    2    0    0 -0.16857174033E+01 -0.10896616316E+02  0.49858411178E+03  0.49870602003E+03  0.00000000000E+00 0. -1.
         11    1    1    2    0    0 -0.49563598550E+01  0.48001408068E+00 -0.10850696229E+03  0.10862116176E+03  0.00000000000E+00 0. -1.
        -15    1    1    2    0    0 -0.47073602809E+01  0.92672356000E+01 -0.21817575566E+02  0.24232317864E+02  0.17770000000E+01 0.  1.
         15    1    1    2    0    0  0.11349437539E+02  0.11493666358E+01 -0.36825957393E+03  0.36844050034E+03  0.17770000000E+01 0. -1.
</event>
<event>
 6    1  0.1860328E-003  0.5061680E+03  0.7546771E-02  0.9386113E-01
        -11   -1    0    0    0    0  0.00000000000E+00  0.00000000000E+00  0.50000000000E+03  0.50000000000E+03  0.00000000000E+00 0. -1.
         11   -1    0    0    0    0 -0.00000000000E+00 -0.00000000000E+00 -0.50000000000E+03  0.50000000000E+03  0.00000000000E+00 0.  1.
        -11    1    1    2    0    0  0.16857917375E+02  0.58089040052E+01  0.19672325547E+03  0.19752967368E+03  0.00000000000E+00 0. -1.
         11    1    1    2    0    0  0.24503476527E+01  0.66054184665E+01 -0.49378174149E+03  0.49383199976E+03  0.00000000000E+00 0.  1.
        -15    1    1    2    0    0 -0.32974824360E+02  0.78928591013E+01  0.26992597262E+03  0.27205298141E+03  0.17770000000E+01 0. -1.
         15    1    1    2    0    0  0.13666559332E+02 -0.20307181573E+02  0.27132513397E+02  0.36585345149E+02  0.17770000000E+01 0.  1.
</event>
<event>
 6    1  0.1860328E-003  0.5577065E+03  0.7546771E-02  0.9279207E-01
        -11   -1    0    0    0    0  0.00000000000E+00  0.00000000000E+00  0.50000000000E+03  0.50000000000E+03  0.00000000000E+00 0. -1.
         11   -1    0    0    0    0 -0.00000000000E+00 -0.00000000000E+00 -0.50000000000E+03  0.50000000000E+03  0.00000000000E+00 0. -1.
        -11    1    1    2    0    0 -0.39045884876E+01 -0.44681869628E+01  0.40328012037E+03  0.40332377315E+03  0.00000000000E+00 0. -1.
         11    1    1    2    0    0 -0.10542845203E+02 -0.51926507658E+01 -0.44213732751E+03  0.44229349033E+03  0.00000000000E+00 0. -1.
        -15    1    1    2    0    0  0.37796842435E+02 -0.23419885760E+02 -0.43727466707E+02  0.62388632143E+02  0.17770000000E+01 0.  1.
         15    1    1    2    0    0 -0.23349408745E+02  0.33080723489E+02  0.82584673854E+02  0.91994104376E+02  0.17770000000E+01 0. -1.
</event>
<event>
 6    1  0.1860328E-003  0.5414328E+03  0.7546771E-02  0.9311593E-01
        -11   -1    0    0    0    0  0.00000000000E+00  0.00000000000E+00  0.50000000000E+03  0.50000000000E+03  0.00000000000E+00 0. -1.
         11   -1    0    0    0    0 -0.00000000000E+00 -0.00000000000E+00 -0.50000000000E+03  0.50000000000E+03  0.00000000000E+00 0. -1.
        -11    1    1    2    0    0  0.12622684265E+02 -0.14715504869E+02  0.36608053163E+03  0.36659355406E+03  0.00000000000E+00 0. -1.
         11    1    1    2    0    0 -0.28951350833E+02 -0.19931045727E+02 -0.45721813375E+03  0.45856716970E+03  0.00000000000E+00 0. -1.
        -15    1    1    2    0    0  0.33442505707E+02  0.36350928811E+02  0.12631586946E+03  0.13564161537E+03  0.17770000000E+01 0. -1.
         15    1    1    2    0    0 -0.17113839139E+02 -0.17043782146E+01 -0.35178267345E+02  0.39197660868E+02  0.17770000000E+01 0.  1.
</event>
<event>
 6    1  0.1860328E-003  0.5069179E+03  0.7546771E-02  0.9384462E-01
        -11   -1    0    0    0    0  0.00000000000E+00  0.00000000000E+00  0.50000000000E+03  0.50000000000E+03  0.00000000000E+00 0.  1.
         11   -1    0    0    0    0 -0.00000000000E+00 -0.00000000000E+00 -0.50000000000E+03  0.50000000000E+03  0.00000000000E+00 0.  1.
        -11    1    1    2    0    0  0.23866611102E+02  0.37730005300E+02  0.32058613179E+03  0.32367983614E+03  0.00000000000E+00 0.  1.
         11    1    1    2    0    0  0.70588646622E+01  0.11702731438E+01 -0.49303022680E+03  0.49308214493E+03  0.00000000000E+00 0.  1.
        -15    1    1    2    0    0 -0.22621948603E+02 -0.44000041183E+02  0.15906629189E+03  0.16659231413E+03  0.17770000000E+01 0.  1.
         15    1    1    2    0    0 -0.83035271608E+01  0.50997627386E+01  0.13377803113E+02  0.16645704804E+02  0.17770000000E+01 0. -1.
</event>
<event>
 6    1  0.1860328E-003  0.5001862E+03  0.7546771E-02  0.9399393E-01
        -11   -1    0    0    0    0  0.00000000000E+00  0.00000000000E+00  0.50000000000E+03  0.50000000000E+03  0.00000000000E+00 0. -1.
         11   -1    0    0    0    0 -0.00000000000E+00 -0.00000000000E+00 -0.50000000000E+03  0.50000000000E+03  0.00000000000E+00 0.  1.
        -11    1    1    2    0    0 -0.11244850587E+02  0.67096086729E+01  0.49964221181E+03  0.49981377066E+03  0.00000000000E+00 0. -1.
         11    1    1    2    0    0 -0.21053027696E+01 -0.56486259288E+00 -0.11903037541E+03  0.11905033238E+03  0.00000000000E+00 0.  1.
        -15    1    1    2    0    0 -0.21041767809E+01  0.86664426550E+00 -0.62782060337E+02  0.62848416538E+02  0.17770000000E+01 0. -1.
         15    1    1    2    0    0  0.15454330137E+02 -0.70113903455E+01 -0.31782977606E+03  0.31828748043E+03  0.17770000000E+01 0.  1.
</event>
<event>
 6    1  0.1860328E-003  0.5012419E+03  0.7546771E-02  0.9397035E-01
        -11   -1    0    0    0    0  0.00000000000E+00  0.00000000000E+00  0.50000000000E+03  0.50000000000E+03  0.00000000000E+00 0. -1.
         11   -1    0    0    0    0 -0.00000000000E+00 -0.00000000000E+00 -0.50000000000E+03  0.50000000000E+03  0.00000000000E+00 0.  1.
        -11    1    1    2    0    0  0.15034792567E+01  0.10168382370E+02  0.49865221835E+03  0.49875814912E+03  0.00000000000E+00 0. -1.
         11    1    1    2    0    0 -0.52318876797E+01 -0.22998903048E+01 -0.41388663851E+03  0.41392609446E+03  0.00000000000E+00 0.  1.
        -15    1    1    2    0    0  0.82626264954E+01  0.23630443283E+01 -0.25262703877E+02  0.26743539618E+02  0.17770000000E+01 0. -1.
         15    1    1    2    0    0 -0.45342180724E+01 -0.10231536394E+02 -0.59502875966E+02  0.60572216798E+02  0.17770000000E+01 0.  1.
</event>
<event>
 6    1  0.1860328E-003  0.5095371E+03  0.7546771E-02  0.9378719E-01
        -11   -1    0    0    0    0  0.00000000000E+00  0.00000000000E+00  0.50000000000E+03  0.50000000000E+03  0.00000000000E+00 0.  1.
         11   -1    0    0    0    0 -0.00000000000E+00 -0.00000000000E+00 -0.50000000000E+03  0.50000000000E+03  0.00000000000E+00 0. -1.
        -11    1    1    2    0    0  0.34984671472E+01  0.61280856413E+01  0.49041217162E+03  0.49046293517E+03  0.00000000000E+00 0.  1.
         11    1    1    2    0    0  0.43897214661E+01  0.67683778595E+01 -0.47876637538E+03  0.47883433752E+03  0.00000000000E+00 0. -1.
        -15    1    1    2    0    0 -0.93734730642E+01 -0.34087254324E+01  0.50807541938E+01  0.11333719537E+02  0.17770000000E+01 0.  1.
         15    1    1    2    0    0  0.14852844509E+01 -0.94877380685E+01 -0.16726550435E+02  0.19369007770E+02  0.17770000000E+01 0. -1.
</event>
<event>
 6    1  0.1860328E-003  0.5142683E+03  0.7546771E-02  0.9368437E-01
        -11   -1    0    0    0    0  0.00000000000E+00  0.00000000000E+00  0.50000000000E+03  0.50000000000E+03  0.00000000000E+00 0.  1.
         11   -1    0    0    0    0 -0.00000000000E+00 -0.00000000000E+00 -0.50000000000E+03  0.50000000000E+03  0.00000000000E+00 0. -1.
        -11    1    1    2    0    0  0.63581285143E+01  0.22292815677E+01  0.48568496966E+03  0.48573170089E+03  0.00000000000E+00 0.  1.
         11    1    1    2    0    0 -0.36842288293E+01  0.40462879968E+01 -0.36131725111E+03  0.36135868875E+03  0.00000000000E+00 0. -1.
        -15    1    1    2    0    0  0.26193525228E+02 -0.24033992238E+02 -0.11076993798E+03  0.11634805730E+03  0.17770000000E+01 0. -1.
         15    1    1    2    0    0 -0.28867424913E+02  0.17758422674E+02 -0.13597780569E+02  0.36561553063E+02  0.17770000000E+01 0.  1.
</event>
<event>
 6    1  0.1860328E-003  0.4766710E+03  0.7546771E-02  0.9453578E-01
        -11   -1    0    0    0    0  0.00000000000E+00  0.00000000000E+00  0.50000000000E+03  0.50000000000E+03  0.00000000000E+00 0.  1.
         11   -1    0    0    0    0 -0.00000000000E+00 -0.00000000000E+00 -0.50000000000E+03  0.50000000000E+03  0.00000000000E+00 0. -1.
        -11    1    1    2    0    0 -0.28127600071E+00  0.10820610544E+02  0.47838647871E+03  0.47850892128E+03  0.00000000000E+00 0.  1.
         11    1    1    2    0    0  0.40127374979E+01  0.52829686372E+01 -0.47493634973E+03  0.47498268191E+03  0.00000000000E+00 0. -1.
        -15    1    1    2    0    0 -0.74494760653E+01 -0.10927967060E+02 -0.22601284163E+02  0.26246731845E+02  0.17770000000E+01 0. -1.
         15    1    1    2    0    0  0.37180145681E+01 -0.51756121209E+01  0.19151155186E+02  0.20261664964E+02  0.17770000000E+01 0.  1.
</event>
<event>
 6    1  0.1860328E-003  0.5012884E+03  0.7546771E-02  0.9396931E-01
        -11   -1    0    0    0    0  0.00000000000E+00  0.00000000000E+00  0.50000000000E+03  0.50000000000E+03  0.00000000000E+00 0.  1.
         11   -1    0    0    0    0 -0.00000000000E+00 -0.00000000000E+00 -0.50000000000E+03  0.50000000000E+03  0.00000000000E+00 0. -1.
        -11    1    1    2    0    0 -0.13014459442E+02 -0.76705195723E+01  0.49848277615E+03  0.49871163125E+03  0.00000000000E+00 0.  1.
         11    1    1    2    0    0  0.23873087034E+01  0.29491227682E+01 -0.27626762627E+03  0.27629368051E+03  0.00000000000E+00 0. -1.
        -15    1    1    2    0    0  0.20893642669E+02  0.78496745514E+01 -0.18053984443E+03  0.18192293657E+03  0.17770000000E+01 0. -1.
         15    1    1    2    0    0 -0.10266491930E+02 -0.31282777473E+01 -0.41675305456E+02  0.43071751672E+02  0.17770000000E+01 0.  1.
</event>
<event>
 6    1  0.1860328E-003  0.5158235E+03  0.7546771E-02  0.9365083E-01
        -11   -1    0    0    0    0  0.00000000000E+00  0.00000000000E+00  0.50000000000E+03  0.50000000000E+03  0.00000000000E+00 0. -1.
         11   -1    0    0    0    0 -0.00000000000E+00 -0.00000000000E+00 -0.50000000000E+03  0.50000000000E+03  0.00000000000E+00 0. -1.
        -11    1    1    2    0    0 -0.98289143584E+01 -0.19369339295E+02  0.45907982549E+03  0.45959336923E+03  0.00000000000E+00 0. -1.
         11    1    1    2    0    0 -0.15171876541E+02 -0.72384944635E+01 -0.48388461790E+03  0.48417652264E+03  0.00000000000E+00 0. -1.
        -15    1    1    2    0    0  0.24190573100E+02  0.15350286188E+01  0.17795873793E+02  0.30122931345E+02  0.17770000000E+01 0. -1.
         15    1    1    2    0    0  0.81021779963E+00  0.25072805140E+02  0.70089186138E+01  0.26107176783E+02  0.17770000000E+01 0.  1.
</event>
<event>
 6    1  0.1860328E-003  0.5031455E+03  0.7546771E-02  0.9392799E-01
        -11   -1    0    0    0    0  0.00000000000E+00  0.00000000000E+00  0.50000000000E+03  0.50000000000E+03  0.00000000000E+00 0. -1.
         11   -1    0    0    0    0 -0.00000000000E+00 -0.00000000000E+00 -0.50000000000E+03  0.50000000000E+03  0.00000000000E+00 0.  1.
        -11    1    1    2    0    0  0.25318696511E+01 -0.89815271350E+01  0.49676688877E+03  0.49685452596E+03  0.00000000000E+00 0. -1.
         11    1    1    2    0    0  0.43867825167E+00  0.71122850459E+01 -0.45676978981E+03  0.45682536917E+03  0.00000000000E+00 0.  1.
        -15    1    1    2    0    0 -0.80442262606E+01  0.60238720826E+01 -0.64076437668E+01  0.12050404086E+02  0.17770000000E+01 0. -1.
         15    1    1    2    0    0  0.50736783578E+01 -0.41546299936E+01 -0.33589455195E+02  0.34269700783E+02  0.17770000000E+01 0.  1.
</event>
<event>
 6    1  0.1860328E-003  0.5041982E+03  0.7546771E-02  0.9390465E-01
        -11   -1    0    0    0    0  0.00000000000E+00  0.00000000000E+00  0.50000000000E+03  0.50000000000E+03  0.00000000000E+00 0. -1.
         11   -1    0    0    0    0 -0.00000000000E+00 -0.00000000000E+00 -0.50000000000E+03  0.50000000000E+03  0.00000000000E+00 0.  1.
        -11    1    1    2    0    0 -0.21765609847E+02  0.29367383048E+02  0.49445243943E+03  0.49580177472E+03  0.00000000000E+00 0. -1.
         11    1    1    2    0    0 -0.58462659259E+01  0.27500371069E+01 -0.37973755015E+03  0.37979250720E+03  0.00000000000E+00 0.  1.
        -15    1    1    2    0    0  0.26879511309E+02 -0.27700096352E+02 -0.74695598871E+02  0.84097524849E+02  0.17770000000E+01 0.  1.
         15    1    1    2    0    0  0.73236446387E+00 -0.44173238027E+01 -0.40019290413E+02  0.40308193229E+02  0.17770000000E+01 0. -1.
</event>
<event>
 6    1  0.1860328E-003  0.5043995E+03  0.7546771E-02  0.9390019E-01
        -11   -1    0    0    0    0  0.00000000000E+00  0.00000000000E+00  0.50000000000E+03  0.50000000000E+03  0.00000000000E+00 0.  1.
         11   -1    0    0    0    0 -0.00000000000E+00 -0.00000000000E+00 -0.50000000000E+03  0.50000000000E+03  0.00000000000E+00 0. -1.
        -11    1    1    2    0    0  0.20018170938E+02  0.39817255538E+01  0.49518008546E+03  0.49560054312E+03  0.00000000000E+00 0.  1.
         11    1    1    2    0    0  0.14345495137E+02  0.10110528089E+02 -0.26357614304E+03  0.26415979859E+03  0.00000000000E+00 0. -1.
        -15    1    1    2    0    0  0.11055621924E+02 -0.14345136255E+02 -0.58327959874E+02  0.61100886592E+02  0.17770000000E+01 0. -1.
         15    1    1    2    0    0 -0.45419287999E+02  0.25288261186E+00 -0.17327598254E+03  0.17913877170E+03  0.17770000000E+01 0.  1.
</event>
<event>
 6    1  0.1860328E-003  0.5045828E+03  0.7546771E-02  0.9389613E-01
        -11   -1    0    0    0    0  0.00000000000E+00  0.00000000000E+00  0.50000000000E+03  0.50000000000E+03  0.00000000000E+00 0. -1.
         11   -1    0    0    0    0 -0.00000000000E+00 -0.00000000000E+00 -0.50000000000E+03  0.50000000000E+03  0.00000000000E+00 0.  1.
        -11    1    1    2    0    0 -0.74112114498E+01  0.17178823873E+02  0.10580325989E+03  0.10744471996E+03  0.00000000000E+00 0. -1.
         11    1    1    2    0    0 -0.18310732226E+01 -0.68039801034E+01 -0.49536708976E+03  0.49541719853E+03  0.00000000000E+00 0.  1.
        -15    1    1    2    0    0 -0.69849354375E+00  0.42006701493E+01 -0.21024222908E+01  0.50706440836E+01  0.17770000000E+01 0.  1.
         15    1    1    2    0    0  0.99407782162E+01 -0.14575513919E+02  0.39166625217E+03  0.39206743743E+03  0.17770000000E+01 0. -1.
</event>
<event>
 6    1  0.1860328E-003  0.5011472E+03  0.7546771E-02  0.9397246E-01
        -11   -1    0    0    0    0  0.00000000000E+00  0.00000000000E+00  0.50000000000E+03  0.50000000000E+03  0.00000000000E+00 0. -1.
         11   -1    0    0    0    0 -0.00000000000E+00 -0.00000000000E+00 -0.50000000000E+03  0.50000000000E+03  0.00000000000E+00 0. -1.
        -11    1    1    2    0    0  0.47016229792E+01 -0.20171813236E+01  0.21032267026E+03  0.21038488516E+03  0.00000000000E+00 0. -1.
         11    1    1    2    0    0 -0.15647126148E+02 -0.90480351419E+01 -0.49852525844E+03  0.49885281677E+03  0.00000000000E+00 0. -1.
        -15    1    1    2    0    0 -0.52534263554E+01  0.19073308987E+02  0.12764173007E+03  0.12917801124E+03  0.17770000000E+01 0.  1.
         15    1    1    2    0    0  0.16198929524E+02 -0.80080925217E+01  0.16056085812E+03  0.16158428683E+03  0.17770000000E+01 0. -1.
</event>
<event>
 6    1  0.1860328E-003  0.5000860E+03  0.7546771E-02  0.9399617E-01
        -11   -1    0    0    0    0  0.00000000000E+00  0.00000000000E+00  0.50000000000E+03  0.50000000000E+03  0.00000000000E+00 0. -1.
         11   -1    0    0    0    0 -0.00000000000E+00 -0.00000000000E+00 -0.50000000000E+03  0.50000000000E+03  0.00000000000E+00 0.  1.
        -11    1    1    2    0    0 -0.65474393594E+01  0.34541532669E+01  0.49985914773E+03  0.49991396030E+03  0.00000000000E+00 0. -1.
         11    1    1    2    0    0  0.32421596910E+01 -0.37712507433E+01 -0.35737465481E+03  0.35740925817E+03  0.00000000000E+00 0.  1.
        -15    1    1    2    0    0  0.34055714285E+01  0.22534282650E+01 -0.67874765669E+02  0.68020713017E+02  0.17770000000E+01 0.  1.
         15    1    1    2    0    0 -0.10029176015E+00 -0.19363307886E+01 -0.74609727252E+02  0.74656068507E+02  0.17770000000E+01 0. -1.
</event>
<event>
 6    1  0.1860328E-003  0.5019647E+03  0.7546771E-02  0.9395424E-01
        -11   -1    0    0    0    0  0.00000000000E+00  0.00000000000E+00  0.50000000000E+03  0.50000000000E+03  0.00000000000E+00 0.  1.
         11   -1    0    0    0    0 -0.00000000000E+00 -0.00000000000E+00 -0.50000000000E+03  0.50000000000E+03  0.00000000000E+00 0.  1.
        -11    1    1    2    0    0 -0.22949868178E+01 -0.98912560178E+01  0.39130679499E+03  0.39143851588E+03  0.00000000000E+00 0.  1.
         11    1    1    2    0    0 -0.12385038441E+02 -0.42887224223E+01 -0.49786281563E+03  0.49803530548E+03  0.00000000000E+00 0.  1.
        -15    1    1    2    0    0 -0.38842534437E+01  0.44223253327E+01  0.10296981105E+02  0.11992911867E+02  0.17770000000E+01 0.  1.
         15    1    1    2    0    0  0.18564278703E+02  0.97576531074E+01  0.96259039536E+02  0.98533266765E+02  0.17770000000E+01 0.  1.
</event>
<event>
 6    1  0.1860328E-003  0.5185994E+03  0.7546771E-02  0.9359128E-01
        -11   -1    0    0    0    0  0.00000000000E+00  0.00000000000E+00  0.50000000000E+03  0.50000000000E+03  0.00000000000E+00 0.  1.
         11   -1    0    0    0    0 -0.00000000000E+00 -0.00000000000E+00 -0.50000000000E+03  0.50000000000E+03  0.00000000000E+00 0. -1.
        -11    1    1    2    0    0 -0.14971378039E+02 -0.18095522895E+02  0.43307059950E+03  0.43370696820E+03  0.00000000000E+00 0.  1.
         11    1    1    2    0    0 -0.15546990022E+02  0.32875056661E+02 -0.48002506509E+03  0.48140060382E+03  0.00000000000E+00 0. -1.
        -15    1    1    2    0    0  0.83960735834E+01 -0.32188460650E+02  0.40665211675E+01  0.33560175417E+02  0.17770000000E+01 0.  1.
         15    1    1    2    0    0  0.22122294478E+02  0.17408926883E+02  0.42887944416E+02  0.51332252566E+02  0.17770000000E+01 0. -1.
</event>
<event>
 6    1  0.1860328E-003  0.4848189E+03  0.7546771E-02  0.9434434E-01
        -11   -1    0    0    0    0  0.00000000000E+00  0.00000000000E+00  0.50000000000E+03  0.50000000000E+03  0.00000000000E+00 0. -1.
         11   -1    0    0    0    0 -0.00000000000E+00 -0.00000000000E+00 -0.50000000000E+03  0.50000000000E+03  0.00000000000E+00 0. -1.
        -11    1    1    2    0    0  0.30956877367E+01  0.10361724253E+02  0.48424044017E+03  0.48436117981E+03  0.00000000000E+00 0. -1.
         11    1    1    2    0    0 -0.24618959845E+00  0.99620816581E+01 -0.48539226816E+03  0.48549454958E+03  0.00000000000E+00 0. -1.
        -15    1    1    2    0    0  0.61975132293E+01 -0.14489573865E+02  0.74762225409E+01  0.17533070281E+02  0.17770000000E+01 0. -1.
         15    1    1    2    0    0 -0.90470113676E+01 -0.58342320465E+01 -0.63243945469E+01  0.12611200325E+02  0.17770000000E+01 0.  1.
</event>
<event>
 6    1  0.1860328E-003  0.5259495E+03  0.7546771E-02  0.9343547E-01
        -11   -1    0    0    0    0  0.00000000000E+00  0.00000000000E+00  0.50000000000E+03  0.50000000000E+03  0.00000000000E+00 0.  1.
         11   -1    0    0    0    0 -0.00000000000E+00 -0.00000000000E+00 -0.50000000000E+03  0.50000000000E+03  0.00000000000E+00 0. -1.
        -11    1    1    2    0    0 -0.27609500150E+02  0.13673184800E+02  0.47304826227E+03  0.47405052359E+03  0.00000000000E+00 0.  1.
         11    1    1    2    0    0 -0.15285547890E+02  0.24637374652E+02 -0.43257512665E+03  0.43354571662E+03  0.00000000000E+00 0. -1.
        -15    1    1    2    0    0  0.20858674094E+02  0.58427259267E+01 -0.36989400478E+02  0.42902158546E+02  0.17770000000E+01 0. -1.
         15    1    1    2    0    0  0.22036373946E+02 -0.44153285378E+02 -0.34837351430E+01  0.49501601246E+02  0.17770000000E+01 0.  1.
</event>
<event>
 6    1  0.1860328E-003  0.5040659E+03  0.7546771E-02  0.9390758E-01
        -11   -1    0    0    0    0  0.00000000000E+00  0.00000000000E+00  0.50000000000E+03  0.50000000000E+03  0.00000000000E+00 0.  1.
         11   -1    0    0    0    0 -0.00000000000E+00 -0.00000000000E+00 -0.50000000000E+03  0.50000000000E+03  0.00000000000E+00 0.  1.
        -11    1    1    2    0    0 -0.63206137842E+01  0.40892736757E+01  0.47961063146E+03  0.47966970941E+03  0.00000000000E+00 0.  1.
         11    1    1    2    0    0  0.63506578436E+01  0.25110573897E+01 -0.49588703560E+03  0.49593405644E+03  0.00000000000E+00 0.  1.
        -15    1    1    2    0    0  0.33236313903E+01 -0.31117723599E+01 -0.20933106186E+01  0.53168911202E+01  0.17770000000E+01 0. -1.
         15    1    1    2    0    0 -0.33536754498E+01 -0.34885587054E+01  0.18369714758E+02  0.19079343022E+02  0.17770000000E+01 0.  1.
</event>
<event>
 6    1  0.1860328E-003  0.5012162E+03  0.7546771E-02  0.9397093E-01
        -11   -1    0    0    0    0  0.00000000000E+00  0.00000000000E+00  0.50000000000E+03  0.50000000000E+03  0.00000000000E+00 0. -1.
         11   -1    0    0    0    0 -0.00000000000E+00 -0.00000000000E+00 -0.50000000000E+03  0.50000000000E+03  0.00000000000E+00 0. -1.
        -11    1    1    2    0    0 -0.97816120729E+01 -0.58500184128E+01  0.42527461493E+03  0.42542731548E+03  0.00000000000E+00 0. -1.
         11    1    1    2    0    0  0.50425709618E+01 -0.45214534149E+01 -0.49873786215E+03  0.49878384718E+03  0.00000000000E+00 0. -1.
        -15    1    1    2    0    0  0.15840422454E+01  0.15776669152E+01  0.15497935013E+01  0.32492786318E+01  0.17770000000E+01 0.  1.
         15    1    1    2    0    0  0.31549988657E+01  0.87938049126E+01  0.71913453719E+02  0.72539558708E+02  0.17770000000E+01 0. -1.
</event>
<event>
 6    1  0.1860328E-003  0.5139610E+03  0.7546771E-02  0.9369102E-01
        -11   -1    0    0    0    0  0.00000000000E+00  0.00000000000E+00  0.50000000000E+03  0.50000000000E+03  0.00000000000E+00 0. -1.
         11   -1    0    0    0    0 -0.00000000000E+00 -0.00000000000E+00 -0.50000000000E+03  0.50000000000E+03  0.00000000000E+00 0. -1.
        -11    1    1    2    0    0  0.66353539490E+01  0.87215634460E+01  0.47691858340E+03  0.47704447255E+03  0.00000000000E+00 0. -1.
         11    1    1    2    0    0 -0.10330660665E+02  0.51440994178E+01 -0.48590200563E+03  0.48603903483E+03  0.00000000000E+00 0. -1.
        -15    1    1    2    0    0 -0.64200663555E+01 -0.95693883012E+01  0.18768094655E+02  0.22095011890E+02  0.17770000000E+01 0. -1.
         15    1    1    2    0    0  0.10115373072E+02 -0.42962745627E+01 -0.97846724291E+01  0.14821480731E+02  0.17770000000E+01 0. -1.
</event>
<event>
 6    1  0.1860328E-003  0.5155524E+03  0.7546771E-02  0.9365667E-01
        -11   -1    0    0    0    0  0.00000000000E+00  0.00000000000E+00  0.50000000000E+03  0.50000000000E+03  0.00000000000E+00 0. -1.
         11   -1    0    0    0    0 -0.00000000000E+00 -0.00000000000E+00 -0.50000000000E+03  0.50000000000E+03  0.00000000000E+00 0. -1.
        -11    1    1    2    0    0 -0.10441408853E-01 -0.14004745334E+02  0.45152824102E+03  0.45174537678E+03  0.00000000000E+00 0. -1.
         11    1    1    2    0    0 -0.44313657994E+01 -0.13179709042E+02 -0.48424801236E+03  0.48444760213E+03  0.00000000000E+00 0. -1.
        -15    1    1    2    0    0  0.30951311173E+01 -0.60991975320E+01  0.29453348247E+02  0.30289230745E+02  0.17770000000E+01 0. -1.
         15    1    1    2    0    0  0.13466760909E+01  0.33283651908E+02  0.32664230926E+01  0.33517790345E+02  0.17770000000E+01 0.  1.
</event>
<event>
 6    1  0.1860328E-003  0.5083072E+03  0.7546771E-02  0.9381411E-01
        -11   -1    0    0    0    0  0.00000000000E+00  0.00000000000E+00  0.50000000000E+03  0.50000000000E+03  0.00000000000E+00 0. -1.
         11   -1    0    0    0    0 -0.00000000000E+00 -0.00000000000E+00 -0.50000000000E+03  0.50000000000E+03  0.00000000000E+00 0. -1.
        -11    1    1    2    0    0 -0.79061341437E+01 -0.69829582608E+01  0.49157966488E+03  0.49169282646E+03  0.00000000000E+00 0. -1.
         11    1    1    2    0    0 -0.74686733962E+01 -0.70958118755E+01 -0.45470169613E+03  0.45481838583E+03  0.00000000000E+00 0. -1.
        -15    1    1    2    0    0 -0.10723830869E+01 -0.71222665373E-01  0.54822122774E+01  0.58623765324E+01  0.17770000000E+01 0.  1.
         15    1    1    2    0    0  0.16447190627E+02  0.14149992802E+02 -0.42360181033E+02  0.47626411181E+02  0.17770000000E+01 0. -1.
</event>
<event>
 6    1  0.1860328E-003  0.5085463E+03  0.7546771E-02  0.9380887E-01
        -11   -1    0    0    0    0  0.00000000000E+00  0.00000000000E+00  0.50000000000E+03  0.50000000000E+03  0.00000000000E+00 0. -1.
         11   -1    0    0    0    0 -0.00000000000E+00 -0.00000000000E+00 -0.50000000000E+03  0.50000000000E+03  0.00000000000E+00 0.  1.
        -11    1    1    2    0    0  0.12364056457E+02 -0.30134308276E+01  0.46634746960E+03  0.46652107462E+03  0.00000000000E+00 0. -1.
         11    1    1    2    0    0  0.47289152802E+01  0.15199400227E+02 -0.49119585123E+03  0.49145370960E+03  0.00000000000E+00 0.  1.
        -15    1    1    2    0    0 -0.11055425559E+02  0.49124279141E+01  0.19535246292E+02  0.23046430505E+02  0.17770000000E+01 0.  1.
         15    1    1    2    0    0 -0.60375461780E+01 -0.17098397313E+02  0.53131353383E+01  0.18978785279E+02  0.17770000000E+01 0. -1.
</event>
<event>
 6    1  0.1860328E-003  0.5071545E+03  0.7546771E-02  0.9383942E-01
        -11   -1    0    0    0    0  0.00000000000E+00  0.00000000000E+00  0.50000000000E+03  0.50000000000E+03  0.00000000000E+00 0.  1.
         11   -1    0    0    0    0 -0.00000000000E+00 -0.00000000000E+00 -0.50000000000E+03  0.50000000000E+03  0.00000000000E+00 0. -1.
        -11    1    1    2    0    0  0.21800407662E+01  0.10913594147E+02  0.48340857932E+03  0.48353667253E+03  0.00000000000E+00 0.  1.
         11    1    1    2    0    0 -0.67404838069E+01  0.25053916766E+01 -0.49279298929E+03  0.49284545387E+03  0.00000000000E+00 0. -1.
        -15    1    1    2    0    0  0.94123102609E+01 -0.65245409642E+01  0.95241677604E+01  0.15000957295E+02  0.17770000000E+01 0.  1.
         15    1    1    2    0    0 -0.48518672202E+01 -0.68944448590E+01 -0.13975779589E+00  0.86169163091E+01  0.17770000000E+01 0. -1.
</event>
<event>
 6    1  0.1860328E-003  0.5058632E+03  0.7546771E-02  0.9386785E-01
        -11   -1    0    0    0    0  0.00000000000E+00  0.00000000000E+00  0.50000000000E+03  0.50000000000E+03  0.00000000000E+00 0.  1.
         11   -1    0    0    0    0 -0.00000000000E+00 -0.00000000000E+00 -0.50000000000E+03  0.50000000000E+03  0.00000000000E+00 0.  1.
        -11    1    1    2    0    0  0.59197757050E+01 -0.10210034623E+02  0.33592974072E+03  0.33613699477E+03  0.00000000000E+00 0.  1.
         11    1    1    2    0    0  0.90692614153E+01  0.47877436880E+01 -0.49403032094E+03  0.49413675435E+03  0.00000000000E+00 0.  1.
        -15    1    1    2    0    0 -0.49657344680E+01  0.87125748115E+01  0.15868563087E+03  0.15901212108E+03  0.17770000000E+01 0.  1.
         15    1    1    2    0    0 -0.10023302652E+02 -0.32902838762E+01 -0.58505064957E+00  0.10714129797E+02  0.17770000000E+01 0. -1.
</event>
<event>
 6    1  0.1860328E-003  0.5001382E+03  0.7546771E-02  0.9399501E-01
        -11   -1    0    0    0    0  0.00000000000E+00  0.00000000000E+00  0.50000000000E+03  0.50000000000E+03  0.00000000000E+00 0. -1.
         11   -1    0    0    0    0 -0.00000000000E+00 -0.00000000000E+00 -0.50000000000E+03  0.50000000000E+03  0.00000000000E+00 0. -1.
        -11    1    1    2    0    0  0.15516517980E+02 -0.20794923505E+01  0.49961659082E+03  0.49986180534E+03  0.00000000000E+00 0. -1.
         11    1    1    2    0    0  0.10983779235E+01 -0.65856775798E+00 -0.78860702323E+02  0.78871100642E+02  0.00000000000E+00 0. -1.
        -15    1    1    2    0    0 -0.12700941541E+02  0.33734823500E+01 -0.38771524372E+03  0.38794195731E+03  0.17770000000E+01 0. -1.
         15    1    1    2    0    0 -0.39139543627E+01 -0.63542224151E+00 -0.33040644780E+02  0.33325136708E+02  0.17770000000E+01 0.  1.
</event>
<event>
 6    1  0.1860328E-003  0.5011737E+03  0.7546771E-02  0.9397187E-01
        -11   -1    0    0    0    0  0.00000000000E+00  0.00000000000E+00  0.50000000000E+03  0.50000000000E+03  0.00000000000E+00 0. -1.
         11   -1    0    0    0    0 -0.00000000000E+00 -0.00000000000E+00 -0.50000000000E+03  0.50000000000E+03  0.00000000000E+00 0.  1.
        -11    1    1    2    0    0  0.25513182577E+01 -0.78887017062E+01  0.49875743724E+03  0.49882634457E+03  0.00000000000E+00 0. -1.
         11    1    1    2    0    0  0.66167811120E+01 -0.32342050561E+00 -0.31800071163E+03  0.31806970775E+03  0.00000000000E+00 0.  1.
        -15    1    1    2    0    0 -0.54291304985E+01  0.23022382043E+01 -0.17023152341E+03  0.17034290432E+03  0.17770000000E+01 0. -1.
         15    1    1    2    0    0 -0.37389688712E+01  0.59098840075E+01 -0.10525202195E+02  0.12761043353E+02  0.17770000000E+01 0.  1.
</event>
<event>
 6    1  0.1860328E-003  0.5004191E+03  0.7546771E-02  0.9398872E-01
        -11   -1    0    0    0    0  0.00000000000E+00  0.00000000000E+00  0.50000000000E+03  0.50000000000E+03  0.00000000000E+00 0.  1.
         11   -1    0    0    0    0 -0.00000000000E+00 -0.00000000000E+00 -0.50000000000E+03  0.50000000000E+03  0.00000000000E+00 0. -1.
        -11    1    1    2    0    0  0.96209297686E+01 -0.19502964351E+01  0.49948440606E+03  0.49958086216E+03  0.00000000000E+00 0.  1.
         11    1    1    2    0    0  0.65028031665E+00  0.55305980089E+01 -0.31663695913E+03  0.31668592370E+03  0.00000000000E+00 0. -1.
        -15    1    1    2    0    0 -0.44684867384E+01  0.48400843443E+01 -0.47382563743E+02  0.47871273913E+02  0.17770000000E+01 0. -1.
         15    1    1    2    0    0 -0.58027233468E+01 -0.84203859181E+01 -0.13546488318E+03  0.13586194022E+03  0.17770000000E+01 0.  1.
</event>
<event>
 6    1  0.1860328E-003  0.5174376E+03  0.7546771E-02  0.9361615E-01
        -11   -1    0    0    0    0  0.00000000000E+00  0.00000000000E+00  0.50000000000E+03  0.50000000000E+03  0.00000000000E+00 0.  1.
         11   -1    0    0    0    0 -0.00000000000E+00 -0.00000000000E+00 -0.50000000000E+03  0.50000000000E+03  0.00000000000E+00 0.  1.
        -11    1    1    2    0    0  0.23107686877E+02  0.12163058477E+02  0.48185536768E+03  0.48256243176E+03  0.00000000000E+00 0.  1.
         11    1    1    2    0    0 -0.29542720764E+02 -0.45733685680E+01 -0.43650165464E+03  0.43752415082E+03  0.00000000000E+00 0.  1.
        -15    1    1    2    0    0 -0.21850014497E+02 -0.12002386618E+02  0.14340136763E+01  0.25033867905E+02  0.17770000000E+01 0. -1.
         15    1    1    2    0    0  0.28285048384E+02  0.44126967094E+01 -0.46787726721E+02  0.54879549515E+02  0.17770000000E+01 0. -1.
</event>
<event>
 6    1  0.1860328E-003  0.5054266E+03  0.7546771E-02  0.9387749E-01
        -11   -1    0    0    0    0  0.00000000000E+00  0.00000000000E+00  0.50000000000E+03  0.50000000000E+03  0.00000000000E+00 0. -1.
         11   -1    0    0    0    0 -0.00000000000E+00 -0.00000000000E+00 -0.50000000000E+03  0.50000000000E+03  0.00000000000E+00 0. -1.
        -11    1    1    2    0    0  0.14627186089E+02  0.16908849514E+00  0.49435706699E+03  0.49457344535E+03  0.00000000000E+00 0. -1.
         11    1    1    2    0    0  0.43527090993E+01  0.13312342551E+02 -0.38222060333E+03  0.38247712892E+03  0.00000000000E+00 0. -1.
        -15    1    1    2    0    0 -0.24246900745E+02 -0.13555655182E+01 -0.10506891957E+03  0.10785353653E+03  0.17770000000E+01 0.  1.
         15    1    1    2    0    0  0.52670055568E+01 -0.12125865528E+02 -0.70675440896E+01  0.15095889202E+02  0.17770000000E+01 0. -1.
</event>
<event>
 6    1  0.1860328E-003  0.5006068E+03  0.7546771E-02  0.9398453E-01
        -11   -1    0    0    0    0  0.00000000000E+00  0.00000000000E+00  0.50000000000E+03  0.50000000000E+03  0.00000000000E+00 0. -1.
         11   -1    0    0    0    0 -0.00000000000E+00 -0.00000000000E+00 -0.50000000000E+03  0.50000000000E+03  0.00000000000E+00 0. -1.
        -11    1    1    2    0    0  0.76420685904E+01 -0.16370289541E+01  0.49933204353E+03  0.49939320257E+03  0.00000000000E+00 0. -1.
         11    1    1    2    0    0 -0.53273535250E+01 -0.29410031402E+01 -0.44678079864E+03  0.44682223784E+03  0.00000000000E+00 0. -1.
        -15    1    1    2    0    0 -0.43239536282E+01 -0.13709100255E+01 -0.25090815874E+02  0.25559396306E+02  0.17770000000E+01 0. -1.
         15    1    1    2    0    0  0.20092385627E+01  0.59489421198E+01 -0.27460429016E+02  0.28225163289E+02  0.17770000000E+01 0.  1.
</event>
<event>
 6    1  0.1860328E-003  0.4849532E+03  0.7546771E-02  0.9434122E-01
        -11   -1    0    0    0    0  0.00000000000E+00  0.00000000000E+00  0.50000000000E+03  0.50000000000E+03  0.00000000000E+00 0.  1.
         11   -1    0    0    0    0 -0.00000000000E+00 -0.00000000000E+00 -0.50000000000E+03  0.50000000000E+03  0.00000000000E+00 0. -1.
        -11    1    1    2    0    0  0.87160212866E+01  0.95279754966E+01  0.49476560099E+03  0.49493408780E+03  0.00000000000E+00 0.  1.
         11    1    1    2    0    0  0.15395468994E+01 -0.22927728148E+01 -0.38838717330E+02  0.38936781783E+02  0.00000000000E+00 0. -1.
        -15    1    1    2    0    0 -0.23351365517E+02  0.37913609242E+02 -0.29899995140E+03  0.30230259130E+03  0.17770000000E+01 0.  1.
         15    1    1    2    0    0  0.13095797331E+02 -0.45148811924E+02 -0.15692693225E+03  0.16382653912E+03  0.17770000000E+01 0. -1.
</event>
<event>
 6    1  0.1860328E-003  0.5096002E+03  0.7546771E-02  0.9378581E-01
        -11   -1    0    0    0    0  0.00000000000E+00  0.00000000000E+00  0.50000000000E+03  0.50000000000E+03  0.00000000000E+00 0.  1.
         11   -1    0    0    0    0 -0.00000000000E+00 -0.00000000000E+00 -0.50000000000E+03  0.50000000000E+03  0.00000000000E+00 0. -1.
        -11    1    1    2    0    0 -0.56544610664E+01  0.37198090171E+01  0.48139344177E+03  0.48144101994E+03  0.00000000000E+00 0.  1.
         11    1    1    2    0    0  0.49204141667E+01  0.10628744798E+02 -0.49025993922E+03  0.49039982534E+03  0.00000000000E+00 0. -1.
        -15    1    1    2    0    0 -0.61058618194E+01 -0.12825309185E+02 -0.26530495480E+01  0.14559069515E+02  0.17770000000E+01 0.  1.
         15    1    1    2    0    0  0.68399087191E+01 -0.15232446301E+01  0.11519546997E+02  0.13600085202E+02  0.17770000000E+01 0.  1.
</event>
<event>
 6    1  0.1860328E-003  0.5067678E+03  0.7546771E-02  0.9384792E-01
        -11   -1    0    0    0    0  0.00000000000E+00  0.00000000000E+00  0.50000000000E+03  0.50000000000E+03  0.00000000000E+00 0. -1.
         11   -1    0    0    0    0 -0.00000000000E+00 -0.00000000000E+00 -0.50000000000E+03  0.50000000000E+03  0.00000000000E+00 0. -1.
        -11    1    1    2    0    0 -0.13369851686E+02 -0.10562062084E+01  0.49304985185E+03  0.49323222210E+03  0.00000000000E+00 0. -1.
         11    1    1    2    0    0  0.16783836019E+01  0.63654371220E+01 -0.34146764752E+03  0.34153109678E+03  0.00000000000E+00 0. -1.
        -15    1    1    2    0    0  0.96262774254E+01 -0.64499267453E+01 -0.15786215153E+03  0.15829682052E+03  0.17770000000E+01 0. -1.
         15    1    1    2    0    0  0.20651906589E+01  0.11406958318E+01  0.62799471987E+01  0.69398606079E+01  0.17770000000E+01 0.  1.
</event>
<event>
 6    1  0.1860328E-003  0.4499532E+03  0.7546771E-02  0.9519330E-01
        -11   -1    0    0    0    0  0.00000000000E+00  0.00000000000E+00  0.50000000000E+03  0.50000000000E+03  0.00000000000E+00 0. -1.
         11   -1    0    0    0    0 -0.00000000000E+00 -0.00000000000E+00 -0.50000000000E+03  0.50000000000E+03  0.00000000000E+00 0. -1.
        -11    1    1    2    0    0  0.81284225190E+01 -0.26053219312E+00  0.44811698490E+03  0.44819077555E+03  0.00000000000E+00 0. -1.
         11    1    1    2    0    0 -0.33529071475E+01  0.51005035550E+01 -0.45170720728E+03  0.45174844574E+03  0.00000000000E+00 0. -1.
        -15    1    1    2    0    0  0.11952082951E+02 -0.15243762501E+02 -0.44226233507E+02  0.48315029145E+02  0.17770000000E+01 0. -1.
         15    1    1    2    0    0 -0.16727598322E+02  0.10403791139E+02  0.47816455883E+02  0.51745749563E+02  0.17770000000E+01 0.  1.
</event>
<event>
 6    1  0.1860328E-003  0.5103298E+03  0.7546771E-02  0.9376988E-01
        -11   -1    0    0    0    0  0.00000000000E+00  0.00000000000E+00  0.50000000000E+03  0.50000000000E+03  0.00000000000E+00 0.  1.
         11   -1    0    0    0    0 -0.00000000000E+00 -0.00000000000E+00 -0.50000000000E+03  0.50000000000E+03  0.00000000000E+00 0.  1.
        -11    1    1    2    0    0 -0.87229247581E+01 -0.20764394820E+02  0.48915197618E+03  0.48967020055E+03  0.00000000000E+00 0.  1.
         11    1    1    2    0    0 -0.55609907447E+00 -0.85976317004E+01 -0.44905461774E+03  0.44913725990E+03  0.00000000000E+00 0.  1.
        -15    1    1    2    0    0  0.11092630412E+01  0.47609938108E+01 -0.34141859482E+02  0.34535804963E+02  0.17770000000E+01 0. -1.
         15    1    1    2    0    0  0.81697607914E+01  0.24601032710E+02 -0.59554989509E+01  0.26656734581E+02  0.17770000000E+01 0.  1.
</event>
<event>
 6    1  0.1860328E-003  0.5002127E+03  0.7546771E-02  0.9399334E-01
        -11   -1    0    0    0    0  0.00000000000E+00  0.00000000000E+00  0.50000000000E+03  0.50000000000E+03  0.00000000000E+00 0. -1.
         11   -1    0    0    0    0 -0.00000000000E+00 -0.00000000000E+00 -0.50000000000E+03  0.50000000000E+03  0.00000000000E+00 0.  1.
        -11    1    1    2    0    0 -0.10293710283E+01  0.44437817710E+00  0.76997457783E+02  0.77005620455E+02  0.00000000000E+00 0. -1.
         11    1    1    2    0    0 -0.24778190415E+01  0.10945453839E+02 -0.49966128477E+03  0.49978729680E+03  0.00000000000E+00 0.  1.
        -15    1    1    2    0    0 -0.52083256849E+01 -0.40662275757E+01  0.27833358454E+03  0.27841767702E+03  0.17770000000E+01 0. -1.
         15    1    1    2    0    0  0.87155157547E+01 -0.73236044407E+01  0.14433024245E+03  0.14478940573E+03  0.17770000000E+01 0.  1.
</event>
<event>
 6    1  0.1860328E-003  0.5007688E+03  0.7546771E-02  0.9398091E-01
        -11   -1    0    0    0    0  0.00000000000E+00  0.00000000000E+00  0.50000000000E+03  0.50000000000E+03  0.00000000000E+00 0. -1.
         11   -1    0    0    0    0 -0.00000000000E+00 -0.00000000000E+00 -0.50000000000E+03  0.50000000000E+03  0.00000000000E+00 0. -1.
        -11    1    1    2    0    0  0.66166313152E+01 -0.13471781092E+01  0.49918552057E+03  0.49923118758E+03  0.00000000000E+00 0. -1.
         11    1    1    2    0    0 -0.14615239225E+01 -0.61452850730E+01 -0.42415897604E+03  0.42420600837E+03  0.00000000000E+00 0. -1.
        -15    1    1    2    0    0 -0.80738813718E+01  0.54124903813E+01 -0.65336293130E+02  0.66079282241E+02  0.17770000000E+01 0. -1.
         15    1    1    2    0    0  0.29187739791E+01  0.20799728009E+01 -0.96902514021E+01  0.10483521814E+02  0.17770000000E+01 0. -1.
</event>
<event>
 6    1  0.1947720E-003  0.5954254E+03  0.7546771E-02  0.9208443E-01
        -11   -1    0    0    0    0  0.00000000000E+00  0.00000000000E+00  0.50000000000E+03  0.50000000000E+03  0.00000000000E+00 0. -1.
         11   -1    0    0    0    0 -0.00000000000E+00 -0.00000000000E+00 -0.50000000000E+03  0.50000000000E+03  0.00000000000E+00 0.  1.
        -11    1    1    2    0    0 -0.18982464832E+02  0.33090133194E+02  0.31733657476E+03  0.31962132683E+03  0.00000000000E+00 0. -1.
         11    1    1    2    0    0  0.16999509311E+02 -0.12779381933E+02 -0.40401519627E+03  0.40457456017E+03  0.00000000000E+00 0.  1.
        -15    1    1    2    0    0 -0.50536808806E+01  0.23632413049E+02 -0.90203098367E+02  0.93401216914E+02  0.17770000000E+01 0.  1.
         15    1    1    2    0    0  0.70366364010E+01 -0.43943164310E+02  0.17688171988E+03  0.18240289608E+03  0.17770000000E+01 0. -1.
</event>
<event>
 6    1  0.1860328E-003  0.5020494E+03  0.7546771E-02  0.9395236E-01
        -11   -1    0    0    0    0  0.00000000000E+00  0.00000000000E+00  0.50000000000E+03  0.50000000000E+03  0.00000000000E+00 0.  1.
         11   -1    0    0    0    0 -0.00000000000E+00 -0.00000000000E+00 -0.50000000000E+03  0.50000000000E+03  0.00000000000E+00 0.  1.
        -11    1    1    2    0    0 -0.96353539145E+01  0.97961185157E+01  0.49776095799E+03  0.49795057514E+03  0.00000000000E+00 0.  1.
         11    1    1    2    0    0  0.34431310852E+01 -0.60813223035E+01 -0.43581303577E+03  0.43586906266E+03  0.00000000000E+00 0.  1.
        -15    1    1    2    0    0  0.38954130314E+01 -0.12377637536E+02 -0.26307401770E+02  0.29387365832E+02  0.17770000000E+01 0. -1.
         15    1    1    2    0    0  0.22968097979E+01  0.86628413235E+01 -0.35640520449E+02  0.36792996371E+02  0.17770000000E+01 0.  1.
</event>
<event>
 6    1  0.1860328E-003  0.5056002E+03  0.7546771E-02  0.9387365E-01
        -11   -1    0    0    0    0  0.00000000000E+00  0.00000000000E+00  0.50000000000E+03  0.50000000000E+03  0.00000000000E+00 0. -1.
         11   -1    0    0    0    0 -0.00000000000E+00 -0.00000000000E+00 -0.50000000000E+03  0.50000000000E+03  0.00000000000E+00 0. -1.
        -11    1    1    2    0    0  0.98929450632E+01 -0.16541175355E+02  0.49402400043E+03  0.49439983197E+03  0.00000000000E+00 0. -1.
         11    1    1    2    0    0  0.87325796869E+01  0.33199846306E+01 -0.38518949995E+03  0.38530277849E+03  0.00000000000E+00 0. -1.
        -15    1    1    2    0    0 -0.23771685824E+02  0.25379202549E+02 -0.57129696783E+02  0.66904087711E+02  0.17770000000E+01 0.  1.
         15    1    1    2    0    0  0.51461610739E+01 -0.12158011824E+02 -0.51704803704E+02  0.53393301830E+02  0.17770000000E+01 0. -1.
</event>
<event>
 6    1  0.1860328E-003  0.5501345E+03  0.7546771E-02  0.9294128E-01
        -11   -1    0    0    0    0  0.00000000000E+00  0.00000000000E+00  0.50000000000E+03  0.50000000000E+03  0.00000000000E+00 0.  1.
         11   -1    0    0    0    0 -0.00000000000E+00 -0.00000000000E+00 -0.50000000000E+03  0.50000000000E+03  0.00000000000E+00 0.  1.
        -11    1    1    2    0    0 -0.14780313000E+02  0.55737305006E+02  0.44615450152E+03  0.44986547328E+03  0.00000000000E+00 0.  1.
         11    1    1    2    0    0  0.44444104083E+00 -0.10168388259E+02 -0.28923578290E+03  0.28941480916E+03  0.00000000000E+00 0.  1.
        -15    1    1    2    0    0  0.21363463131E+02 -0.20375613269E+02 -0.20437504308E+03  0.20650394460E+03  0.17770000000E+01 0.  1.
         15    1    1    2    0    0 -0.70275911718E+01 -0.25193303478E+02  0.47456324460E+02  0.54215772964E+02  0.17770000000E+01 0. -1.
</event>
<event>
 6    1  0.1860328E-003  0.5022434E+03  0.7546771E-02  0.9394804E-01
        -11   -1    0    0    0    0  0.00000000000E+00  0.00000000000E+00  0.50000000000E+03  0.50000000000E+03  0.00000000000E+00 0. -1.
         11   -1    0    0    0    0 -0.00000000000E+00 -0.00000000000E+00 -0.50000000000E+03  0.50000000000E+03  0.00000000000E+00 0. -1.
        -11    1    1    2    0    0  0.16143953511E+01 -0.89337317288E+01  0.49767377719E+03  0.49775657337E+03  0.00000000000E+00 0. -1.
         11    1    1    2    0    0  0.20649786660E+01 -0.61277443157E+01 -0.45100864779E+03  0.45105500083E+03  0.00000000000E+00 0. -1.
        -15    1    1    2    0    0  0.26365529871E+00  0.22215025706E+01 -0.27885487917E+02  0.28031460061E+02  0.17770000000E+01 0. -1.
         15    1    1    2    0    0 -0.39430293158E+01  0.12839973474E+02 -0.18779641481E+02  0.23156965737E+02  0.17770000000E+01 0. -1.
</event>
<event>
 6    1  0.1860328E-003  0.5022872E+03  0.7546771E-02  0.9394706E-01
        -11   -1    0    0    0    0  0.00000000000E+00  0.00000000000E+00  0.50000000000E+03  0.50000000000E+03  0.00000000000E+00 0. -1.
         11   -1    0    0    0    0 -0.00000000000E+00 -0.00000000000E+00 -0.50000000000E+03  0.50000000000E+03  0.00000000000E+00 0.  1.
        -11    1    1    2    0    0 -0.12548327941E+02 -0.15973390013E+02  0.49729809440E+03  0.49771277301E+03  0.00000000000E+00 0. -1.
         11    1    1    2    0    0 -0.78557667367E+01  0.27244297281E+01 -0.32676637190E+03  0.32687214227E+03  0.00000000000E+00 0.  1.
        -15    1    1    2    0    0  0.35155088514E+01 -0.50231482732E+01 -0.10657305234E+03  0.10676405779E+03  0.17770000000E+01 0. -1.
         15    1    1    2    0    0  0.16888585826E+02  0.18272108558E+02 -0.63958670162E+02  0.68651026942E+02  0.17770000000E+01 0.  1.
</event>
<event>
 6    1  0.1860328E-003  0.5109972E+03  0.7546771E-02  0.9375533E-01
        -11   -1    0    0    0    0  0.00000000000E+00  0.00000000000E+00  0.50000000000E+03  0.50000000000E+03  0.00000000000E+00 0. -1.
         11   -1    0    0    0    0 -0.00000000000E+00 -0.00000000000E+00 -0.50000000000E+03  0.50000000000E+03  0.00000000000E+00 0.  1.
        -11    1    1    2    0    0 -0.21872915122E+02  0.25400376372E+02  0.48785259750E+03  0.48900282251E+03  0.00000000000E+00 0. -1.
         11    1    1    2    0    0  0.18675960875E+01  0.78709712385E+01 -0.42664590011E+03  0.42672258457E+03  0.00000000000E+00 0.  1.
        -15    1    1    2    0    0  0.16539766387E+02 -0.28688471396E+02 -0.12881256889E+02  0.35576351292E+02  0.17770000000E+01 0. -1.
         15    1    1    2    0    0  0.34655526475E+01 -0.45828762138E+01 -0.48325440500E+02  0.48698241632E+02  0.17770000000E+01 0.  1.
</event>
<event>
 6    1  0.1860328E-003  0.5010643E+03  0.7546771E-02  0.9397431E-01
        -11   -1    0    0    0    0  0.00000000000E+00  0.00000000000E+00  0.50000000000E+03  0.50000000000E+03  0.00000000000E+00 0.  1.
         11   -1    0    0    0    0 -0.00000000000E+00 -0.00000000000E+00 -0.50000000000E+03  0.50000000000E+03  0.00000000000E+00 0. -1.
        -11    1    1    2    0    0  0.72176691878E+01 -0.65212522489E+01  0.49884089584E+03  0.49893572817E+03  0.00000000000E+00 0.  1.
         11    1    1    2    0    0 -0.74798878735E+00 -0.12526137975E+02 -0.24184154038E+03  0.24216687278E+03  0.00000000000E+00 0. -1.
        -15    1    1    2    0    0 -0.27783226870E+01  0.13545475233E+02 -0.24202993490E+03  0.24243111619E+03  0.17770000000E+01 0. -1.
         15    1    1    2    0    0 -0.36913577135E+01  0.55019149905E+01 -0.14969420561E+02  0.16466282861E+02  0.17770000000E+01 0.  1.
</event>
<event>
 6    1  0.1860328E-003  0.5261485E+03  0.7546771E-02  0.9343129E-01
        -11   -1    0    0    0    0  0.00000000000E+00  0.00000000000E+00  0.50000000000E+03  0.50000000000E+03  0.00000000000E+00 0.  1.
         11   -1    0    0    0    0 -0.00000000000E+00 -0.00000000000E+00 -0.50000000000E+03  0.50000000000E+03  0.00000000000E+00 0. -1.
        -11    1    1    2    0    0  0.82742326188E+01  0.74750191849E+01  0.47372025589E+03  0.47385147428E+03  0.00000000000E+00 0.  1.
         11    1    1    2    0    0  0.10657022844E+02 -0.76332198684E+01 -0.45410105937E+03  0.45429022695E+03  0.00000000000E+00 0. -1.
        -15    1    1    2    0    0  0.67343677697E+01  0.28901421806E+02 -0.30835789475E+01  0.29888293357E+02  0.17770000000E+01 0. -1.
         15    1    1    2    0    0 -0.25665623233E+02 -0.28743221122E+02 -0.16535617570E+02  0.41970005407E+02  0.17770000000E+01 0.  1.
</event>
<event>
 6    1  0.1860328E-003  0.5083510E+03  0.7546771E-02  0.9381315E-01
        -11   -1    0    0    0    0  0.00000000000E+00  0.00000000000E+00  0.50000000000E+03  0.50000000000E+03  0.00000000000E+00 0. -1.
         11   -1    0    0    0    0 -0.00000000000E+00 -0.00000000000E+00 -0.50000000000E+03  0.50000000000E+03  0.00000000000E+00 0. -1.
        -11    1    1    2    0    0  0.10473413311E+01  0.44360805256E+01  0.14148759285E+03  0.14156099274E+03  0.00000000000E+00 0. -1.
         11    1    1    2    0    0 -0.10607180710E+02 -0.15445305493E+02 -0.49129180502E+03  0.49164896768E+03  0.00000000000E+00 0. -1.
        -15    1    1    2    0    0 -0.18083769456E+02  0.27261160252E+02  0.32383512123E+03  0.32548815193E+03  0.17770000000E+01 0. -1.
         15    1    1    2    0    0  0.27643608836E+02 -0.16251935285E+02  0.25969090941E+02  0.41301887648E+02  0.17770000000E+01 0.  1.
</event>
<event>
 6    1  0.1860328E-003  0.5082508E+03  0.7546771E-02  0.9381535E-01
        -11   -1    0    0    0    0  0.00000000000E+00  0.00000000000E+00  0.50000000000E+03  0.50000000000E+03  0.00000000000E+00 0. -1.
         11   -1    0    0    0    0 -0.00000000000E+00 -0.00000000000E+00 -0.50000000000E+03  0.50000000000E+03  0.00000000000E+00 0.  1.
        -11    1    1    2    0    0  0.30703214054E+02 -0.43134980081E+01  0.49077082596E+03  0.49174922189E+03  0.00000000000E+00 0. -1.
         11    1    1    2    0    0 -0.64434018213E+01 -0.14765100630E+02 -0.12991635326E+03  0.13091136112E+03  0.00000000000E+00 0.  1.
        -15    1    1    2    0    0  0.31388386768E+02  0.75112066530E+01 -0.25622120220E+03  0.25825203046E+03  0.17770000000E+01 0. -1.
         15    1    1    2    0    0 -0.55648199001E+02  0.11567391986E+02 -0.10463327049E+03  0.11908738653E+03  0.17770000000E+01 0.  1.
</event>
<event>
 6    1  0.1860328E-003  0.5032300E+03  0.7546771E-02  0.9392611E-01
        -11   -1    0    0    0    0  0.00000000000E+00  0.00000000000E+00  0.50000000000E+03  0.50000000000E+03  0.00000000000E+00 0.  1.
         11   -1    0    0    0    0 -0.00000000000E+00 -0.00000000000E+00 -0.50000000000E+03  0.50000000000E+03  0.00000000000E+00 0. -1.
        -11    1    1    2    0    0  0.10967636196E+02 -0.63713294548E+01  0.36207806568E+03  0.36230016358E+03  0.00000000000E+00 0.  1.
         11    1    1    2    0    0 -0.13009058131E+01 -0.14053062198E+02 -0.49656945759E+03  0.49676997406E+03  0.00000000000E+00 0. -1.
        -15    1    1    2    0    0  0.46201229258E+01 -0.19739411696E+01  0.81027980835E+02  0.81203038039E+02  0.17770000000E+01 0. -1.
         15    1    1    2    0    0 -0.14286853309E+02  0.22398332822E+02  0.53463411080E+02  0.59726824325E+02  0.17770000000E+01 0.  1.
</event>
<event>
 6    1  0.1860328E-003  0.5083348E+03  0.7546771E-02  0.9381351E-01
        -11   -1    0    0    0    0  0.00000000000E+00  0.00000000000E+00  0.50000000000E+03  0.50000000000E+03  0.00000000000E+00 0.  1.
         11   -1    0    0    0    0 -0.00000000000E+00 -0.00000000000E+00 -0.50000000000E+03  0.50000000000E+03  0.00000000000E+00 0. -1.
        -11    1    1    2    0    0  0.14988248919E+02  0.18055460577E+01  0.47289548331E+03  0.47313639232E+03  0.00000000000E+00 0.  1.
         11    1    1    2    0    0 -0.63948220893E+01 -0.22238105472E+01 -0.49161862398E+03  0.49166524234E+03  0.00000000000E+00 0. -1.
        -15    1    1    2    0    0  0.82323761114E+01  0.34745721313E+01  0.15087695115E+02  0.17625008960E+02  0.17770000000E+01 0. -1.
         15    1    1    2    0    0 -0.16825802941E+02 -0.30563076419E+01  0.36354455574E+01  0.17573356379E+02  0.17770000000E+01 0.  1.
</event>
<event>
 6    1  0.1860328E-003  0.5692822E+03  0.7546771E-02  0.9256874E-01
        -11   -1    0    0    0    0  0.00000000000E+00  0.00000000000E+00  0.50000000000E+03  0.50000000000E+03  0.00000000000E+00 0.  1.
         11   -1    0    0    0    0 -0.00000000000E+00 -0.00000000000E+00 -0.50000000000E+03  0.50000000000E+03  0.00000000000E+00 0. -1.
        -11    1    1    2    0    0  0.86826183477E+01  0.13987481561E+02  0.43040308001E+03  0.43071782965E+03  0.00000000000E+00 0.  1.
         11    1    1    2    0    0 -0.53180973578E+02  0.10563294091E+02 -0.35860633307E+03  0.36268209392E+03  0.00000000000E+00 0. -1.
        -15    1    1    2    0    0  0.54353167944E+02 -0.15174206721E+02 -0.13267855998E+03  0.14419182162E+03  0.17770000000E+01 0.  1.
         15    1    1    2    0    0 -0.98548127136E+01 -0.93765689304E+01  0.60881813047E+02  0.62408254802E+02  0.17770000000E+01 0.  1.
</event>
<event>
 6    1  0.1860328E-003  0.5005691E+03  0.7546771E-02  0.9398537E-01
        -11   -1    0    0    0    0  0.00000000000E+00  0.00000000000E+00  0.50000000000E+03  0.50000000000E+03  0.00000000000E+00 0.  1.
         11   -1    0    0    0    0 -0.00000000000E+00 -0.00000000000E+00 -0.50000000000E+03  0.50000000000E+03  0.00000000000E+00 0. -1.
        -11    1    1    2    0    0 -0.60607958846E+01 -0.11813198220E+01  0.27412116637E+03  0.27419070483E+03  0.00000000000E+00 0.  1.
         11    1    1    2    0    0 -0.48954544477E+01  0.53504074597E+01 -0.49937820502E+03  0.49943086007E+03  0.00000000000E+00 0. -1.
        -15    1    1    2    0    0  0.13418939285E+02 -0.91924488259E+01  0.18003578589E+03  0.18077779448E+03  0.17770000000E+01 0.  1.
         15    1    1    2    0    0 -0.24626889531E+01  0.50233611883E+01  0.45221252763E+02  0.45600640620E+02  0.17770000000E+01 0.  1.
</event>
<event>
 6    1  0.1860328E-003  0.5077918E+03  0.7546771E-02  0.9382542E-01
        -11   -1    0    0    0    0  0.00000000000E+00  0.00000000000E+00  0.50000000000E+03  0.50000000000E+03  0.00000000000E+00 0. -1.
         11   -1    0    0    0    0 -0.00000000000E+00 -0.00000000000E+00 -0.50000000000E+03  0.50000000000E+03  0.00000000000E+00 0.  1.
        -11    1    1    2    0    0  0.16344701891E+02  0.12668859988E+02  0.46709883076E+03  0.46755637840E+03  0.00000000000E+00 0. -1.
         11    1    1    2    0    0 -0.98600695746E+01  0.50893759253E+00 -0.49210915038E+03  0.49220818347E+03  0.00000000000E+00 0.  1.
        -15    1    1    2    0    0 -0.11365783710E+02  0.34049997383E+01  0.33307387219E+01  0.12450968315E+02  0.17770000000E+01 0. -1.
         15    1    1    2    0    0  0.48811513931E+01 -0.16582797319E+02  0.21679580897E+02  0.27784469812E+02  0.17770000000E+01 0.  1.
</event>
<event>
 6    1  0.1860328E-003  0.4845016E+03  0.7546771E-02  0.9435172E-01
        -11   -1    0    0    0    0  0.00000000000E+00  0.00000000000E+00  0.50000000000E+03  0.50000000000E+03  0.00000000000E+00 0. -1.
         11   -1    0    0    0    0 -0.00000000000E+00 -0.00000000000E+00 -0.50000000000E+03  0.50000000000E+03  0.00000000000E+00 0. -1.
        -11    1    1    2    0    0  0.20429673344E+01  0.63396808557E+01  0.48538033885E+03  0.48542603825E+03  0.00000000000E+00 0. -1.
         11    1    1    2    0    0  0.48766543699E+01  0.62564160419E+01 -0.48362023450E+03  0.48368528582E+03  0.00000000000E+00 0. -1.
        -15    1    1    2    0    0 -0.41501471523E+01 -0.74077154727E+01 -0.14413399376E+02  0.16822656761E+02  0.17770000000E+01 0. -1.
         15    1    1    2    0    0 -0.27694745520E+01 -0.51883814249E+01  0.12653295033E+02  0.14066019171E+02  0.17770000000E+01 0. -1.
</event>
<event>
 6    1  0.1860328E-003  0.5009557E+03  0.7546771E-02  0.9397674E-01
        -11   -1    0    0    0    0  0.00000000000E+00  0.00000000000E+00  0.50000000000E+03  0.50000000000E+03  0.00000000000E+00 0. -1.
         11   -1    0    0    0    0 -0.00000000000E+00 -0.00000000000E+00 -0.50000000000E+03  0.50000000000E+03  0.00000000000E+00 0. -1.
        -11    1    1    2    0    0  0.39767972918E+01  0.66778305109E+01  0.49898372778E+03  0.49904425548E+03  0.00000000000E+00 0. -1.
         11    1    1    2    0    0  0.22904630815E+01 -0.56120538072E+01 -0.13737620605E+03  0.13750986640E+03  0.00000000000E+00 0. -1.
        -15    1    1    2    0    0 -0.70241456601E+00 -0.62400829498E+01 -0.11282703086E+02  0.13034152806E+02  0.17770000000E+01 0.  1.
         15    1    1    2    0    0 -0.55648458073E+01  0.51743062460E+01 -0.35032481864E+03  0.35041172532E+03  0.17770000000E+01 0. -1.
</event>
<event>
 6    1  0.1860328E-003  0.5093566E+03  0.7546771E-02  0.9379114E-01
        -11   -1    0    0    0    0  0.00000000000E+00  0.00000000000E+00  0.50000000000E+03  0.50000000000E+03  0.00000000000E+00 0. -1.
         11   -1    0    0    0    0 -0.00000000000E+00 -0.00000000000E+00 -0.50000000000E+03  0.50000000000E+03  0.00000000000E+00 0. -1.
        -11    1    1    2    0    0 -0.56227024350E+01  0.28518108121E+02  0.48978166377E+03  0.49064343004E+03  0.00000000000E+00 0. -1.
         11    1    1    2    0    0 -0.30246082648E+01  0.56901066980E+01 -0.27195416725E+03  0.27203050317E+03  0.00000000000E+00 0. -1.
        -15    1    1    2    0    0 -0.19591365351E+02 -0.54672785675E+02 -0.15354817092E+03  0.16417409544E+03  0.17770000000E+01 0.  1.
         15    1    1    2    0    0  0.28238676051E+02  0.20464570856E+02 -0.64279325592E+02  0.73151971354E+02  0.17770000000E+01 0. -1.
</event>
<event>
 6    1  0.1860328E-003  0.5148749E+03  0.7546771E-02  0.9367128E-01
        -11   -1    0    0    0    0  0.00000000000E+00  0.00000000000E+00  0.50000000000E+03  0.50000000000E+03  0.00000000000E+00 0.  1.
         11   -1    0    0    0    0 -0.00000000000E+00 -0.00000000000E+00 -0.50000000000E+03  0.50000000000E+03  0.00000000000E+00 0. -1.
        -11    1    1    2    0    0  0.65878152450E+01  0.67546313302E+01  0.44208773520E+03  0.44218841004E+03  0.00000000000E+00 0.  1.
         11    1    1    2    0    0  0.84635267862E+01  0.36542155089E+00 -0.48505109647E+03  0.48512506738E+03  0.00000000000E+00 0. -1.
        -15    1    1    2    0    0 -0.18414819848E+02  0.33196940890E+01 -0.80718492417E+01  0.20455767843E+02  0.17770000000E+01 0. -1.
         15    1    1    2    0    0  0.33634778169E+01 -0.10439746970E+02  0.51035210505E+02  0.52230754734E+02  0.17770000000E+01 0.  1.
</event>
<event>
 6    1  0.1860328E-003  0.2229361E+03  0.7546771E-02  0.1040167E+00
        -11   -1    0    0    0    0  0.00000000000E+00  0.00000000000E+00  0.50000000000E+03  0.50000000000E+03  0.00000000000E+00 0. -1.
         11   -1    0    0    0    0 -0.00000000000E+00 -0.00000000000E+00 -0.50000000000E+03  0.50000000000E+03  0.00000000000E+00 0.  1.
        -11    1    1    2    0    0  0.18308995406E+02 -0.34452784934E+02  0.27837376054E+03  0.28109458241E+03  0.00000000000E+00 0. -1.
         11    1    1    2    0    0 -0.69364798847E+02 -0.13604127628E+03 -0.28860285100E+03  0.32651234246E+03  0.00000000000E+00 0.  1.
        -15    1    1    2    0    0  0.19232342094E+02 -0.36268059848E+01  0.15958318647E+03  0.16078864337E+03  0.17770000000E+01 0. -1.
         15    1    1    2    0    0  0.31823461347E+02  0.17412086720E+03 -0.14935409601E+03  0.23160443176E+03  0.17770000000E+01 0.  1.
</event>
<event>
 6    1  0.1860328E-003  0.5008053E+03  0.7546771E-02  0.9398010E-01
        -11   -1    0    0    0    0  0.00000000000E+00  0.00000000000E+00  0.50000000000E+03  0.50000000000E+03  0.00000000000E+00 0. -1.
         11   -1    0    0    0    0 -0.00000000000E+00 -0.00000000000E+00 -0.50000000000E+03  0.50000000000E+03  0.00000000000E+00 0. -1.
        -11    1    1    2    0    0  0.23086129926E+01 -0.18583845580E+01  0.17909171502E+03  0.17911623510E+03  0.00000000000E+00 0. -1.
         11    1    1    2    0    0 -0.14928572993E+02  0.15154595936E+02 -0.49874128914E+03  0.49919474914E+03  0.00000000000E+00 0. -1.
        -15    1    1    2    0    0  0.68325870465E+01 -0.19591847314E+02  0.11615325671E+03  0.11800534522E+03  0.17770000000E+01 0.  1.
         15    1    1    2    0    0  0.57873729536E+01  0.62956359358E+01  0.20349631741E+03  0.20368367054E+03  0.17770000000E+01 0. -1.
</event>
<event>
 6    1  0.1860328E-003  0.5004731E+03  0.7546771E-02  0.9398752E-01
        -11   -1    0    0    0    0  0.00000000000E+00  0.00000000000E+00  0.50000000000E+03  0.50000000000E+03  0.00000000000E+00 0.  1.
         11   -1    0    0    0    0 -0.00000000000E+00 -0.00000000000E+00 -0.50000000000E+03  0.50000000000E+03  0.00000000000E+00 0.  1.
        -11    1    1    2    0    0 -0.69512624280E+01 -0.20009074588E+01  0.49947449164E+03  0.49952686763E+03  0.00000000000E+00 0.  1.
         11    1    1    2    0    0 -0.79908822490E+01  0.37432049614E+01 -0.33358419008E+03  0.33370088052E+03  0.00000000000E+00 0.  1.
        -15    1    1    2    0    0  0.10799860811E+02 -0.31365683837E+01 -0.87129256699E+02  0.87870018531E+02  0.17770000000E+01 0. -1.
         15    1    1    2    0    0  0.41422838663E+01  0.13942708812E+01 -0.78761044862E+02  0.78902233325E+02  0.17770000000E+01 0.  1.
</event>
<event>
 6    1  0.1860328E-003  0.5251297E+03  0.7546771E-02  0.9345272E-01
        -11   -1    0    0    0    0  0.00000000000E+00  0.00000000000E+00  0.50000000000E+03  0.50000000000E+03  0.00000000000E+00 0.  1.
         11   -1    0    0    0    0 -0.00000000000E+00 -0.00000000000E+00 -0.50000000000E+03  0.50000000000E+03  0.00000000000E+00 0. -1.
        -11    1    1    2    0    0  0.14647869398E+02 -0.14047548127E+02  0.39398164107E+03  0.39450402683E+03  0.00000000000E+00 0.  1.
         11    1    1    2    0    0  0.97642679711E+01 -0.20525668699E+02 -0.47432600027E+03  0.47487029654E+03  0.00000000000E+00 0. -1.
        -15    1    1    2    0    0 -0.10712325613E+02  0.34293487616E+02  0.10018536149E+03  0.10644745933E+03  0.17770000000E+01 0.  1.
         15    1    1    2    0    0 -0.13699811757E+02  0.27972921089E+00 -0.19841002295E+02  0.24178217297E+02  0.17770000000E+01 0. -1.
</event>
<event>
 6    1  0.1860328E-003  0.5002810E+03  0.7546771E-02  0.9399181E-01
        -11   -1    0    0    0    0  0.00000000000E+00  0.00000000000E+00  0.50000000000E+03  0.50000000000E+03  0.00000000000E+00 0. -1.
         11   -1    0    0    0    0 -0.00000000000E+00 -0.00000000000E+00 -0.50000000000E+03  0.50000000000E+03  0.00000000000E+00 0. -1.
        -11    1    1    2    0    0  0.44115363179E+01 -0.83478992420E+01  0.49962982143E+03  0.49971902859E+03  0.00000000000E+00 0. -1.
         11    1    1    2    0    0 -0.18155969691E+01  0.32865406271E+01 -0.21994249195E+03  0.21997453832E+03  0.00000000000E+00 0. -1.
        -15    1    1    2    0    0  0.33947315729E+01  0.77509311088E+01 -0.73485636183E+02  0.73992550907E+02  0.17770000000E+01 0.  1.
         15    1    1    2    0    0 -0.59906709217E+01 -0.26895724939E+01 -0.20620169329E+03  0.20631388219E+03  0.17770000000E+01 0. -1.
</event>
<event>
 6    1  0.1860328E-003  0.5648136E+03  0.7546771E-02  0.9265428E-01
        -11   -1    0    0    0    0  0.00000000000E+00  0.00000000000E+00  0.50000000000E+03  0.50000000000E+03  0.00000000000E+00 0. -1.
         11   -1    0    0    0    0 -0.00000000000E+00 -0.00000000000E+00 -0.50000000000E+03  0.50000000000E+03  0.00000000000E+00 0.  1.
        -11    1    1    2    0    0  0.46767895307E+01  0.70558232057E+01  0.42700042634E+03  0.42708432551E+03  0.00000000000E+00 0. -1.
         11    1    1    2    0    0 -0.62940854643E+01 -0.12157443005E+02 -0.43497101410E+03  0.43518639919E+03  0.00000000000E+00 0.  1.
        -15    1    1    2    0    0 -0.25889534830E+02  0.28855278260E+02 -0.53621686416E+02  0.66191676821E+02  0.17770000000E+01 0.  1.
         15    1    1    2    0    0  0.27506830764E+02 -0.23753658461E+02  0.61592274178E+02  0.71537598481E+02  0.17770000000E+01 0. -1.
</event>
<event>
 6    1  0.1860328E-003  0.4803789E+03  0.7546771E-02  0.9444816E-01
        -11   -1    0    0    0    0  0.00000000000E+00  0.00000000000E+00  0.50000000000E+03  0.50000000000E+03  0.00000000000E+00 0. -1.
         11   -1    0    0    0    0 -0.00000000000E+00 -0.00000000000E+00 -0.50000000000E+03  0.50000000000E+03  0.00000000000E+00 0. -1.
        -11    1    1    2    0    0 -0.16022197442E+01  0.20057019670E+02  0.48103762640E+03  0.48145825277E+03  0.00000000000E+00 0. -1.
         11    1    1    2    0    0  0.19055689828E+02 -0.21629073738E+02 -0.47859510828E+03  0.47946242169E+03  0.00000000000E+00 0. -1.
        -15    1    1    2    0    0 -0.94157612130E+01  0.17288169574E+02 -0.66338131157E+01  0.20849522103E+02  0.17770000000E+01 0. -1.
         15    1    1    2    0    0 -0.80377088707E+01 -0.15716115507E+02  0.41912949930E+01  0.18229803434E+02  0.17770000000E+01 0.  1.
</event>
<event>
 6    1  0.1860328E-003  0.5065372E+03  0.7546771E-02  0.9385300E-01
        -11   -1    0    0    0    0  0.00000000000E+00  0.00000000000E+00  0.50000000000E+03  0.50000000000E+03  0.00000000000E+00 0. -1.
         11   -1    0    0    0    0 -0.00000000000E+00 -0.00000000000E+00 -0.50000000000E+03  0.50000000000E+03  0.00000000000E+00 0. -1.
        -11    1    1    2    0    0 -0.52611236552E+01 -0.47525367770E+00  0.32587371702E+03  0.32591653032E+03  0.00000000000E+00 0. -1.
         11    1    1    2    0    0  0.67984738984E+01 -0.66737855797E+01 -0.49337079092E+03  0.49346276049E+03  0.00000000000E+00 0. -1.
        -15    1    1    2    0    0  0.19014847889E+00 -0.10459197077E+02  0.16150983002E+03  0.16185800531E+03  0.17770000000E+01 0. -1.
         15    1    1    2    0    0 -0.17274987221E+01  0.17608236334E+02  0.59872438775E+01  0.18762703880E+02  0.17770000000E+01 0.  1.
</event>
<event>
 6    1  0.1860328E-003  0.5038251E+03  0.7546771E-02  0.9391291E-01
        -11   -1    0    0    0    0  0.00000000000E+00  0.00000000000E+00  0.50000000000E+03  0.50000000000E+03  0.00000000000E+00 0.  1.
         11   -1    0    0    0    0 -0.00000000000E+00 -0.00000000000E+00 -0.50000000000E+03  0.50000000000E+03  0.00000000000E+00 0. -1.
        -11    1    1    2    0    0 -0.19282204345E+02 -0.45748581110E+01  0.49577897895E+03  0.49617489729E+03  0.00000000000E+00 0.  1.
         11    1    1    2    0    0 -0.15929143206E+02  0.14800685225E+01 -0.38918318997E+03  0.38951185292E+03  0.00000000000E+00 0. -1.
        -15    1    1    2    0    0  0.69865409264E+01 -0.48180922443E+01 -0.47926947786E+02  0.48704987631E+02  0.17770000000E+01 0.  1.
         15    1    1    2    0    0  0.28224806625E+02  0.79128818328E+01 -0.58668841192E+02  0.65608262160E+02  0.17770000000E+01 0. -1.
</event>
<event>
 6    1  0.1860328E-003  0.5004841E+03  0.7546771E-02  0.9398727E-01
        -11   -1    0    0    0    0  0.00000000000E+00  0.00000000000E+00  0.50000000000E+03  0.50000000000E+03  0.00000000000E+00 0.  1.
         11   -1    0    0    0    0 -0.00000000000E+00 -0.00000000000E+00 -0.50000000000E+03  0.50000000000E+03  0.00000000000E+00 0. -1.
        -11    1    1    2    0    0  0.12168889299E+02  0.10486271676E+01  0.49936654281E+03  0.49951589120E+03  0.00000000000E+00 0.  1.
         11    1    1    2    0    0 -0.66517608434E+01  0.51500594088E+01 -0.13757125360E+03  0.13782822226E+03  0.00000000000E+00 0. -1.
        -15    1    1    2    0    0  0.10787493004E+00 -0.84395352686E+01 -0.33561592825E+03  0.33572674367E+03  0.17770000000E+01 0. -1.
         15    1    1    2    0    0 -0.56250033859E+01  0.22408486922E+01 -0.26179360971E+02  0.26929142872E+02  0.17770000000E+01 0.  1.
</event>
<event>
 6    1  0.1860328E-003  0.5012875E+03  0.7546771E-02  0.9396933E-01
        -11   -1    0    0    0    0  0.00000000000E+00  0.00000000000E+00  0.50000000000E+03  0.50000000000E+03  0.00000000000E+00 0. -1.
         11   -1    0    0    0    0 -0.00000000000E+00 -0.00000000000E+00 -0.50000000000E+03  0.50000000000E+03  0.00000000000E+00 0.  1.
        -11    1    1    2    0    0 -0.64670416135E+01 -0.11427205809E+01  0.48061560052E+03  0.48066046634E+03  0.00000000000E+00 0. -1.
         11    1    1    2    0    0  0.74064816750E+01  0.27073425126E+01 -0.49865015284E+03  0.49871250295E+03  0.00000000000E+00 0.  1.
        -15    1    1    2    0    0 -0.30039518101E+01 -0.20982053284E+01  0.23561671916E+01  0.47048320812E+01  0.17770000000E+01 0. -1.
         15    1    1    2    0    0  0.20645117486E+01  0.53358339670E+00  0.15678385125E+02  0.15922198627E+02  0.17770000000E+01 0.  1.
</event>
<event>
 6    1  0.1860328E-003  0.5081431E+03  0.7546771E-02  0.9381771E-01
        -11   -1    0    0    0    0  0.00000000000E+00  0.00000000000E+00  0.50000000000E+03  0.50000000000E+03  0.00000000000E+00 0.  1.
         11   -1    0    0    0    0 -0.00000000000E+00 -0.00000000000E+00 -0.50000000000E+03  0.50000000000E+03  0.00000000000E+00 0.  1.
        -11    1    1    2    0    0  0.80751908519E+01 -0.25298449903E+01  0.49178409794E+03  0.49185689769E+03  0.00000000000E+00 0.  1.
         11    1    1    2    0    0  0.63423590958E+00 -0.93912396423E+01 -0.46853882469E+03  0.46863336190E+03  0.00000000000E+00 0.  1.
        -15    1    1    2    0    0  0.81159734941E+01  0.11455503573E+02 -0.15206248111E+02  0.20772224207E+02  0.17770000000E+01 0. -1.
         15    1    1    2    0    0 -0.16825400256E+02  0.46558105938E+00 -0.80390251330E+01  0.18737516206E+02  0.17770000000E+01 0. -1.
</event>
<event>
 6    1  0.1860328E-003  0.5146931E+03  0.7546771E-02  0.9367520E-01
        -11   -1    0    0    0    0  0.00000000000E+00  0.00000000000E+00  0.50000000000E+03  0.50000000000E+03  0.00000000000E+00 0.  1.
         11   -1    0    0    0    0 -0.00000000000E+00 -0.00000000000E+00 -0.50000000000E+03  0.50000000000E+03  0.00000000000E+00 0. -1.
        -11    1    1    2    0    0 -0.91024060169E+01  0.19183266481E+01  0.48521777298E+03  0.48530693483E+03  0.00000000000E+00 0.  1.
         11    1    1    2    0    0  0.44168818388E+01 -0.32564308405E+01 -0.34548865848E+03  0.34553223631E+03  0.00000000000E+00 0. -1.
        -15    1    1    2    0    0 -0.31515320365E+01  0.53770170283E+01 -0.15299573544E+03  0.15313293982E+03  0.17770000000E+01 0. -1.
         15    1    1    2    0    0  0.78370562146E+01 -0.40389128359E+01  0.13266620941E+02  0.16027889043E+02  0.17770000000E+01 0.  1.
</event>
<event>
 6    1  0.1860328E-003  0.4892291E+03  0.7546771E-02  0.9424238E-01
        -11   -1    0    0    0    0  0.00000000000E+00  0.00000000000E+00  0.50000000000E+03  0.50000000000E+03  0.00000000000E+00 0.  1.
         11   -1    0    0    0    0 -0.00000000000E+00 -0.00000000000E+00 -0.50000000000E+03  0.50000000000E+03  0.00000000000E+00 0.  1.
        -11    1    1    2    0    0  0.64387744318E+01  0.88508797228E+01  0.49177695274E+03  0.49189873666E+03  0.00000000000E+00 0.  1.
         11    1    1    2    0    0 -0.31591187926E+01  0.62604810755E+01 -0.48664459651E+03  0.48669511706E+03  0.00000000000E+00 0.  1.
        -15    1    1    2    0    0 -0.59310349932E+01 -0.11295384385E+02 -0.84692066313E+01  0.15415838429E+02  0.17770000000E+01 0. -1.
         15    1    1    2    0    0  0.26513793541E+01 -0.38159764134E+01  0.33368504084E+01  0.59903078481E+01  0.17770000000E+01 0.  1.
</event>
<event>
 6    1  0.1860328E-003  0.5019293E+03  0.7546771E-02  0.9395503E-01
        -11   -1    0    0    0    0  0.00000000000E+00  0.00000000000E+00  0.50000000000E+03  0.50000000000E+03  0.00000000000E+00 0.  1.
         11   -1    0    0    0    0 -0.00000000000E+00 -0.00000000000E+00 -0.50000000000E+03  0.50000000000E+03  0.00000000000E+00 0. -1.
        -11    1    1    2    0    0  0.77775788555E+01  0.33138344384E+01  0.43458536878E+03  0.43466759137E+03  0.00000000000E+00 0.  1.
         11    1    1    2    0    0  0.93828105295E+01 -0.43997082901E+01 -0.49796288027E+03  0.49807070250E+03  0.00000000000E+00 0. -1.
        -15    1    1    2    0    0 -0.45831447672E+01 -0.39638911950E+00  0.42454710421E+02  0.42740174382E+02  0.17770000000E+01 0. -1.
         15    1    1    2    0    0 -0.12577244618E+02  0.14822629712E+01  0.20922801065E+02  0.24521531744E+02  0.17770000000E+01 0.  1.
</event>
<event>
 6    1  0.1860328E-003  0.5213427E+03  0.7546771E-02  0.9353281E-01
        -11   -1    0    0    0    0  0.00000000000E+00  0.00000000000E+00  0.50000000000E+03  0.50000000000E+03  0.00000000000E+00 0. -1.
         11   -1    0    0    0    0 -0.00000000000E+00 -0.00000000000E+00 -0.50000000000E+03  0.50000000000E+03  0.00000000000E+00 0.  1.
        -11    1    1    2    0    0  0.72770438051E+00  0.57040655810E+01  0.38152785445E+03  0.38157118554E+03  0.00000000000E+00 0. -1.
         11    1    1    2    0    0  0.75600817865E+01  0.82242620471E+01 -0.47852692733E+03  0.47865730278E+03  0.00000000000E+00 0.  1.
        -15    1    1    2    0    0 -0.10078402836E+01 -0.11708110447E+02 -0.19594005244E+02  0.22916770339E+02  0.17770000000E+01 0. -1.
         15    1    1    2    0    0 -0.72799458834E+01 -0.22202171807E+01  0.11659307813E+03  0.11685474134E+03  0.17770000000E+01 0.  1.
</event>
<event>
 6    1  0.1860328E-003  0.5066131E+03  0.7546771E-02  0.9385133E-01
        -11   -1    0    0    0    0  0.00000000000E+00  0.00000000000E+00  0.50000000000E+03  0.50000000000E+03  0.00000000000E+00 0. -1.
         11   -1    0    0    0    0 -0.00000000000E+00 -0.00000000000E+00 -0.50000000000E+03  0.50000000000E+03  0.00000000000E+00 0. -1.
        -11    1    1    2    0    0  0.99452665639E+01  0.43682651316E+01  0.33587211236E+03  0.33604771377E+03  0.00000000000E+00 0. -1.
         11    1    1    2    0    0  0.61346649313E+01  0.61247317655E+01 -0.49331073392E+03  0.49338689347E+03  0.00000000000E+00 0. -1.
        -15    1    1    2    0    0 -0.34319076991E+01 -0.69785509138E+01 -0.37631315763E+01  0.88202636907E+01  0.17770000000E+01 0. -1.
         15    1    1    2    0    0 -0.12648023796E+02 -0.35144459832E+01  0.16120175313E+03  0.16174512907E+03  0.17770000000E+01 0.  1.
</event>
<event>
 6    1  0.1860328E-003  0.5156860E+03  0.7546771E-02  0.9365379E-01
        -11   -1    0    0    0    0  0.00000000000E+00  0.00000000000E+00  0.50000000000E+03  0.50000000000E+03  0.00000000000E+00 0.  1.
         11   -1    0    0    0    0 -0.00000000000E+00 -0.00000000000E+00 -0.50000000000E+03  0.50000000000E+03  0.00000000000E+00 0.  1.
        -11    1    1    2    0    0  0.38675276989E+01  0.36125481748E+01  0.18516644317E+03  0.18524205773E+03  0.00000000000E+00 0.  1.
         11    1    1    2    0    0 -0.46970261395E+01  0.52978967255E+02 -0.48138466191E+03  0.48431397434E+03  0.00000000000E+00 0.  1.
        -15    1    1    2    0    0 -0.91201614626E+01 -0.54921832932E+02  0.28573759877E+02  0.62603534726E+02  0.17770000000E+01 0. -1.
         15    1    1    2    0    0  0.99496599032E+01 -0.16696824980E+01  0.26764445886E+03  0.26784043320E+03  0.17770000000E+01 0.  1.
</event>
<event>
 6    1  0.1860328E-003  0.4826707E+03  0.7546771E-02  0.9439443E-01
        -11   -1    0    0    0    0  0.00000000000E+00  0.00000000000E+00  0.50000000000E+03  0.50000000000E+03  0.00000000000E+00 0.  1.
         11   -1    0    0    0    0 -0.00000000000E+00 -0.00000000000E+00 -0.50000000000E+03  0.50000000000E+03  0.00000000000E+00 0. -1.
        -11    1    1    2    0    0  0.71331116354E+01 -0.25610388137E+01  0.48099867260E+03  0.48105837821E+03  0.00000000000E+00 0.  1.
         11    1    1    2    0    0  0.25412755965E+01  0.89123953065E+01 -0.48426928117E+03  0.48435795188E+03  0.00000000000E+00 0. -1.
        -15    1    1    2    0    0 -0.57614870694E+01 -0.64447635748E+01  0.17564713499E+02  0.19657227680E+02  0.17770000000E+01 0.  1.
         15    1    1    2    0    0 -0.39129001625E+01  0.93407081950E-01 -0.14294104937E+02  0.14926442225E+02  0.17770000000E+01 0. -1.
</event>
<event>
 6    1  0.1860328E-003  0.5088277E+03  0.7546771E-02  0.9380271E-01
        -11   -1    0    0    0    0  0.00000000000E+00  0.00000000000E+00  0.50000000000E+03  0.50000000000E+03  0.00000000000E+00 0. -1.
         11   -1    0    0    0    0 -0.00000000000E+00 -0.00000000000E+00 -0.50000000000E+03  0.50000000000E+03  0.00000000000E+00 0. -1.
        -11    1    1    2    0    0 -0.11696640163E+02  0.15051452371E+02  0.49080222599E+03  0.49117225354E+03  0.00000000000E+00 0. -1.
         11    1    1    2    0    0  0.37909753335E+01 -0.23584795073E+02 -0.21840998413E+03  0.21971239205E+03  0.00000000000E+00 0. -1.
        -15    1    1    2    0    0  0.18443004729E+02 -0.20843995429E+00 -0.23014941872E+01  0.18671970307E+02  0.17770000000E+01 0.  1.
         15    1    1    2    0    0 -0.10537339899E+02  0.87417826568E+01 -0.27009074768E+03  0.27044338411E+03  0.17770000000E+01 0. -1.
</event>
<event>
 6    1  0.1860328E-003  0.5087867E+03  0.7546771E-02  0.9380361E-01
        -11   -1    0    0    0    0  0.00000000000E+00  0.00000000000E+00  0.50000000000E+03  0.50000000000E+03  0.00000000000E+00 0.  1.
         11   -1    0    0    0    0 -0.00000000000E+00 -0.00000000000E+00 -0.50000000000E+03  0.50000000000E+03  0.00000000000E+00 0.  1.
        -11    1    1    2    0    0  0.14178362261E+02  0.52121727933E+01  0.47892708997E+03  0.47916526398E+03  0.00000000000E+00 0.  1.
         11    1    1    2    0    0 -0.66683354577E+01  0.88945743312E+01 -0.49108746123E+03  0.49121326807E+03  0.00000000000E+00 0.  1.
        -15    1    1    2    0    0  0.46841841386E+01 -0.62001718617E+01 -0.30261982766E+01  0.85263894567E+01  0.17770000000E+01 0.  1.
         15    1    1    2    0    0 -0.12194210942E+02 -0.79065752629E+01  0.15186569541E+02  0.21095078486E+02  0.17770000000E+01 0. -1.
</event>
<event>
 6    1  0.1860328E-003  0.5124683E+03  0.7546771E-02  0.9372335E-01
        -11   -1    0    0    0    0  0.00000000000E+00  0.00000000000E+00  0.50000000000E+03  0.50000000000E+03  0.00000000000E+00 0. -1.
         11   -1    0    0    0    0 -0.00000000000E+00 -0.00000000000E+00 -0.50000000000E+03  0.50000000000E+03  0.00000000000E+00 0. -1.
        -11    1    1    2    0    0 -0.59421287110E+01  0.60893495428E+00  0.43829901169E+03  0.43833971226E+03  0.00000000000E+00 0. -1.
         11    1    1    2    0    0 -0.83094912365E+01 -0.32163055681E+01 -0.48745031802E+03  0.48753174748E+03  0.00000000000E+00 0. -1.
        -15    1    1    2    0    0  0.13514720268E+02  0.16849437550E+02  0.54611535090E+02  0.58754818556E+02  0.17770000000E+01 0. -1.
         15    1    1    2    0    0  0.73689967920E+00 -0.14242066936E+02 -0.54602287639E+01  0.15373721700E+02  0.17770000000E+01 0.  1.
</event>
<event>
 6    1  0.1860328E-003  0.5011049E+03  0.7546771E-02  0.9397341E-01
        -11   -1    0    0    0    0  0.00000000000E+00  0.00000000000E+00  0.50000000000E+03  0.50000000000E+03  0.00000000000E+00 0. -1.
         11   -1    0    0    0    0 -0.00000000000E+00 -0.00000000000E+00 -0.50000000000E+03  0.50000000000E+03  0.00000000000E+00 0.  1.
        -11    1    1    2    0    0 -0.96612382772E+01  0.23889600381E+01  0.46262000979E+03  0.46272704709E+03  0.00000000000E+00 0. -1.
         11    1    1    2    0    0  0.70961270115E+01  0.53228841638E+01 -0.49881621788E+03  0.49889508651E+03  0.00000000000E+00 0.  1.
        -15    1    1    2    0    0  0.49289006589E+01 -0.74829699866E+01  0.21092162683E+02  0.22985342225E+02  0.17770000000E+01 0. -1.
         15    1    1    2    0    0 -0.23637893932E+01 -0.22887421525E+00  0.15104045413E+02  0.15392524177E+02  0.17770000000E+01 0.  1.
</event>
<event>
 6    1  0.1860328E-003  0.5015541E+03  0.7546771E-02  0.9396339E-01
        -11   -1    0    0    0    0  0.00000000000E+00  0.00000000000E+00  0.50000000000E+03  0.50000000000E+03  0.00000000000E+00 0.  1.
         11   -1    0    0    0    0 -0.00000000000E+00 -0.00000000000E+00 -0.50000000000E+03  0.50000000000E+03  0.00000000000E+00 0.  1.
        -11    1    1    2    0    0  0.12140301607E+02 -0.12300251156E+02  0.49814615496E+03  0.49844585945E+03  0.00000000000E+00 0.  1.
         11    1    1    2    0    0 -0.67884556082E+01  0.57677739500E+01 -0.21514500550E+03  0.21532933784E+03  0.00000000000E+00 0.  1.
        -15    1    1    2    0    0  0.60001344717E+01  0.31704053036E+01 -0.68184510472E+01  0.97827443568E+01  0.17770000000E+01 0. -1.
         15    1    1    2    0    0 -0.11351980470E+02  0.33620719025E+01 -0.27618269842E+03  0.27644205835E+03  0.17770000000E+01 0.  1.
</event>
<event>
 6    1  0.1860328E-003  0.5033253E+03  0.7546771E-02  0.9392400E-01
        -11   -1    0    0    0    0  0.00000000000E+00  0.00000000000E+00  0.50000000000E+03  0.50000000000E+03  0.00000000000E+00 0. -1.
         11   -1    0    0    0    0 -0.00000000000E+00 -0.00000000000E+00 -0.50000000000E+03  0.50000000000E+03  0.00000000000E+00 0. -1.
        -11    1    1    2    0    0 -0.73605676631E+01 -0.74633316198E+00  0.37157963509E+03  0.37165327953E+03  0.00000000000E+00 0. -1.
         11    1    1    2    0    0 -0.11327884242E+02  0.10597629225E+02 -0.49643236100E+03  0.49667466188E+03  0.00000000000E+00 0. -1.
        -15    1    1    2    0    0  0.66797839811E+01  0.11521191824E+01  0.10778684364E+03  0.10801438924E+03  0.17770000000E+01 0.  1.
         15    1    1    2    0    0  0.12008667924E+02 -0.11003415245E+02  0.17065882268E+02  0.23657669347E+02  0.17770000000E+01 0. -1.
</event>
<event>
 6    1  0.1860328E-003  0.5150706E+03  0.7546771E-02  0.9366706E-01
        -11   -1    0    0    0    0  0.00000000000E+00  0.00000000000E+00  0.50000000000E+03  0.50000000000E+03  0.00000000000E+00 0. -1.
         11   -1    0    0    0    0 -0.00000000000E+00 -0.00000000000E+00 -0.50000000000E+03  0.50000000000E+03  0.00000000000E+00 0. -1.
        -11    1    1    2    0    0 -0.19758337116E+01  0.62439341407E+00  0.13425235770E+03  0.13426834822E+03  0.00000000000E+00 0. -1.
         11    1    1    2    0    0  0.31440311187E+02  0.44602855317E+01 -0.48388857604E+03  0.48492941893E+03  0.00000000000E+00 0. -1.
        -15    1    1    2    0    0  0.15195586343E+01 -0.71380485363E+01  0.34961874534E+03  0.34969942182E+03  0.17770000000E+01 0. -1.
         15    1    1    2    0    0 -0.30984036110E+02  0.20533695905E+01  0.17473005511E-01  0.31102811041E+02  0.17770000000E+01 0.  1.
</event>
<event>
 6    1  0.1860328E-003  0.5013867E+03  0.7546771E-02  0.9396712E-01
        -11   -1    0    0    0    0  0.00000000000E+00  0.00000000000E+00  0.50000000000E+03  0.50000000000E+03  0.00000000000E+00 0. -1.
         11   -1    0    0    0    0 -0.00000000000E+00 -0.00000000000E+00 -0.50000000000E+03  0.50000000000E+03  0.00000000000E+00 0. -1.
        -11    1    1    2    0    0  0.64379456422E+01  0.25744738878E+01  0.49856503956E+03  0.49861325066E+03  0.00000000000E+00 0. -1.
         11    1    1    2    0    0  0.20147935189E+01  0.13087200659E+02 -0.40703257334E+03  0.40724789745E+03  0.00000000000E+00 0. -1.
        -15    1    1    2    0    0 -0.52455587423E+01 -0.40474393777E+01 -0.59068389089E+02  0.59465367825E+02  0.17770000000E+01 0. -1.
         15    1    1    2    0    0 -0.32071804189E+01 -0.11614235169E+02 -0.32464077127E+02  0.34673484070E+02  0.17770000000E+01 0.  1.
</event>
<event>
 6    1  0.1860328E-003  0.5800063E+03  0.7546771E-02  0.9236681E-01
        -11   -1    0    0    0    0  0.00000000000E+00  0.00000000000E+00  0.50000000000E+03  0.50000000000E+03  0.00000000000E+00 0. -1.
         11   -1    0    0    0    0 -0.00000000000E+00 -0.00000000000E+00 -0.50000000000E+03  0.50000000000E+03  0.00000000000E+00 0.  1.
        -11    1    1    2    0    0 -0.84013833078E+01 -0.13983855933E+02  0.41967672929E+03  0.41999367683E+03  0.00000000000E+00 0. -1.
         11    1    1    2    0    0  0.12960768146E+02 -0.49645427833E+01 -0.35513854066E+03  0.35540963867E+03  0.00000000000E+00 0.  1.
        -15    1    1    2    0    0 -0.51438879017E+02  0.95914661759E+01 -0.13193785069E+03  0.14194614708E+03  0.17770000000E+01 0.  1.
         15    1    1    2    0    0  0.46879494179E+02  0.93569325405E+01  0.67399662060E+02  0.82650537420E+02  0.17770000000E+01 0. -1.
</event>
<event>
 6    1  0.1860328E-003  0.5050832E+03  0.7546771E-02  0.9388507E-01
        -11   -1    0    0    0    0  0.00000000000E+00  0.00000000000E+00  0.50000000000E+03  0.50000000000E+03  0.00000000000E+00 0. -1.
         11   -1    0    0    0    0 -0.00000000000E+00 -0.00000000000E+00 -0.50000000000E+03  0.50000000000E+03  0.00000000000E+00 0. -1.
        -11    1    1    2    0    0  0.13843822954E+02 -0.18865361915E+01  0.49471951035E+03  0.49491676509E+03  0.00000000000E+00 0. -1.
         11    1    1    2    0    0  0.19896598866E+01 -0.93492279595E+00 -0.61200377387E+02  0.61239848297E+02  0.00000000000E+00 0. -1.
        -15    1    1    2    0    0  0.66500240844E+01 -0.16951789171E+02 -0.39302542975E+03  0.39345105430E+03  0.17770000000E+01 0. -1.
         15    1    1    2    0    0 -0.22483506925E+02  0.19773248158E+02 -0.40493703214E+02  0.50392332307E+02  0.17770000000E+01 0.  1.
</event>
<event>
 6    1  0.1860328E-003  0.4590995E+03  0.7546771E-02  0.9496286E-01
        -11   -1    0    0    0    0  0.00000000000E+00  0.00000000000E+00  0.50000000000E+03  0.50000000000E+03  0.00000000000E+00 0. -1.
         11   -1    0    0    0    0 -0.00000000000E+00 -0.00000000000E+00 -0.50000000000E+03  0.50000000000E+03  0.00000000000E+00 0. -1.
        -11    1    1    2    0    0 -0.69050019992E+01 -0.48334482168E+01  0.46125862502E+03  0.46133562667E+03  0.00000000000E+00 0. -1.
         11    1    1    2    0    0  0.30151322998E+01 -0.59635126885E+01 -0.45689651272E+03  0.45694537730E+03  0.00000000000E+00 0. -1.
        -15    1    1    2    0    0 -0.21106887612E+02 -0.18226943836E+02 -0.25588890479E+02  0.37890252457E+02  0.17770000000E+01 0. -1.
         15    1    1    2    0    0  0.24996757312E+02  0.29023904741E+02  0.21226778172E+02  0.43828743572E+02  0.17770000000E+01 0.  1.
</event>
<event>
 6    1  0.1860328E-003  0.5054673E+03  0.7546771E-02  0.9387659E-01
        -11   -1    0    0    0    0  0.00000000000E+00  0.00000000000E+00  0.50000000000E+03  0.50000000000E+03  0.00000000000E+00 0. -1.
         11   -1    0    0    0    0 -0.00000000000E+00 -0.00000000000E+00 -0.50000000000E+03  0.50000000000E+03  0.00000000000E+00 0.  1.
        -11    1    1    2    0    0  0.55687234123E+01 -0.72283590188E+01  0.49444846581E+03  0.49453265332E+03  0.00000000000E+00 0. -1.
         11    1    1    2    0    0  0.53984817024E+01 -0.82800563167E+01 -0.40616759233E+03  0.40628784869E+03  0.00000000000E+00 0.  1.
        -15    1    1    2    0    0  0.32374135718E+01  0.23869199520E+02 -0.29611015533E+02  0.38212426019E+02  0.17770000000E+01 0. -1.
         15    1    1    2    0    0 -0.14204618687E+02 -0.83607841844E+01 -0.58669857947E+02  0.60967071971E+02  0.17770000000E+01 0.  1.
</event>
<event>
 6    1  0.1860328E-003  0.5011538E+03  0.7546771E-02  0.9397232E-01
        -11   -1    0    0    0    0  0.00000000000E+00  0.00000000000E+00  0.50000000000E+03  0.50000000000E+03  0.00000000000E+00 0.  1.
         11   -1    0    0    0    0 -0.00000000000E+00 -0.00000000000E+00 -0.50000000000E+03  0.50000000000E+03  0.00000000000E+00 0. -1.
        -11    1    1    2    0    0  0.45925567118E+01 -0.27847035552E+02  0.49804718329E+03  0.49884621453E+03  0.00000000000E+00 0.  1.
         11    1    1    2    0    0 -0.39102381952E+00  0.23563870663E+01 -0.12251733764E+03  0.12254061972E+03  0.00000000000E+00 0. -1.
        -15    1    1    2    0    0  0.13456319633E+00  0.15999852656E+02 -0.42998728981E+02  0.45913634307E+02  0.17770000000E+01 0.  1.
         15    1    1    2    0    0 -0.43360960886E+01  0.94907958306E+01 -0.33253111667E+03  0.33269953144E+03  0.17770000000E+01 0. -1.
</event>
<event>
 6    1  0.1860328E-003  0.5010705E+03  0.7546771E-02  0.9397418E-01
        -11   -1    0    0    0    0  0.00000000000E+00  0.00000000000E+00  0.50000000000E+03  0.50000000000E+03  0.00000000000E+00 0.  1.
         11   -1    0    0    0    0 -0.00000000000E+00 -0.00000000000E+00 -0.50000000000E+03  0.50000000000E+03  0.00000000000E+00 0. -1.
        -11    1    1    2    0    0 -0.93032830281E+01  0.29277354208E+01  0.35944008394E+03  0.35957238027E+03  0.00000000000E+00 0.  1.
         11    1    1    2    0    0  0.82227749512E+00  0.84334127140E+01 -0.49885755396E+03  0.49892951179E+03  0.00000000000E+00 0. -1.
        -15    1    1    2    0    0 -0.38753779212E+01 -0.16269936023E+01  0.86862133450E+01  0.98119158929E+01  0.17770000000E+01 0. -1.
         15    1    1    2    0    0  0.12356383454E+02 -0.97341545325E+01  0.13073125667E+03  0.13168619205E+03  0.17770000000E+01 0. -1.
</event>
<event>
 6    1  0.1860328E-003  0.5000539E+03  0.7546771E-02  0.9399689E-01
        -11   -1    0    0    0    0  0.00000000000E+00  0.00000000000E+00  0.50000000000E+03  0.50000000000E+03  0.00000000000E+00 0.  1.
         11   -1    0    0    0    0 -0.00000000000E+00 -0.00000000000E+00 -0.50000000000E+03  0.50000000000E+03  0.00000000000E+00 0. -1.
        -11    1    1    2    0    0  0.52549883348E+01 -0.70351796765E+01  0.49986901066E+03  0.49994613357E+03  0.00000000000E+00 0.  1.
         11    1    1    2    0    0  0.58452764809E+00  0.96760017343E+00 -0.32481868699E+02  0.32501534069E+02  0.00000000000E+00 0. -1.
        -15    1    1    2    0    0 -0.52280201907E+01  0.79937763553E+01 -0.35436456499E+03  0.35449772256E+03  0.17770000000E+01 0. -1.
         15    1    1    2    0    0 -0.61149579221E+00 -0.19261968522E+01 -0.11302257697E+03  0.11305460980E+03  0.17770000000E+01 0. -1.
</event>
<event>
 6    1  0.1860328E-003  0.5016400E+03  0.7546771E-02  0.9396148E-01
        -11   -1    0    0    0    0  0.00000000000E+00  0.00000000000E+00  0.50000000000E+03  0.50000000000E+03  0.00000000000E+00 0. -1.
         11   -1    0    0    0    0 -0.00000000000E+00 -0.00000000000E+00 -0.50000000000E+03  0.50000000000E+03  0.00000000000E+00 0.  1.
        -11    1    1    2    0    0  0.27586191428E+01  0.81754379011E+01  0.38457999086E+03  0.38467676968E+03  0.00000000000E+00 0. -1.
         11    1    1    2    0    0  0.12574834004E+02  0.24171702284E+01 -0.49819546403E+03  0.49835999995E+03  0.00000000000E+00 0.  1.
        -15    1    1    2    0    0  0.14331190236E+01 -0.22559943082E+01  0.61044483322E+02  0.61128798561E+02  0.17770000000E+01 0. -1.
         15    1    1    2    0    0 -0.16766572170E+02 -0.83366138213E+01  0.52570989858E+02  0.55834431814E+02  0.17770000000E+01 0.  1.
</event>
<event>
 6    1  0.1860328E-003  0.5155730E+03  0.7546771E-02  0.9365623E-01
        -11   -1    0    0    0    0  0.00000000000E+00  0.00000000000E+00  0.50000000000E+03  0.50000000000E+03  0.00000000000E+00 0.  1.
         11   -1    0    0    0    0 -0.00000000000E+00 -0.00000000000E+00 -0.50000000000E+03  0.50000000000E+03  0.00000000000E+00 0.  1.
        -11    1    1    2    0    0 -0.40690786923E+01 -0.74290958081E+01  0.48435291627E+03  0.48442697733E+03  0.00000000000E+00 0.  1.
         11    1    1    2    0    0  0.58142074952E+01  0.46102241591E-01 -0.25375317131E+03  0.25381977678E+03  0.00000000000E+00 0.  1.
        -15    1    1    2    0    0  0.10543804413E+02  0.64176324600E+02 -0.10831325536E+03  0.12635146009E+03  0.17770000000E+01 0. -1.
         15    1    1    2    0    0 -0.12288933216E+02 -0.56793331033E+02 -0.12228648960E+03  0.13540178580E+03  0.17770000000E+01 0.  1.
</event>
<event>
 6    1  0.1860328E-003  0.5068574E+03  0.7546771E-02  0.9384595E-01
        -11   -1    0    0    0    0  0.00000000000E+00  0.00000000000E+00  0.50000000000E+03  0.50000000000E+03  0.00000000000E+00 0.  1.
         11   -1    0    0    0    0 -0.00000000000E+00 -0.00000000000E+00 -0.50000000000E+03  0.50000000000E+03  0.00000000000E+00 0.  1.
        -11    1    1    2    0    0 -0.33335524590E+01 -0.71432748506E+01  0.48143280469E+03  0.48149733580E+03  0.00000000000E+00 0.  1.
         11    1    1    2    0    0  0.19586852916E+01 -0.74068114325E+01 -0.49308309096E+03  0.49314260807E+03  0.00000000000E+00 0.  1.
        -15    1    1    2    0    0 -0.23350818661E+01  0.25887639478E+01  0.12085975220E+02  0.12703654282E+02  0.17770000000E+01 0.  1.
         15    1    1    2    0    0  0.37099490335E+01  0.11961322335E+02 -0.43568895207E+00  0.12656401847E+02  0.17770000000E+01 0. -1.
</event>
<event>
 6    1  0.1860328E-003  0.4925066E+03  0.7546771E-02  0.9416735E-01
        -11   -1    0    0    0    0  0.00000000000E+00  0.00000000000E+00  0.50000000000E+03  0.50000000000E+03  0.00000000000E+00 0. -1.
         11   -1    0    0    0    0 -0.00000000000E+00 -0.00000000000E+00 -0.50000000000E+03  0.50000000000E+03  0.00000000000E+00 0. -1.
        -11    1    1    2    0    0  0.21511872159E+01 -0.83933448714E+01  0.49419842807E+03  0.49427437942E+03  0.00000000000E+00 0. -1.
         11    1    1    2    0    0  0.44621992951E+01  0.14277779455E+02 -0.49055739001E+03  0.49078541045E+03  0.00000000000E+00 0. -1.
        -15    1    1    2    0    0 -0.27712026677E+01 -0.65130497881E+00 -0.67406945192E+01  0.75298375814E+01  0.17770000000E+01 0. -1.
         15    1    1    2    0    0 -0.38421838433E+01 -0.52331296049E+01  0.30996564611E+01  0.74103725495E+01  0.17770000000E+01 0.  1.
</event>
<event>
 6    1  0.1860328E-003  0.5069466E+03  0.7546771E-02  0.9384399E-01
        -11   -1    0    0    0    0  0.00000000000E+00  0.00000000000E+00  0.50000000000E+03  0.50000000000E+03  0.00000000000E+00 0. -1.
         11   -1    0    0    0    0 -0.00000000000E+00 -0.00000000000E+00 -0.50000000000E+03  0.50000000000E+03  0.00000000000E+00 0. -1.
        -11    1    1    2    0    0  0.11477886325E+02  0.93600182980E+01  0.49283092591E+03  0.49305341836E+03  0.00000000000E+00 0. -1.
         11    1    1    2    0    0 -0.60102974134E+01  0.46408481276E+01 -0.46956753179E+03  0.46962892592E+03  0.00000000000E+00 0. -1.
        -15    1    1    2    0    0 -0.73995060391E+01 -0.11314944786E+02  0.11813753339E+00  0.13636434674E+02  0.17770000000E+01 0.  1.
         15    1    1    2    0    0  0.19319171275E+01 -0.26859216394E+01 -0.23381531655E+02  0.23681221049E+02  0.17770000000E+01 0. -1.
</event>
<event>
 6    1  0.4550403E-003  0.5453584E+03  0.7546771E-02  0.9303671E-01
        -11   -1    0    0    0    0  0.00000000000E+00  0.00000000000E+00  0.50000000000E+03  0.50000000000E+03  0.00000000000E+00 0. -1.
         11   -1    0    0    0    0 -0.00000000000E+00 -0.00000000000E+00 -0.50000000000E+03  0.50000000000E+03  0.00000000000E+00 0. -1.
        -11    1    1    2    0    0  0.40548878071E+02 -0.17808046489E+02  0.40873429297E+03  0.41112657453E+03  0.00000000000E+00 0. -1.
         11    1    1    2    0    0 -0.90270228173E+01  0.91155833557E+01 -0.45446057905E+03  0.45464161590E+03  0.00000000000E+00 0. -1.
        -15    1    1    2    0    0  0.15263715133E+01 -0.28755895174E+01 -0.40750204257E+02  0.40918647351E+02  0.17770000000E+01 0.  1.
         15    1    1    2    0    0 -0.33048226767E+02  0.11568052651E+02  0.86476490330E+02  0.93313162219E+02  0.17770000000E+01 0. -1.
</event>
<event>
 6    1  0.1860328E-003  0.5027969E+03  0.7546771E-02  0.9393573E-01
        -11   -1    0    0    0    0  0.00000000000E+00  0.00000000000E+00  0.50000000000E+03  0.50000000000E+03  0.00000000000E+00 0. -1.
         11   -1    0    0    0    0 -0.00000000000E+00 -0.00000000000E+00 -0.50000000000E+03  0.50000000000E+03  0.00000000000E+00 0. -1.
        -11    1    1    2    0    0 -0.69351136709E+01 -0.10083109893E+02  0.34024754799E+03  0.34046755913E+03  0.00000000000E+00 0. -1.
         11    1    1    2    0    0 -0.28514298480E+02  0.23448852485E+02 -0.49583061887E+03  0.49720309383E+03  0.00000000000E+00 0. -1.
        -15    1    1    2    0    0  0.33542836453E+02 -0.19408111361E+02  0.14247748947E+03  0.14766444866E+03  0.17770000000E+01 0.  1.
         15    1    1    2    0    0  0.19065756976E+01  0.60423687691E+01  0.13105581412E+02  0.14664898376E+02  0.17770000000E+01 0. -1.
</event>
<event>
 6    1  0.1860328E-003  0.4854908E+03  0.7546771E-02  0.9432873E-01
        -11   -1    0    0    0    0  0.00000000000E+00  0.00000000000E+00  0.50000000000E+03  0.50000000000E+03  0.00000000000E+00 0.  1.
         11   -1    0    0    0    0 -0.00000000000E+00 -0.00000000000E+00 -0.50000000000E+03  0.50000000000E+03  0.00000000000E+00 0.  1.
        -11    1    1    2    0    0 -0.84673549403E+01  0.10803877043E+01  0.48704872778E+03  0.48712352291E+03  0.00000000000E+00 0.  1.
         11    1    1    2    0    0 -0.38876353887E+00 -0.68006437702E+01 -0.48387258312E+03  0.48392052714E+03  0.00000000000E+00 0.  1.
        -15    1    1    2    0    0  0.36371721656E+01  0.76164211314E+01 -0.14125749505E+02  0.16550934121E+02  0.17770000000E+01 0.  1.
         15    1    1    2    0    0  0.52189463136E+01 -0.18961650656E+01  0.10949604840E+02  0.12405015829E+02  0.17770000000E+01 0. -1.
</event>
<event>
 6    1  0.1860328E-003  0.4855806E+03  0.7546771E-02  0.9432665E-01
        -11   -1    0    0    0    0  0.00000000000E+00  0.00000000000E+00  0.50000000000E+03  0.50000000000E+03  0.00000000000E+00 0.  1.
         11   -1    0    0    0    0 -0.00000000000E+00 -0.00000000000E+00 -0.50000000000E+03  0.50000000000E+03  0.00000000000E+00 0.  1.
        -11    1    1    2    0    0 -0.65917602919E+01  0.33594978134E+01  0.48401319836E+03  0.48406974055E+03  0.00000000000E+00 0.  1.
         11    1    1    2    0    0 -0.11002041088E+02  0.11558817541E+02 -0.48710901441E+03  0.48737033465E+03  0.00000000000E+00 0.  1.
        -15    1    1    2    0    0  0.16423105826E+02 -0.17316474219E+02  0.54960044484E+01  0.24554887054E+02  0.17770000000E+01 0.  1.
         15    1    1    2    0    0  0.11706955543E+01  0.23981588642E+01 -0.24001883951E+01  0.40050377464E+01  0.17770000000E+01 0. -1.
</event>
<event>
 6    1  0.1860328E-003  0.4592762E+03  0.7546771E-02  0.9495847E-01
        -11   -1    0    0    0    0  0.00000000000E+00  0.00000000000E+00  0.50000000000E+03  0.50000000000E+03  0.00000000000E+00 0. -1.
         11   -1    0    0    0    0 -0.00000000000E+00 -0.00000000000E+00 -0.50000000000E+03  0.50000000000E+03  0.00000000000E+00 0.  1.
        -11    1    1    2    0    0 -0.24498092305E+02 -0.46073101759E+01  0.45914088018E+03  0.45981706328E+03  0.00000000000E+00 0. -1.
         11    1    1    2    0    0 -0.10425507270E+02  0.85937801129E+01 -0.45920892205E+03  0.45940763854E+03  0.00000000000E+00 0.  1.
        -15    1    1    2    0    0  0.19931363565E+02  0.34383790024E+01  0.35869804053E+02  0.41217499627E+02  0.17770000000E+01 0.  1.
         15    1    1    2    0    0  0.14992236011E+02 -0.74248489395E+01 -0.35801762178E+02  0.39557798554E+02  0.17770000000E+01 0. -1.
</event>
<event>
 6    1  0.1860328E-003  0.5051656E+03  0.7546771E-02  0.9388325E-01
        -11   -1    0    0    0    0  0.00000000000E+00  0.00000000000E+00  0.50000000000E+03  0.50000000000E+03  0.00000000000E+00 0.  1.
         11   -1    0    0    0    0 -0.00000000000E+00 -0.00000000000E+00 -0.50000000000E+03  0.50000000000E+03  0.00000000000E+00 0. -1.
        -11    1    1    2    0    0 -0.39801204983E+01 -0.87487385222E+01  0.49474107625E+03  0.49483443122E+03  0.00000000000E+00 0.  1.
         11    1    1    2    0    0 -0.68724467840E+01  0.33664497141E+01 -0.37658748895E+03  0.37666523644E+03  0.00000000000E+00 0. -1.
        -15    1    1    2    0    0 -0.13588274978E+02  0.36396428775E+01 -0.94130466323E+01  0.17019147835E+02  0.17770000000E+01 0. -1.
         15    1    1    2    0    0  0.24440842260E+02  0.17426459306E+01 -0.10874054067E+03  0.11148118451E+03  0.17770000000E+01 0.  1.
</event>
<event>
 6    1  0.1860328E-003  0.5011506E+03  0.7546771E-02  0.9397239E-01
        -11   -1    0    0    0    0  0.00000000000E+00  0.00000000000E+00  0.50000000000E+03  0.50000000000E+03  0.00000000000E+00 0. -1.
         11   -1    0    0    0    0 -0.00000000000E+00 -0.00000000000E+00 -0.50000000000E+03  0.50000000000E+03  0.00000000000E+00 0. -1.
        -11    1    1    2    0    0  0.68404973086E+01 -0.85983231810E+01  0.49872835801E+03  0.49884937471E+03  0.00000000000E+00 0. -1.
         11    1    1    2    0    0 -0.25763763056E+01 -0.66308984078E+01 -0.18710268895E+03  0.18723787742E+03  0.00000000000E+00 0. -1.
        -15    1    1    2    0    0  0.41951660888E+01  0.12194499178E+02 -0.38650011169E+02  0.40783407423E+02  0.17770000000E+01 0. -1.
         15    1    1    2    0    0 -0.84592870918E+01  0.30347224107E+01 -0.27297565789E+03  0.27312934044E+03  0.17770000000E+01 0.  1.
</event>
<event>
 6    1  0.1860328E-003  0.5076923E+03  0.7546771E-02  0.9382760E-01
        -11   -1    0    0    0    0  0.00000000000E+00  0.00000000000E+00  0.50000000000E+03  0.50000000000E+03  0.00000000000E+00 0.  1.
         11   -1    0    0    0    0 -0.00000000000E+00 -0.00000000000E+00 -0.50000000000E+03  0.50000000000E+03  0.00000000000E+00 0.  1.
        -11    1    1    2    0    0 -0.19285036117E+01  0.77722012401E+01  0.46897696239E+03  0.46904532563E+03  0.00000000000E+00 0.  1.
         11    1    1    2    0    0  0.36054279374E+01 -0.96489857386E+01 -0.49219996626E+03  0.49230773793E+03  0.00000000000E+00 0.  1.
        -15    1    1    2    0    0 -0.12775056154E+02  0.97860861649E+01  0.77438326649E+01  0.17946983466E+02  0.17770000000E+01 0. -1.
         15    1    1    2    0    0  0.11098131829E+02 -0.79093016664E+01  0.15479171209E+02  0.20699952977E+02  0.17770000000E+01 0. -1.
</event>
<event>
 6    1  0.1860328E-003  0.5162466E+03  0.7546771E-02  0.9364173E-01
        -11   -1    0    0    0    0  0.00000000000E+00  0.00000000000E+00  0.50000000000E+03  0.50000000000E+03  0.00000000000E+00 0. -1.
         11   -1    0    0    0    0 -0.00000000000E+00 -0.00000000000E+00 -0.50000000000E+03  0.50000000000E+03  0.00000000000E+00 0. -1.
        -11    1    1    2    0    0 -0.37376593893E+01 -0.86180156838E+01  0.27703350246E+03  0.27719271595E+03  0.00000000000E+00 0. -1.
         11    1    1    2    0    0 -0.60155669122E+01  0.11564649362E+02 -0.48357770200E+03  0.48375336901E+03  0.00000000000E+00 0. -1.
        -15    1    1    2    0    0 -0.88813385223E+01 -0.10197699538E+02  0.21630338313E+03  0.21673297519E+03  0.17770000000E+01 0. -1.
         15    1    1    2    0    0  0.18634564824E+02  0.72510658598E+01 -0.97591835915E+01  0.22320939847E+02  0.17770000000E+01 0.  1.
</event>
<event>
 6    1  0.1860328E-003  0.5065822E+03  0.7546771E-02  0.9385201E-01
        -11   -1    0    0    0    0  0.00000000000E+00  0.00000000000E+00  0.50000000000E+03  0.50000000000E+03  0.00000000000E+00 0.  1.
         11   -1    0    0    0    0 -0.00000000000E+00 -0.00000000000E+00 -0.50000000000E+03  0.50000000000E+03  0.00000000000E+00 0. -1.
        -11    1    1    2    0    0 -0.71241020411E+01  0.18543874336E+01  0.28918865214E+03  0.28928233287E+03  0.00000000000E+00 0.  1.
         11    1    1    2    0    0  0.11744162867E+02  0.28057560023E+01 -0.49327003032E+03  0.49341779502E+03  0.00000000000E+00 0. -1.
        -15    1    1    2    0    0  0.39239672541E+01 -0.82448937975E+01  0.20716541022E+03  0.20737415633E+03  0.17770000000E+01 0.  1.
         15    1    1    2    0    0 -0.85440280805E+01  0.35847503616E+01 -0.30840320434E+01  0.99257157747E+01  0.17770000000E+01 0. -1.
</event>
<event>
 6    1  0.1860328E-003  0.5113404E+03  0.7546771E-02  0.9374786E-01
        -11   -1    0    0    0    0  0.00000000000E+00  0.00000000000E+00  0.50000000000E+03  0.50000000000E+03  0.00000000000E+00 0.  1.
         11   -1    0    0    0    0 -0.00000000000E+00 -0.00000000000E+00 -0.50000000000E+03  0.50000000000E+03  0.00000000000E+00 0.  1.
        -11    1    1    2    0    0 -0.19837939097E+01 -0.11968229156E+01  0.10247202363E+03  0.10249821194E+03  0.00000000000E+00 0.  1.
         11    1    1    2    0    0  0.10920975369E+02 -0.16480106238E+01 -0.48853477048E+03  0.48865960096E+03  0.00000000000E+00 0.  1.
        -15    1    1    2    0    0 -0.14726390403E+02  0.19889005916E+01  0.39647995032E+03  0.39676231050E+03  0.17770000000E+01 0. -1.
         15    1    1    2    0    0  0.57892089444E+01  0.85593294779E+00 -0.10417203470E+02  0.12079876595E+02  0.17770000000E+01 0.  1.
</event>
<event>
 6    1  0.1860328E-003  0.5010826E+03  0.7546771E-02  0.9397390E-01
        -11   -1    0    0    0    0  0.00000000000E+00  0.00000000000E+00  0.50000000000E+03  0.50000000000E+03  0.00000000000E+00 0.  1.
         11   -1    0    0    0    0 -0.00000000000E+00 -0.00000000000E+00 -0.50000000000E+03  0.50000000000E+03  0.00000000000E+00 0.  1.
        -11    1    1    2    0    0 -0.60485326523E+01  0.21714059142E+01  0.41197786220E+03  0.41202798290E+03  0.00000000000E+00 0.  1.
         11    1    1    2    0    0  0.46575155991E+01 -0.18010798895E+02 -0.49857040328E+03  0.49891735624E+03  0.00000000000E+00 0.  1.
        -15    1    1    2    0    0 -0.75646051031E+00  0.61502459812E+01  0.63886233321E+02  0.64210640046E+02  0.17770000000E+01 0. -1.
         15    1    1    2    0    0  0.21474775636E+01  0.96891469991E+01  0.22706307759E+02  0.24844020820E+02  0.17770000000E+01 0.  1.
</event>
<event>
 6    1  0.1860328E-003  0.5134911E+03  0.7546771E-02  0.9370118E-01
        -11   -1    0    0    0    0  0.00000000000E+00  0.00000000000E+00  0.50000000000E+03  0.50000000000E+03  0.00000000000E+00 0. -1.
         11   -1    0    0    0    0 -0.00000000000E+00 -0.00000000000E+00 -0.50000000000E+03  0.50000000000E+03  0.00000000000E+00 0.  1.
        -11    1    1    2    0    0  0.32201217085E+02  0.30500102968E+02  0.48448291847E+03  0.48650886215E+03  0.00000000000E+00 0. -1.
         11    1    1    2    0    0  0.51819772904E+01 -0.35496511655E+01 -0.32973362563E+03  0.32979344563E+03  0.00000000000E+00 0.  1.
        -15    1    1    2    0    0 -0.57058850390E+02  0.88840987698E+01 -0.83598053403E+02  0.10161905274E+03  0.17770000000E+01 0. -1.
         15    1    1    2    0    0  0.19675656015E+02 -0.35834550572E+02 -0.71151239439E+02  0.82078639468E+02  0.17770000000E+01 0.  1.
</event>
<event>
 6    1  0.1860328E-003  0.5037709E+03  0.7546771E-02  0.9391411E-01
        -11   -1    0    0    0    0  0.00000000000E+00  0.00000000000E+00  0.50000000000E+03  0.50000000000E+03  0.00000000000E+00 0.  1.
         11   -1    0    0    0    0 -0.00000000000E+00 -0.00000000000E+00 -0.50000000000E+03  0.50000000000E+03  0.00000000000E+00 0. -1.
        -11    1    1    2    0    0  0.48212995468E+01 -0.33803597649E+01  0.35640691833E+03  0.35645555571E+03  0.00000000000E+00 0.  1.
         11    1    1    2    0    0  0.54894309139E+01  0.54711095612E+01 -0.49616857292E+03  0.49622909995E+03  0.00000000000E+00 0. -1.
        -15    1    1    2    0    0 -0.14612978079E+02 -0.46193272025E+01  0.14102752944E+03  0.14186895045E+03  0.17770000000E+01 0.  1.
         15    1    1    2    0    0  0.43022476179E+01  0.25285774063E+01 -0.12658748542E+01  0.54463938906E+01  0.17770000000E+01 0. -1.
</event>
<event>
 6    1  0.1860328E-003  0.5001618E+03  0.7546771E-02  0.9399448E-01
        -11   -1    0    0    0    0  0.00000000000E+00  0.00000000000E+00  0.50000000000E+03  0.50000000000E+03  0.00000000000E+00 0. -1.
         11   -1    0    0    0    0 -0.00000000000E+00 -0.00000000000E+00 -0.50000000000E+03  0.50000000000E+03  0.00000000000E+00 0. -1.
        -11    1    1    2    0    0  0.45079886507E+01  0.85903442720E+00  0.27523576438E+03  0.27527401965E+03  0.00000000000E+00 0. -1.
         11    1    1    2    0    0 -0.14600454066E+02 -0.10776503910E+02 -0.49950862862E+03  0.49983815017E+03  0.00000000000E+00 0. -1.
        -15    1    1    2    0    0 -0.15476693548E+00  0.44055316129E+01  0.54101317253E+02  0.54309694522E+02  0.17770000000E+01 0.  1.
         15    1    1    2    0    0  0.10247232350E+02  0.55119378700E+01  0.17017154699E+03  0.17057813566E+03  0.17770000000E+01 0. -1.
</event>
<event>
 6    1  0.1860328E-003  0.5009760E+03  0.7546771E-02  0.9397629E-01
        -11   -1    0    0    0    0  0.00000000000E+00  0.00000000000E+00  0.50000000000E+03  0.50000000000E+03  0.00000000000E+00 0. -1.
         11   -1    0    0    0    0 -0.00000000000E+00 -0.00000000000E+00 -0.50000000000E+03  0.50000000000E+03  0.00000000000E+00 0. -1.
        -11    1    1    2    0    0 -0.35390662960E+01  0.32744538300E+01  0.33414600688E+03  0.33418079081E+03  0.00000000000E+00 0. -1.
         11    1    1    2    0    0  0.35279166115E+01  0.15777304648E+02 -0.49876206597E+03  0.49902401544E+03  0.00000000000E+00 0. -1.
        -15    1    1    2    0    0  0.32998442545E+01  0.19051898440E+01  0.12299279944E+02  0.12998028181E+02  0.17770000000E+01 0.  1.
         15    1    1    2    0    0 -0.32886945699E+01 -0.20956948322E+02  0.15231677915E+03  0.15379716556E+03  0.17770000000E+01 0. -1.
</event>
<event>
 6    1  0.1860328E-003  0.5115129E+03  0.7546771E-02  0.9374411E-01
        -11   -1    0    0    0    0  0.00000000000E+00  0.00000000000E+00  0.50000000000E+03  0.50000000000E+03  0.00000000000E+00 0. -1.
         11   -1    0    0    0    0 -0.00000000000E+00 -0.00000000000E+00 -0.50000000000E+03  0.50000000000E+03  0.00000000000E+00 0.  1.
        -11    1    1    2    0    0 -0.48257722710E+01 -0.53662294644E+01  0.48843376785E+03  0.48848708281E+03  0.00000000000E+00 0. -1.
         11    1    1    2    0    0 -0.53494289172E+01 -0.86994660318E+01 -0.45835131630E+03  0.45846507638E+03  0.00000000000E+00 0.  1.
        -15    1    1    2    0    0  0.11813618814E+02  0.17915379582E+02 -0.38138678980E+02  0.43797705173E+02  0.17770000000E+01 0.  1.
         15    1    1    2    0    0 -0.16384176258E+01 -0.38496840855E+01  0.80562274314E+01  0.92501356370E+01  0.17770000000E+01 0. -1.
</event>
<event>
 6    1  0.1860328E-003  0.5690862E+03  0.7546771E-02  0.9257248E-01
        -11   -1    0    0    0    0  0.00000000000E+00  0.00000000000E+00  0.50000000000E+03  0.50000000000E+03  0.00000000000E+00 0.  1.
         11   -1    0    0    0    0 -0.00000000000E+00 -0.00000000000E+00 -0.50000000000E+03  0.50000000000E+03  0.00000000000E+00 0. -1.
        -11    1    1    2    0    0  0.17170008617E+02 -0.33469278575E+01  0.31180139353E+03  0.31229172280E+03  0.00000000000E+00 0.  1.
         11    1    1    2    0    0 -0.19145899265E+02 -0.17021228800E+02 -0.43015157029E+03  0.43091375136E+03  0.00000000000E+00 0. -1.
        -15    1    1    2    0    0 -0.38029665685E+01  0.57790395576E+02 -0.54674575696E+02  0.79665923280E+02  0.17770000000E+01 0. -1.
         15    1    1    2    0    0  0.57788572168E+01 -0.37422238919E+02  0.17302475245E+03  0.17712860256E+03  0.17770000000E+01 0.  1.
</event>
<event>
 6    1  0.1860328E-003  0.5156299E+03  0.7546771E-02  0.9365500E-01
        -11   -1    0    0    0    0  0.00000000000E+00  0.00000000000E+00  0.50000000000E+03  0.50000000000E+03  0.00000000000E+00 0.  1.
         11   -1    0    0    0    0 -0.00000000000E+00 -0.00000000000E+00 -0.50000000000E+03  0.50000000000E+03  0.00000000000E+00 0. -1.
        -11    1    1    2    0    0  0.45101911985E+01  0.17742742693E+01  0.34765614034E+03  0.34768992190E+03  0.00000000000E+00 0.  1.
         11    1    1    2    0    0 -0.21220960591E+02  0.31276390392E+02 -0.48289319740E+03  0.48437008770E+03  0.00000000000E+00 0. -1.
        -15    1    1    2    0    0  0.24718167125E+02  0.78055735793E-01 -0.35348566032E+01  0.25032914710E+02  0.17770000000E+01 0.  1.
         15    1    1    2    0    0 -0.80073977319E+01 -0.33128720397E+02  0.13877191366E+03  0.14290707569E+03  0.17770000000E+01 0. -1.
</event>
<event>
 6    1  0.1860328E-003  0.5056688E+03  0.7546771E-02  0.9387214E-01
        -11   -1    0    0    0    0  0.00000000000E+00  0.00000000000E+00  0.50000000000E+03  0.50000000000E+03  0.00000000000E+00 0.  1.
         11   -1    0    0    0    0 -0.00000000000E+00 -0.00000000000E+00 -0.50000000000E+03  0.50000000000E+03  0.00000000000E+00 0. -1.
        -11    1    1    2    0    0  0.57376364735E+01 -0.27352031804E+02  0.49354055582E+03  0.49433119906E+03  0.00000000000E+00 0.  1.
         11    1    1    2    0    0 -0.79152720793E+01  0.49361161635E+01 -0.42353875873E+03  0.42364147215E+03  0.00000000000E+00 0. -1.
        -15    1    1    2    0    0  0.15498606703E+00  0.11763137873E+02 -0.70036146686E+02  0.71039531283E+02  0.17770000000E+01 0. -1.
         15    1    1    2    0    0  0.20226495387E+01  0.10652777768E+02  0.34349592269E-01  0.10987797515E+02  0.17770000000E+01 0.  1.
</event>
<event>
 6    1  0.1860328E-003  0.5064670E+03  0.7546771E-02  0.9385455E-01
        -11   -1    0    0    0    0  0.00000000000E+00  0.00000000000E+00  0.50000000000E+03  0.50000000000E+03  0.00000000000E+00 0.  1.
         11   -1    0    0    0    0 -0.00000000000E+00 -0.00000000000E+00 -0.50000000000E+03  0.50000000000E+03  0.00000000000E+00 0.  1.
        -11    1    1    2    0    0  0.72154380496E+01  0.84740032645E+01  0.36863034422E+03  0.36879832152E+03  0.00000000000E+00 0.  1.
         11    1    1    2    0    0  0.13815646267E+02 -0.25915238010E+02 -0.49265847149E+03  0.49353301933E+03  0.00000000000E+00 0.  1.
        -15    1    1    2    0    0 -0.14062690160E+02 -0.20904870053E+00  0.11620497493E+03  0.11706646353E+03  0.17770000000E+01 0.  1.
         15    1    1    2    0    0 -0.69683941568E+01  0.17650283446E+02  0.78231523358E+01  0.20602195619E+02  0.17770000000E+01 0. -1.
</event>
<event>
 6    1  0.1860328E-003  0.5019181E+03  0.7546771E-02  0.9395528E-01
        -11   -1    0    0    0    0  0.00000000000E+00  0.00000000000E+00  0.50000000000E+03  0.50000000000E+03  0.00000000000E+00 0. -1.
         11   -1    0    0    0    0 -0.00000000000E+00 -0.00000000000E+00 -0.50000000000E+03  0.50000000000E+03  0.00000000000E+00 0. -1.
        -11    1    1    2    0    0  0.18936412532E+00  0.52393885309E+01  0.26617271868E+03  0.26622434754E+03  0.00000000000E+00 0. -1.
         11    1    1    2    0    0 -0.81198285825E+01  0.72407150006E+01 -0.49796307127E+03  0.49808190082E+03  0.00000000000E+00 0. -1.
        -15    1    1    2    0    0 -0.14589883522E+02  0.74721642629E+00  0.53318061547E+02  0.55311811123E+02  0.17770000000E+01 0.  1.
         15    1    1    2    0    0  0.22520347980E+02 -0.13227319958E+02  0.17847229105E+03  0.18038194052E+03  0.17770000000E+01 0. -1.
</event>
<event>
 6    1  0.1860328E-003  0.5004755E+03  0.7546771E-02  0.9398746E-01
        -11   -1    0    0    0    0  0.00000000000E+00  0.00000000000E+00  0.50000000000E+03  0.50000000000E+03  0.00000000000E+00 0.  1.
         11   -1    0    0    0    0 -0.00000000000E+00 -0.00000000000E+00 -0.50000000000E+03  0.50000000000E+03  0.00000000000E+00 0.  1.
        -11    1    1    2    0    0  0.51098455834E+01  0.33308910240E+01  0.38527029805E+03  0.38531857977E+03  0.00000000000E+00 0.  1.
         11    1    1    2    0    0 -0.14710662639E+01 -0.13095480589E+02 -0.49935062697E+03  0.49952447818E+03  0.00000000000E+00 0.  1.
        -15    1    1    2    0    0 -0.53280880311E+01  0.16865951046E+01  0.71984964341E+02  0.72223444568E+02  0.17770000000E+01 0.  1.
         15    1    1    2    0    0  0.16893087115E+01  0.80779944606E+01  0.42095364578E+02  0.42933497486E+02  0.17770000000E+01 0. -1.
</event>
<event>
 6    1  0.1860328E-003  0.4947897E+03  0.7546771E-02  0.9411544E-01
        -11   -1    0    0    0    0  0.00000000000E+00  0.00000000000E+00  0.50000000000E+03  0.50000000000E+03  0.00000000000E+00 0. -1.
         11   -1    0    0    0    0 -0.00000000000E+00 -0.00000000000E+00 -0.50000000000E+03  0.50000000000E+03  0.00000000000E+00 0. -1.
        -11    1    1    2    0    0 -0.17450823985E+00  0.17821567199E+02  0.49891341980E+03  0.49923164881E+03  0.00000000000E+00 0. -1.
         11    1    1    2    0    0  0.45924712910E+00  0.82515509936E+00 -0.11755298815E+02  0.11793169171E+02  0.00000000000E+00 0. -1.
        -15    1    1    2    0    0 -0.17443431709E+02 -0.15727287048E+02 -0.33181421327E+03  0.33264914058E+03  0.17770000000E+01 0. -1.
         15    1    1    2    0    0  0.17158692820E+02 -0.29194352507E+01 -0.15534390771E+03  0.15632604145E+03  0.17770000000E+01 0.  1.
</event>
<event>
 6    1  0.1860328E-003  0.5152232E+03  0.7546771E-02  0.9366376E-01
        -11   -1    0    0    0    0  0.00000000000E+00  0.00000000000E+00  0.50000000000E+03  0.50000000000E+03  0.00000000000E+00 0.  1.
         11   -1    0    0    0    0 -0.00000000000E+00 -0.00000000000E+00 -0.50000000000E+03  0.50000000000E+03  0.00000000000E+00 0.  1.
        -11    1    1    2    0    0  0.15558217056E+01 -0.13777734399E+02  0.48457845889E+03  0.48477678304E+03  0.00000000000E+00 0.  1.
         11    1    1    2    0    0  0.74905477789E+01  0.12249251959E+02 -0.40185525366E+03  0.40211167277E+03  0.00000000000E+00 0.  1.
        -15    1    1    2    0    0 -0.14834404944E+02 -0.19447392180E+02 -0.87407319145E+02  0.90782475191E+02  0.17770000000E+01 0. -1.
         15    1    1    2    0    0  0.57880354594E+01  0.20975874620E+02  0.46841139123E+01  0.22329069007E+02  0.17770000000E+01 0.  1.
</event>
<event>
 6    1  0.1860328E-003  0.5090829E+03  0.7546771E-02  0.9379712E-01
        -11   -1    0    0    0    0  0.00000000000E+00  0.00000000000E+00  0.50000000000E+03  0.50000000000E+03  0.00000000000E+00 0. -1.
         11   -1    0    0    0    0 -0.00000000000E+00 -0.00000000000E+00 -0.50000000000E+03  0.50000000000E+03  0.00000000000E+00 0. -1.
        -11    1    1    2    0    0 -0.88875180164E+00  0.74695987615E+01  0.49085945304E+03  0.49091708813E+03  0.00000000000E+00 0. -1.
         11    1    1    2    0    0  0.39243502163E+01  0.18943324637E+01 -0.21738908288E+03  0.21743275369E+03  0.00000000000E+00 0. -1.
        -15    1    1    2    0    0 -0.72257467648E+01 -0.26569470380E+01 -0.28068663671E+03  0.28079782147E+03  0.17770000000E+01 0. -1.
         15    1    1    2    0    0  0.41901483501E+01 -0.67069841872E+01  0.72162665570E+01  0.10852336712E+02  0.17770000000E+01 0. -1.
</event>
<event>
 6    1  0.1860328E-003  0.5222242E+03  0.7546771E-02  0.9351410E-01
        -11   -1    0    0    0    0  0.00000000000E+00  0.00000000000E+00  0.50000000000E+03  0.50000000000E+03  0.00000000000E+00 0. -1.
         11   -1    0    0    0    0 -0.00000000000E+00 -0.00000000000E+00 -0.50000000000E+03  0.50000000000E+03  0.00000000000E+00 0.  1.
        -11    1    1    2    0    0 -0.10160810816E+02 -0.30926852219E+02  0.47666550138E+03  0.47777579729E+03  0.00000000000E+00 0. -1.
         11    1    1    2    0    0 -0.12863136202E+02 -0.37166156166E+00 -0.38815354757E+03  0.38836680457E+03  0.00000000000E+00 0.  1.
        -15    1    1    2    0    0  0.71255076930E+01  0.52144507815E+02 -0.13479683102E+02  0.54356987966E+02  0.17770000000E+01 0.  1.
         15    1    1    2    0    0  0.15898439325E+02 -0.20845994035E+02 -0.75032270716E+02  0.79500410176E+02  0.17770000000E+01 0. -1.
</event>
<event>
 6    1  0.1860328E-003  0.5208725E+03  0.7546771E-02  0.9354280E-01
        -11   -1    0    0    0    0  0.00000000000E+00  0.00000000000E+00  0.50000000000E+03  0.50000000000E+03  0.00000000000E+00 0. -1.
         11   -1    0    0    0    0 -0.00000000000E+00 -0.00000000000E+00 -0.50000000000E+03  0.50000000000E+03  0.00000000000E+00 0. -1.
        -11    1    1    2    0    0 -0.12098287717E+01 -0.11454127316E+02  0.47898907467E+03  0.47912753456E+03  0.00000000000E+00 0. -1.
         11    1    1    2    0    0  0.78301062602E+00 -0.60725689488E+01 -0.45010706188E+03  0.45014870472E+03  0.00000000000E+00 0. -1.
        -15    1    1    2    0    0 -0.71823006972E+01 -0.76727806625E+01  0.15666585180E+02  0.18948789581E+02  0.17770000000E+01 0. -1.
         15    1    1    2    0    0  0.76091188429E+01  0.25199476928E+02 -0.44548597968E+02  0.51774971144E+02  0.17770000000E+01 0.  1.
</event>
<event>
 6    1  0.1860328E-003  0.5083402E+03  0.7546771E-02  0.9381339E-01
        -11   -1    0    0    0    0  0.00000000000E+00  0.00000000000E+00  0.50000000000E+03  0.50000000000E+03  0.00000000000E+00 0. -1.
         11   -1    0    0    0    0 -0.00000000000E+00 -0.00000000000E+00 -0.50000000000E+03  0.50000000000E+03  0.00000000000E+00 0.  1.
        -11    1    1    2    0    0  0.35232098153E+01  0.14457444936E+02  0.49143455632E+03  0.49165979485E+03  0.00000000000E+00 0. -1.
         11    1    1    2    0    0 -0.58600464943E+01 -0.98515247034E+00 -0.40662966459E+03  0.40667308099E+03  0.00000000000E+00 0.  1.
        -15    1    1    2    0    0 -0.18393455938E+01 -0.17399953323E+02 -0.96573998403E+00  0.17613402583E+02  0.17770000000E+01 0.  1.
         15    1    1    2    0    0  0.41761822728E+01  0.39276608567E+01 -0.83839151743E+02  0.84053721584E+02  0.17770000000E+01 0. -1.
</event>
<event>
 6    1  0.1860328E-003  0.5000146E+03  0.7546771E-02  0.9399777E-01
        -11   -1    0    0    0    0  0.00000000000E+00  0.00000000000E+00  0.50000000000E+03  0.50000000000E+03  0.00000000000E+00 0. -1.
         11   -1    0    0    0    0 -0.00000000000E+00 -0.00000000000E+00 -0.50000000000E+03  0.50000000000E+03  0.00000000000E+00 0. -1.
        -11    1    1    2    0    0 -0.73199745325E+01 -0.55704267145E+01  0.49990076345E+03  0.49998538477E+03  0.00000000000E+00 0. -1.
         11    1    1    2    0    0  0.35081409903E+00  0.41561858609E+00 -0.13227142316E+02  0.13238319500E+02  0.00000000000E+00 0. -1.
        -15    1    1    2    0    0  0.57681063591E+01  0.26249844792E+01 -0.28972421176E+03  0.28979896170E+03  0.17770000000E+01 0.  1.
         15    1    1    2    0    0  0.12010540743E+01  0.25298236492E+01 -0.19694940938E+03  0.19697733403E+03  0.17770000000E+01 0. -1.
</event>
<event>
 6    1  0.1860328E-003  0.5098637E+03  0.7546771E-02  0.9378005E-01
        -11   -1    0    0    0    0  0.00000000000E+00  0.00000000000E+00  0.50000000000E+03  0.50000000000E+03  0.00000000000E+00 0.  1.
         11   -1    0    0    0    0 -0.00000000000E+00 -0.00000000000E+00 -0.50000000000E+03  0.50000000000E+03  0.00000000000E+00 0. -1.
        -11    1    1    2    0    0  0.13055354892E+02  0.68074933772E+01  0.48991512679E+03  0.49013632361E+03  0.00000000000E+00 0.  1.
         11    1    1    2    0    0 -0.11980992524E+02 -0.99824008248E+01 -0.45763907273E+03  0.45790469904E+03  0.00000000000E+00 0. -1.
        -15    1    1    2    0    0 -0.18700756463E+02 -0.50245606117E+01 -0.85709352539E+01  0.21250486153E+02  0.17770000000E+01 0.  1.
         15    1    1    2    0    0  0.17626394096E+02  0.81994680593E+01 -0.23705118805E+02  0.30708491201E+02  0.17770000000E+01 0. -1.
</event>
<event>
 6    1  0.1860328E-003  0.4857615E+03  0.7546771E-02  0.9432245E-01
        -11   -1    0    0    0    0  0.00000000000E+00  0.00000000000E+00  0.50000000000E+03  0.50000000000E+03  0.00000000000E+00 0. -1.
         11   -1    0    0    0    0 -0.00000000000E+00 -0.00000000000E+00 -0.50000000000E+03  0.50000000000E+03  0.00000000000E+00 0.  1.
        -11    1    1    2    0    0 -0.11286258568E+02  0.27228903049E+01  0.48246076942E+03  0.48260044321E+03  0.00000000000E+00 0. -1.
         11    1    1    2    0    0  0.10805236224E+02  0.12693321649E+02 -0.48878140729E+03  0.48906557602E+03  0.00000000000E+00 0.  1.
        -15    1    1    2    0    0 -0.11421429175E+01 -0.46705863645E+01  0.13999954619E+02  0.14908900890E+02  0.17770000000E+01 0. -1.
         15    1    1    2    0    0  0.16231652623E+01 -0.10745625589E+02 -0.76793167504E+01  0.13425079870E+02  0.17770000000E+01 0.  1.
</event>
<event>
 6    1  0.1860328E-003  0.5032543E+03  0.7546771E-02  0.9392557E-01
        -11   -1    0    0    0    0  0.00000000000E+00  0.00000000000E+00  0.50000000000E+03  0.50000000000E+03  0.00000000000E+00 0. -1.
         11   -1    0    0    0    0 -0.00000000000E+00 -0.00000000000E+00 -0.50000000000E+03  0.50000000000E+03  0.00000000000E+00 0. -1.
        -11    1    1    2    0    0  0.93015395666E+01  0.36567207627E+01  0.42811092033E+03  0.42822756841E+03  0.00000000000E+00 0. -1.
         11    1    1    2    0    0  0.54004122272E+01  0.59791679271E+01 -0.49668032664E+03  0.49674567112E+03  0.00000000000E+00 0. -1.
        -15    1    1    2    0    0 -0.12878105307E+02 -0.17672294547E+02  0.46991236069E+02  0.51860289115E+02  0.17770000000E+01 0. -1.
         15    1    1    2    0    0 -0.18238464863E+01  0.80364058569E+01  0.21578170241E+02  0.23166471355E+02  0.17770000000E+01 0.  1.
</event>
<event>
 6    1  0.1860328E-003  0.5078457E+03  0.7546771E-02  0.9382423E-01
        -11   -1    0    0    0    0  0.00000000000E+00  0.00000000000E+00  0.50000000000E+03  0.50000000000E+03  0.00000000000E+00 0.  1.
         11   -1    0    0    0    0 -0.00000000000E+00 -0.00000000000E+00 -0.50000000000E+03  0.50000000000E+03  0.00000000000E+00 0.  1.
        -11    1    1    2    0    0  0.44658509520E+01  0.69466672333E+01  0.49208497253E+03  0.49215426463E+03  0.00000000000E+00 0.  1.
         11    1    1    2    0    0 -0.52975334262E+01  0.74462919827E+01 -0.47428134742E+03  0.47436937890E+03  0.00000000000E+00 0.  1.
        -15    1    1    2    0    0 -0.34082707552E+00 -0.14469816110E+01  0.59251774345E+01  0.63620260538E+01  0.17770000000E+01 0. -1.
         15    1    1    2    0    0  0.11725095497E+01 -0.12945977605E+02 -0.23728802542E+02  0.27114330415E+02  0.17770000000E+01 0.  1.
</event>
<event>
 6    1  0.1860328E-003  0.5001591E+03  0.7546771E-02  0.9399454E-01
        -11   -1    0    0    0    0  0.00000000000E+00  0.00000000000E+00  0.50000000000E+03  0.50000000000E+03  0.00000000000E+00 0.  1.
         11   -1    0    0    0    0 -0.00000000000E+00 -0.00000000000E+00 -0.50000000000E+03  0.50000000000E+03  0.00000000000E+00 0. -1.
        -11    1    1    2    0    0 -0.89242236657E+01 -0.27099286623E+01  0.49975390258E+03  0.49984092332E+03  0.00000000000E+00 0.  1.
         11    1    1    2    0    0  0.96474993284E+00  0.15857334398E+01 -0.12557915512E+03  0.12559287198E+03  0.00000000000E+00 0. -1.
        -15    1    1    2    0    0 -0.38645902423E+01  0.34899348472E+00 -0.15970489830E+03  0.15976191387E+03  0.17770000000E+01 0.  1.
         15    1    1    2    0    0  0.11824063975E+02  0.77520173784E+00 -0.21446984917E+03  0.21480429083E+03  0.17770000000E+01 0.  1.
</event>
<event>
 6    1  0.1860328E-003  0.5124886E+03  0.7546771E-02  0.9372291E-01
        -11   -1    0    0    0    0  0.00000000000E+00  0.00000000000E+00  0.50000000000E+03  0.50000000000E+03  0.00000000000E+00 0.  1.
         11   -1    0    0    0    0 -0.00000000000E+00 -0.00000000000E+00 -0.50000000000E+03  0.50000000000E+03  0.00000000000E+00 0. -1.
        -11    1    1    2    0    0  0.30454677305E+01  0.64963405478E+01  0.40523043420E+03  0.40529394532E+03  0.00000000000E+00 0.  1.
         11    1    1    2    0    0  0.37261679913E+01  0.56206521381E+01 -0.48746477614E+03  0.48751141939E+03  0.00000000000E+00 0. -1.
        -15    1    1    2    0    0 -0.20604843594E+02 -0.33169532089E+02  0.30339356709E+02  0.49481428163E+02  0.17770000000E+01 0. -1.
         15    1    1    2    0    0  0.13833207872E+02  0.21052539403E+02  0.51894985232E+02  0.57713207125E+02  0.17770000000E+01 0.  1.
</event>
<event>
 6    1  0.1860328E-003  0.5072373E+03  0.7546771E-02  0.9383760E-01
        -11   -1    0    0    0    0  0.00000000000E+00  0.00000000000E+00  0.50000000000E+03  0.50000000000E+03  0.00000000000E+00 0.  1.
         11   -1    0    0    0    0 -0.00000000000E+00 -0.00000000000E+00 -0.50000000000E+03  0.50000000000E+03  0.00000000000E+00 0.  1.
        -11    1    1    2    0    0  0.13396564120E+02 -0.30441495938E+00  0.45861074160E+03  0.45880646564E+03  0.00000000000E+00 0.  1.
         11    1    1    2    0    0 -0.99204094346E+01 -0.83329048068E+01 -0.49259236898E+03  0.49276271551E+03  0.00000000000E+00 0.  1.
        -15    1    1    2    0    0 -0.81644206228E+01  0.92637819414E+01  0.39217862191E+02  0.41154269084E+02  0.17770000000E+01 0. -1.
         15    1    1    2    0    0  0.46882659370E+01 -0.62646217514E+00 -0.52362348199E+01  0.72765497622E+01  0.17770000000E+01 0.  1.
</event>
<event>
 6    1  0.1860328E-003  0.5021234E+03  0.7546771E-02  0.9395071E-01
        -11   -1    0    0    0    0  0.00000000000E+00  0.00000000000E+00  0.50000000000E+03  0.50000000000E+03  0.00000000000E+00 0.  1.
         11   -1    0    0    0    0 -0.00000000000E+00 -0.00000000000E+00 -0.50000000000E+03  0.50000000000E+03  0.00000000000E+00 0. -1.
        -11    1    1    2    0    0 -0.58308484369E+01  0.33229439751E+01  0.49783140627E+03  0.49787664116E+03  0.00000000000E+00 0.  1.
         11    1    1    2    0    0 -0.48941327893E+01 -0.78020659334E+01 -0.47516127000E+03  0.47525052054E+03  0.00000000000E+00 0. -1.
        -15    1    1    2    0    0  0.11410289534E+02  0.39724213079E+01 -0.20985603192E+02  0.24280199929E+02  0.17770000000E+01 0. -1.
         15    1    1    2    0    0 -0.68530830758E+00  0.50670065043E+00 -0.16845330767E+01  0.25926383689E+01  0.17770000000E+01 0.  1.
</event>
<event>
 6    1  0.1860328E-003  0.5266777E+03  0.7546771E-02  0.9342018E-01
        -11   -1    0    0    0    0  0.00000000000E+00  0.00000000000E+00  0.50000000000E+03  0.50000000000E+03  0.00000000000E+00 0. -1.
         11   -1    0    0    0    0 -0.00000000000E+00 -0.00000000000E+00 -0.50000000000E+03  0.50000000000E+03  0.00000000000E+00 0. -1.
        -11    1    1    2    0    0  0.81767781818E+01  0.11244084683E+02  0.47311804780E+03  0.47332227530E+03  0.00000000000E+00 0. -1.
         11    1    1    2    0    0  0.72554756341E+00 -0.74445424641E+01 -0.42505076513E+03  0.42511657291E+03  0.00000000000E+00 0. -1.
        -15    1    1    2    0    0 -0.19059441488E+01 -0.72721026225E+01  0.25968588680E+02  0.27093198901E+02  0.17770000000E+01 0.  1.
         15    1    1    2    0    0 -0.69963815964E+01  0.34725604033E+01 -0.74035871351E+02  0.74467952885E+02  0.17770000000E+01 0. -1.
</event>
<event>
 6    1  0.1860328E-003  0.5035340E+03  0.7546771E-02  0.9391937E-01
        -11   -1    0    0    0    0  0.00000000000E+00  0.00000000000E+00  0.50000000000E+03  0.50000000000E+03  0.00000000000E+00 0.  1.
         11   -1    0    0    0    0 -0.00000000000E+00 -0.00000000000E+00 -0.50000000000E+03  0.50000000000E+03  0.00000000000E+00 0. -1.
        -11    1    1    2    0    0 -0.10284384953E+02 -0.75576191377E+01  0.49630194936E+03  0.49646602212E+03  0.00000000000E+00 0.  1.
         11    1    1    2    0    0 -0.14049533925E+01 -0.55080833357E+01 -0.57172480270E+02  0.57454376476E+02  0.00000000000E+00 0. -1.
        -15    1    1    2    0    0  0.24702487847E+02  0.19228889812E+02 -0.42385509541E+03  0.42501325008E+03  0.17770000000E+01 0. -1.
         15    1    1    2    0    0 -0.13013149501E+02 -0.61631873386E+01 -0.15274373678E+02  0.21066351330E+02  0.17770000000E+01 0.  1.
</event>
<event>
 6    1  0.1860328E-003  0.5238689E+03  0.7546771E-02  0.9347930E-01
        -11   -1    0    0    0    0  0.00000000000E+00  0.00000000000E+00  0.50000000000E+03  0.50000000000E+03  0.00000000000E+00 0.  1.
         11   -1    0    0    0    0 -0.00000000000E+00 -0.00000000000E+00 -0.50000000000E+03  0.50000000000E+03  0.00000000000E+00 0.  1.
        -11    1    1    2    0    0  0.39574463529E+01 -0.67021966511E+01  0.31254654417E+03  0.31264344403E+03  0.00000000000E+00 0.  1.
         11    1    1    2    0    0 -0.90155558094E+01 -0.40499872628E-01 -0.47604575409E+03  0.47613111837E+03  0.00000000000E+00 0.  1.
        -15    1    1    2    0    0  0.10813028694E+02  0.45866584977E+02  0.16500561900E+03  0.17161199620E+03  0.17770000000E+01 0.  1.
         15    1    1    2    0    0 -0.57549192373E+01 -0.39123888453E+02 -0.15064090782E+01  0.39613441411E+02  0.17770000000E+01 0. -1.
</event>
<event>
 6    1  0.1860328E-003  0.5007420E+03  0.7546771E-02  0.9398151E-01
        -11   -1    0    0    0    0  0.00000000000E+00  0.00000000000E+00  0.50000000000E+03  0.50000000000E+03  0.00000000000E+00 0.  1.
         11   -1    0    0    0    0 -0.00000000000E+00 -0.00000000000E+00 -0.50000000000E+03  0.50000000000E+03  0.00000000000E+00 0. -1.
        -11    1    1    2    0    0  0.12680915546E+02 -0.43966505695E+01  0.49907758759E+03  0.49925802407E+03  0.00000000000E+00 0.  1.
         11    1    1    2    0    0  0.81930002542E+01 -0.37816445290E+01 -0.27744109644E+03  0.27758780247E+03  0.00000000000E+00 0. -1.
        -15    1    1    2    0    0 -0.16982478225E+02  0.52056042507E+01 -0.20358240138E+03  0.20436353579E+03  0.17770000000E+01 0. -1.
         15    1    1    2    0    0 -0.38914375753E+01  0.29726908478E+01 -0.18054089782E+02  0.18790637672E+02  0.17770000000E+01 0.  1.
</event>
<event>
 6    1  0.1860328E-003  0.5009255E+03  0.7546771E-02  0.9397741E-01
        -11   -1    0    0    0    0  0.00000000000E+00  0.00000000000E+00  0.50000000000E+03  0.50000000000E+03  0.00000000000E+00 0.  1.
         11   -1    0    0    0    0 -0.00000000000E+00 -0.00000000000E+00 -0.50000000000E+03  0.50000000000E+03  0.00000000000E+00 0. -1.
        -11    1    1    2    0    0 -0.18878088283E+01  0.52222012562E+00  0.59053975152E+02  0.59086449523E+02  0.00000000000E+00 0.  1.
         11    1    1    2    0    0  0.14400898579E+01  0.12837169431E+02 -0.49890730962E+03  0.49907451385E+03  0.00000000000E+00 0. -1.
        -15    1    1    2    0    0  0.16557387276E+01 -0.53779252421E+01  0.42325853886E+03  0.42329967163E+03  0.17770000000E+01 0.  1.
         15    1    1    2    0    0 -0.12080197572E+01 -0.79814643143E+01  0.16594795607E+02  0.18539364999E+02  0.17770000000E+01 0. -1.
</event>
<event>
 6    1  0.1860328E-003  0.5027196E+03  0.7546771E-02  0.9393745E-01
        -11   -1    0    0    0    0  0.00000000000E+00  0.00000000000E+00  0.50000000000E+03  0.50000000000E+03  0.00000000000E+00 0.  1.
         11   -1    0    0    0    0 -0.00000000000E+00 -0.00000000000E+00 -0.50000000000E+03  0.50000000000E+03  0.00000000000E+00 0. -1.
        -11    1    1    2    0    0 -0.42261546338E+01  0.11965582873E+02  0.49711842060E+03  0.49728036323E+03  0.00000000000E+00 0.  1.
         11    1    1    2    0    0 -0.94472042283E+01  0.64574333610E+01 -0.26438517126E+03  0.26463270186E+03  0.00000000000E+00 0. -1.
        -15    1    1    2    0    0  0.47855375822E+01 -0.20346530918E+02 -0.40317484628E+02  0.45448212132E+02  0.17770000000E+01 0.  1.
         15    1    1    2    0    0  0.88878212799E+01  0.19235146840E+01 -0.19241576471E+03  0.19263872278E+03  0.17770000000E+01 0. -1.
</event>
<event>
 6    1  0.1860328E-003  0.5021793E+03  0.7546771E-02  0.9394947E-01
        -11   -1    0    0    0    0  0.00000000000E+00  0.00000000000E+00  0.50000000000E+03  0.50000000000E+03  0.00000000000E+00 0.  1.
         11   -1    0    0    0    0 -0.00000000000E+00 -0.00000000000E+00 -0.50000000000E+03  0.50000000000E+03  0.00000000000E+00 0. -1.
        -11    1    1    2    0    0 -0.82757838977E+01 -0.11176244901E+02  0.49762645461E+03  0.49782073618E+03  0.00000000000E+00 0.  1.
         11    1    1    2    0    0  0.49434422831E+01 -0.70979360581E+01 -0.42384433013E+03  0.42393258250E+03  0.00000000000E+00 0. -1.
        -15    1    1    2    0    0 -0.34294306357E+01 -0.15731535215E+01 -0.21275630664E+02  0.21680544174E+02  0.17770000000E+01 0.  1.
         15    1    1    2    0    0  0.67617722502E+01  0.19847334480E+02 -0.52506493813E+02  0.56566137144E+02  0.17770000000E+01 0. -1.
</event>
<event>
 6    1  0.1860328E-003  0.5422634E+03  0.7546771E-02  0.9309911E-01
        -11   -1    0    0    0    0  0.00000000000E+00  0.00000000000E+00  0.50000000000E+03  0.50000000000E+03  0.00000000000E+00 0. -1.
         11   -1    0    0    0    0 -0.00000000000E+00 -0.00000000000E+00 -0.50000000000E+03  0.50000000000E+03  0.00000000000E+00 0. -1.
        -11    1    1    2    0    0  0.19393601740E+02 -0.13945511552E+02  0.45711294497E+03  0.45773664212E+03  0.00000000000E+00 0. -1.
         11    1    1    2    0    0  0.15555834983E+02 -0.81788750183E+00 -0.42459477749E+03  0.42488042791E+03  0.00000000000E+00 0. -1.
        -15    1    1    2    0    0 -0.13621362671E+02  0.13037529894E+02 -0.70909598398E+02  0.73395146847E+02  0.17770000000E+01 0. -1.
         15    1    1    2    0    0 -0.21328074052E+02  0.17258691604E+01  0.38391430923E+02  0.43987783127E+02  0.17770000000E+01 0.  1.
</event>
<event>
 6    1  0.1860328E-003  0.5032124E+03  0.7546771E-02  0.9392650E-01
        -11   -1    0    0    0    0  0.00000000000E+00  0.00000000000E+00  0.50000000000E+03  0.50000000000E+03  0.00000000000E+00 0.  1.
         11   -1    0    0    0    0 -0.00000000000E+00 -0.00000000000E+00 -0.50000000000E+03  0.50000000000E+03  0.00000000000E+00 0. -1.
        -11    1    1    2    0    0  0.78178407182E+00 -0.82227337675E+01  0.49671889870E+03  0.49678756915E+03  0.00000000000E+00 0.  1.
         11    1    1    2    0    0 -0.64394739704E+01  0.13697490335E+01 -0.39986744870E+03  0.39992164179E+03  0.00000000000E+00 0. -1.
        -15    1    1    2    0    0 -0.83769709664E+01  0.48263138453E+01 -0.82336493348E+02  0.82921184349E+02  0.17770000000E+01 0. -1.
         15    1    1    2    0    0  0.14034660865E+02  0.20266708887E+01 -0.14514956653E+02  0.20369604712E+02  0.17770000000E+01 0.  1.
</event>
<event>
 6    1  0.1860328E-003  0.5033470E+03  0.7546771E-02  0.9392352E-01
        -11   -1    0    0    0    0  0.00000000000E+00  0.00000000000E+00  0.50000000000E+03  0.50000000000E+03  0.00000000000E+00 0.  1.
         11   -1    0    0    0    0 -0.00000000000E+00 -0.00000000000E+00 -0.50000000000E+03  0.50000000000E+03  0.00000000000E+00 0.  1.
        -11    1    1    2    0    0  0.37137219013E+01  0.68051746901E+01  0.45929610016E+03  0.45936152403E+03  0.00000000000E+00 0.  1.
         11    1    1    2    0    0  0.98866028775E+01 -0.14505932391E+01 -0.49655250635E+03  0.49665303855E+03  0.00000000000E+00 0.  1.
        -15    1    1    2    0    0 -0.10758960599E+02 -0.31853927610E+01  0.67407018494E+01  0.13209721823E+02  0.17770000000E+01 0. -1.
         15    1    1    2    0    0 -0.28413641796E+01 -0.21691886900E+01  0.30515704341E+02  0.30775715595E+02  0.17770000000E+01 0.  1.
</event>
<event>
 6    1  0.1860328E-003  0.5005289E+03  0.7546771E-02  0.9398627E-01
        -11   -1    0    0    0    0  0.00000000000E+00  0.00000000000E+00  0.50000000000E+03  0.50000000000E+03  0.00000000000E+00 0.  1.
         11   -1    0    0    0    0 -0.00000000000E+00 -0.00000000000E+00 -0.50000000000E+03  0.50000000000E+03  0.00000000000E+00 0.  1.
        -11    1    1    2    0    0 -0.63921876518E+01 -0.23756842390E+01  0.49942450133E+03  0.49947105668E+03  0.00000000000E+00 0.  1.
         11    1    1    2    0    0 -0.78519653853E+01  0.53045719647E+01 -0.76921935588E+02  0.77503393595E+02  0.00000000000E+00 0.  1.
        -15    1    1    2    0    0  0.16623564173E+02 -0.18849641710E+01 -0.29145595802E+03  0.29194113991E+03  0.17770000000E+01 0.  1.
         15    1    1    2    0    0 -0.23794111358E+01 -0.10439235548E+01 -0.13104660772E+03  0.13108440981E+03  0.17770000000E+01 0. -1.
</event>
<event>
 6    1  0.1860328E-003  0.5036692E+03  0.7546771E-02  0.9391637E-01
        -11   -1    0    0    0    0  0.00000000000E+00  0.00000000000E+00  0.50000000000E+03  0.50000000000E+03  0.00000000000E+00 0. -1.
         11   -1    0    0    0    0 -0.00000000000E+00 -0.00000000000E+00 -0.50000000000E+03  0.50000000000E+03  0.00000000000E+00 0. -1.
        -11    1    1    2    0    0  0.16013507600E+02 -0.39816470071E+01  0.43561970446E+03  0.43593211955E+03  0.00000000000E+00 0. -1.
         11    1    1    2    0    0 -0.62387254900E+01  0.10749968171E+02 -0.49617511768E+03  0.49633076765E+03  0.00000000000E+00 0. -1.
        -15    1    1    2    0    0 -0.98358234945E+01  0.95015760137E+01  0.23890973341E+02  0.27585498124E+02  0.17770000000E+01 0. -1.
         15    1    1    2    0    0  0.61041384843E-01 -0.16269897177E+02  0.36664439880E+02  0.40151614674E+02  0.17770000000E+01 0.  1.
</event>
<event>
 6    1  0.1860328E-003  0.4895675E+03  0.7546771E-02  0.9423461E-01
        -11   -1    0    0    0    0  0.00000000000E+00  0.00000000000E+00  0.50000000000E+03  0.50000000000E+03  0.00000000000E+00 0. -1.
         11   -1    0    0    0    0 -0.00000000000E+00 -0.00000000000E+00 -0.50000000000E+03  0.50000000000E+03  0.00000000000E+00 0.  1.
        -11    1    1    2    0    0 -0.72601851566E+01  0.85630907118E+01  0.49028838167E+03  0.49041689818E+03  0.00000000000E+00 0. -1.
         11    1    1    2    0    0 -0.47041729849E+01 -0.50683996394E+01 -0.48874980214E+03  0.48879871830E+03  0.00000000000E+00 0.  1.
        -15    1    1    2    0    0  0.11399780098E+02 -0.70040479437E+01  0.38995062139E+01  0.14049040949E+02  0.17770000000E+01 0.  1.
         15    1    1    2    0    0  0.56457804347E+00  0.35093568712E+01 -0.54380857465E+01  0.67353425751E+01  0.17770000000E+01 0.  1.
</event>
<event>
 6    1  0.1860328E-003  0.5036162E+03  0.7546771E-02  0.9391754E-01
        -11   -1    0    0    0    0  0.00000000000E+00  0.00000000000E+00  0.50000000000E+03  0.50000000000E+03  0.00000000000E+00 0.  1.
         11   -1    0    0    0    0 -0.00000000000E+00 -0.00000000000E+00 -0.50000000000E+03  0.50000000000E+03  0.00000000000E+00 0. -1.
        -11    1    1    2    0    0 -0.75859123569E+01 -0.20364309086E+02  0.15509579080E+03  0.15661084086E+03  0.00000000000E+00 0.  1.
         11    1    1    2    0    0  0.75305806633E+01 -0.14518942900E+01 -0.49632456329E+03  0.49638381296E+03  0.00000000000E+00 0. -1.
        -15    1    1    2    0    0  0.23125416140E+01  0.18796008235E+02  0.34219772855E+03  0.34272595602E+03  0.17770000000E+01 0.  1.
         15    1    1    2    0    0 -0.22572099204E+01  0.30201951415E+01 -0.96895606585E+00  0.42793901639E+01  0.17770000000E+01 0. -1.
</event>
<event>
 6    1  0.2992862E-003  0.5016566E+03  0.7546771E-02  0.9396110E-01
        -11   -1    0    0    0    0  0.00000000000E+00  0.00000000000E+00  0.50000000000E+03  0.50000000000E+03  0.00000000000E+00 0. -1.
         11   -1    0    0    0    0 -0.00000000000E+00 -0.00000000000E+00 -0.50000000000E+03  0.50000000000E+03  0.00000000000E+00 0. -1.
        -11    1    1    2    0    0  0.18154729557E+01  0.29553399874E+01  0.25255101926E+03  0.25257483506E+03  0.00000000000E+00 0. -1.
         11    1    1    2    0    0 -0.15295202944E+01  0.16694049959E+02 -0.49806130934E+03  0.49834335412E+03  0.00000000000E+00 0. -1.
        -15    1    1    2    0    0 -0.27933940418E+01 -0.31465143362E+00  0.19319084980E+03  0.19321947167E+03  0.17770000000E+01 0. -1.
         15    1    1    2    0    0  0.25074413805E+01 -0.19334738513E+02  0.52319440271E+02  0.55862339147E+02  0.17770000000E+01 0.  1.
</event>
<event>
 6    1  0.1860328E-003  0.5006476E+03  0.7546771E-02  0.9398362E-01
        -11   -1    0    0    0    0  0.00000000000E+00  0.00000000000E+00  0.50000000000E+03  0.50000000000E+03  0.00000000000E+00 0.  1.
         11   -1    0    0    0    0 -0.00000000000E+00 -0.00000000000E+00 -0.50000000000E+03  0.50000000000E+03  0.00000000000E+00 0. -1.
        -11    1    1    2    0    0 -0.16947614359E+01 -0.42052261039E+01  0.23829308472E+03  0.23833621288E+03  0.00000000000E+00 0.  1.
         11    1    1    2    0    0  0.12921179460E+02  0.16342191545E+02 -0.49891766460E+03  0.49935244082E+03  0.00000000000E+00 0. -1.
        -15    1    1    2    0    0  0.20644094779E+01 -0.55731967409E+00  0.30457378252E+01  0.41239107181E+01  0.17770000000E+01 0. -1.
         15    1    1    2    0    0 -0.13290827502E+02 -0.11579645767E+02  0.25757884205E+03  0.25818743558E+03  0.17770000000E+01 0. -1.
</event>
<event>
 6    1  0.1860328E-003  0.5011145E+03  0.7546771E-02  0.9397319E-01
        -11   -1    0    0    0    0  0.00000000000E+00  0.00000000000E+00  0.50000000000E+03  0.50000000000E+03  0.00000000000E+00 0. -1.
         11   -1    0    0    0    0 -0.00000000000E+00 -0.00000000000E+00 -0.50000000000E+03  0.50000000000E+03  0.00000000000E+00 0. -1.
        -11    1    1    2    0    0 -0.12479593492E+02 -0.40575002901E+01  0.49871290402E+03  0.49888552213E+03  0.00000000000E+00 0. -1.
         11    1    1    2    0    0 -0.48125237954E+00 -0.67405536606E+01 -0.30354437609E+03  0.30361958916E+03  0.00000000000E+00 0. -1.
        -15    1    1    2    0    0 -0.24353330371E+01 -0.32820049904E+01 -0.97745407330E+02  0.97846945721E+02  0.17770000000E+01 0. -1.
         15    1    1    2    0    0  0.15396178909E+02  0.14080058941E+02 -0.97423120595E+02  0.99647942981E+02  0.17770000000E+01 0.  1.
</event>
<event>
 6    1  0.1860328E-003  0.4894958E+03  0.7546771E-02  0.9423625E-01
        -11   -1    0    0    0    0  0.00000000000E+00  0.00000000000E+00  0.50000000000E+03  0.50000000000E+03  0.00000000000E+00 0. -1.
         11   -1    0    0    0    0 -0.00000000000E+00 -0.00000000000E+00 -0.50000000000E+03  0.50000000000E+03  0.00000000000E+00 0. -1.
        -11    1    1    2    0    0  0.46942436857E+01  0.48955688658E+01  0.49281915477E+03  0.49286582538E+03  0.00000000000E+00 0. -1.
         11    1    1    2    0    0 -0.83361807517E+01  0.77886060271E+01 -0.48610398320E+03  0.48623783972E+03  0.00000000000E+00 0. -1.
        -15    1    1    2    0    0 -0.72362356383E+00 -0.88413946047E+01  0.29163303326E+01  0.95056089351E+01  0.17770000000E+01 0.  1.
         15    1    1    2    0    0  0.43655606299E+01 -0.38427802881E+01 -0.96315019053E+01  0.11390725961E+02  0.17770000000E+01 0. -1.
</event>
<event>
 6    1  0.1860328E-003  0.5046592E+03  0.7546771E-02  0.9389444E-01
        -11   -1    0    0    0    0  0.00000000000E+00  0.00000000000E+00  0.50000000000E+03  0.50000000000E+03  0.00000000000E+00 0. -1.
         11   -1    0    0    0    0 -0.00000000000E+00 -0.00000000000E+00 -0.50000000000E+03  0.50000000000E+03  0.00000000000E+00 0.  1.
        -11    1    1    2    0    0 -0.15292137629E+01  0.86816305975E+01  0.47449744371E+03  0.47457932245E+03  0.00000000000E+00 0. -1.
         11    1    1    2    0    0 -0.71774768598E+01 -0.50909708920E+01 -0.49526264461E+03  0.49534081328E+03  0.00000000000E+00 0.  1.
        -15    1    1    2    0    0  0.18605724580E+01 -0.29513262392E+01  0.22443478174E+02  0.22782438368E+02  0.17770000000E+01 0. -1.
         15    1    1    2    0    0  0.68461181647E+01 -0.63933346641E+00 -0.16782772763E+01  0.72974259039E+01  0.17770000000E+01 0.  1.
</event>
<event>
 6    1  0.1860328E-003  0.5139072E+03  0.7546771E-02  0.9369218E-01
        -11   -1    0    0    0    0  0.00000000000E+00  0.00000000000E+00  0.50000000000E+03  0.50000000000E+03  0.00000000000E+00 0.  1.
         11   -1    0    0    0    0 -0.00000000000E+00 -0.00000000000E+00 -0.50000000000E+03  0.50000000000E+03  0.00000000000E+00 0.  1.
        -11    1    1    2    0    0  0.19737337932E+02 -0.58138571552E+01  0.33184777516E+03  0.33248505127E+03  0.00000000000E+00 0.  1.
         11    1    1    2    0    0  0.11060789347E+02  0.85373310195E+01 -0.48589196482E+03  0.48609281887E+03  0.00000000000E+00 0.  1.
        -15    1    1    2    0    0 -0.22421044224E+02 -0.11984476133E+02  0.16361544829E+03  0.16558835569E+03  0.17770000000E+01 0. -1.
         15    1    1    2    0    0 -0.83770830550E+01  0.92610022687E+01 -0.95712586322E+01  0.15833774166E+02  0.17770000000E+01 0.  1.
</event>
<event>
 6    1  0.1860328E-003  0.5059259E+03  0.7546771E-02  0.9386647E-01
        -11   -1    0    0    0    0  0.00000000000E+00  0.00000000000E+00  0.50000000000E+03  0.50000000000E+03  0.00000000000E+00 0. -1.
         11   -1    0    0    0    0 -0.00000000000E+00 -0.00000000000E+00 -0.50000000000E+03  0.50000000000E+03  0.00000000000E+00 0.  1.
        -11    1    1    2    0    0 -0.53745449785E+01 -0.52471225860E+01  0.23133142821E+03  0.23145333807E+03  0.00000000000E+00 0. -1.
         11    1    1    2    0    0  0.14174796146E+02 -0.16314178184E+01 -0.49386800152E+03  0.49407407268E+03  0.00000000000E+00 0.  1.
        -15    1    1    2    0    0  0.20878053967E+02  0.29723038448E+01  0.17092982955E+02  0.27203961530E+02  0.17770000000E+01 0.  1.
         15    1    1    2    0    0 -0.29678305135E+02  0.39062365595E+01  0.24544359035E+03  0.24726862772E+03  0.17770000000E+01 0. -1.
</event>
<event>
 6    1  0.1860328E-003  0.5004289E+03  0.7546771E-02  0.9398850E-01
        -11   -1    0    0    0    0  0.00000000000E+00  0.00000000000E+00  0.50000000000E+03  0.50000000000E+03  0.00000000000E+00 0. -1.
         11   -1    0    0    0    0 -0.00000000000E+00 -0.00000000000E+00 -0.50000000000E+03  0.50000000000E+03  0.00000000000E+00 0. -1.
        -11    1    1    2    0    0 -0.54813944937E+01 -0.21488915876E+01  0.28485880467E+03  0.28491964134E+03  0.00000000000E+00 0. -1.
         11    1    1    2    0    0 -0.80194395700E+01 -0.10191546614E+01 -0.49950564883E+03  0.49957105931E+03  0.00000000000E+00 0. -1.
        -15    1    1    2    0    0  0.15774721043E+02  0.19108083981E+01  0.18751901724E+03  0.18819944890E+03  0.17770000000E+01 0.  1.
         15    1    1    2    0    0 -0.22738869791E+01  0.12572378509E+01  0.27127826921E+02  0.27309850448E+02  0.17770000000E+01 0. -1.
</event>
<event>
 6    1  0.1860328E-003  0.4887861E+03  0.7546771E-02  0.9425257E-01
        -11   -1    0    0    0    0  0.00000000000E+00  0.00000000000E+00  0.50000000000E+03  0.50000000000E+03  0.00000000000E+00 0.  1.
         11   -1    0    0    0    0 -0.00000000000E+00 -0.00000000000E+00 -0.50000000000E+03  0.50000000000E+03  0.00000000000E+00 0. -1.
        -11    1    1    2    0    0  0.11421464213E+02  0.12587910755E+01  0.49045287812E+03  0.49058746423E+03  0.00000000000E+00 0.  1.
         11    1    1    2    0    0  0.65270237746E+00  0.80980518763E+01 -0.48704234371E+03  0.48711009950E+03  0.00000000000E+00 0. -1.
        -15    1    1    2    0    0 -0.65539993395E+01  0.91599509639E+00  0.44102897003E+01  0.81487630103E+01  0.17770000000E+01 0. -1.
         15    1    1    2    0    0 -0.55201672514E+01 -0.10272838048E+02 -0.78208241088E+01  0.14153673261E+02  0.17770000000E+01 0.  1.
</event>
<event>
 6    1  0.1860328E-003  0.5151587E+03  0.7546771E-02  0.9366515E-01
        -11   -1    0    0    0    0  0.00000000000E+00  0.00000000000E+00  0.50000000000E+03  0.50000000000E+03  0.00000000000E+00 0.  1.
         11   -1    0    0    0    0 -0.00000000000E+00 -0.00000000000E+00 -0.50000000000E+03  0.50000000000E+03  0.00000000000E+00 0.  1.
        -11    1    1    2    0    0 -0.69879242565E+01  0.27961305582E+01  0.40068004441E+03  0.40075072978E+03  0.00000000000E+00 0.  1.
         11    1    1    2    0    0  0.24441457517E+02  0.41060250524E+02 -0.48248082872E+03  0.48484129269E+03  0.00000000000E+00 0.  1.
        -15    1    1    2    0    0 -0.15463429089E+01 -0.26167703524E+02 -0.28802478491E+01  0.26430918274E+02  0.17770000000E+01 0. -1.
         15    1    1    2    0    0 -0.15907190352E+02 -0.17688677558E+02  0.84681032153E+02  0.87977059249E+02  0.17770000000E+01 0.  1.
</event>
<event>
 6    1  0.1860328E-003  0.5066216E+03  0.7546771E-02  0.9385114E-01
        -11   -1    0    0    0    0  0.00000000000E+00  0.00000000000E+00  0.50000000000E+03  0.50000000000E+03  0.00000000000E+00 0.  1.
         11   -1    0    0    0    0 -0.00000000000E+00 -0.00000000000E+00 -0.50000000000E+03  0.50000000000E+03  0.00000000000E+00 0. -1.
        -11    1    1    2    0    0  0.10697355884E+02  0.17125721095E+01  0.49325948676E+03  0.49337844258E+03  0.00000000000E+00 0.  1.
         11    1    1    2    0    0 -0.93189134673E+01  0.38252659153E+00 -0.47594226387E+03  0.47603364063E+03  0.00000000000E+00 0. -1.
        -15    1    1    2    0    0  0.25117964909E+00 -0.21297249881E+01  0.62789265217E+01  0.68688766917E+01  0.17770000000E+01 0.  1.
         15    1    1    2    0    0 -0.16296220661E+01  0.34626287078E-01 -0.23596149410E+02  0.23719040095E+02  0.17770000000E+01 0. -1.
</event>
<event>
 6    1  0.1860328E-003  0.5004247E+03  0.7546771E-02  0.9398860E-01
        -11   -1    0    0    0    0  0.00000000000E+00  0.00000000000E+00  0.50000000000E+03  0.50000000000E+03  0.00000000000E+00 0. -1.
         11   -1    0    0    0    0 -0.00000000000E+00 -0.00000000000E+00 -0.50000000000E+03  0.50000000000E+03  0.00000000000E+00 0.  1.
        -11    1    1    2    0    0 -0.74315107894E+01 -0.20783781962E+01  0.49951566198E+03  0.49957526318E+03  0.00000000000E+00 0. -1.
         11    1    1    2    0    0 -0.48305878005E-01  0.86338878951E+00 -0.42539097548E+02  0.42547885891E+02  0.00000000000E+00 0.  1.
        -15    1    1    2    0    0  0.75083069396E+01 -0.10505502415E+02 -0.35052460436E+03  0.35076686880E+03  0.17770000000E+01 0.  1.
         15    1    1    2    0    0 -0.28490272237E-01  0.11720491821E+02 -0.10645196008E+03  0.10710998214E+03  0.17770000000E+01 0. -1.
</event>
<event>
 6    1  0.1860328E-003  0.5012066E+03  0.7546771E-02  0.9397114E-01
        -11   -1    0    0    0    0  0.00000000000E+00  0.00000000000E+00  0.50000000000E+03  0.50000000000E+03  0.00000000000E+00 0. -1.
         11   -1    0    0    0    0 -0.00000000000E+00 -0.00000000000E+00 -0.50000000000E+03  0.50000000000E+03  0.00000000000E+00 0. -1.
        -11    1    1    2    0    0  0.68879549508E+00  0.50883867580E+01  0.37823459947E+03  0.37826945205E+03  0.00000000000E+00 0. -1.
         11    1    1    2    0    0  0.60235742869E+01  0.70937536919E+01 -0.49870662132E+03  0.49879344315E+03  0.00000000000E+00 0. -1.
        -15    1    1    2    0    0  0.92384256853E-01 -0.17138159731E+01  0.88972078889E+02  0.89006371968E+02  0.17770000000E+01 0.  1.
         15    1    1    2    0    0 -0.68047540389E+01 -0.10468324477E+02  0.31499942953E+02  0.33930732824E+02  0.17770000000E+01 0. -1.
</event>
<event>
 6    1  0.1860328E-003  0.5043930E+03  0.7546771E-02  0.9390033E-01
        -11   -1    0    0    0    0  0.00000000000E+00  0.00000000000E+00  0.50000000000E+03  0.50000000000E+03  0.00000000000E+00 0. -1.
         11   -1    0    0    0    0 -0.00000000000E+00 -0.00000000000E+00 -0.50000000000E+03  0.50000000000E+03  0.00000000000E+00 0.  1.
        -11    1    1    2    0    0  0.88448565399E+00 -0.78149676472E+01  0.49554454591E+03  0.49560695416E+03  0.00000000000E+00 0. -1.
         11    1    1    2    0    0 -0.36803118791E+00  0.19007759513E+01 -0.14071106067E+03  0.14072437952E+03  0.00000000000E+00 0.  1.
        -15    1    1    2    0    0  0.48711366403E+00 -0.79552570764E+01 -0.34795943802E+03  0.34805524221E+03  0.17770000000E+01 0.  1.
         15    1    1    2    0    0 -0.10035681301E+01  0.13869448772E+02 -0.68740472199E+01  0.15613424109E+02  0.17770000000E+01 0. -1.
</event>
<event>
 6    1  0.1860328E-003  0.5107059E+03  0.7546771E-02  0.9376168E-01
        -11   -1    0    0    0    0  0.00000000000E+00  0.00000000000E+00  0.50000000000E+03  0.50000000000E+03  0.00000000000E+00 0.  1.
         11   -1    0    0    0    0 -0.00000000000E+00 -0.00000000000E+00 -0.50000000000E+03  0.50000000000E+03  0.00000000000E+00 0. -1.
        -11    1    1    2    0    0  0.43484248313E+01  0.71946068894E+01  0.48922184979E+03  0.48929407260E+03  0.00000000000E+00 0.  1.
         11    1    1    2    0    0 -0.11035904308E+02  0.67462556854E+01 -0.46990129251E+03  0.47007927827E+03  0.00000000000E+00 0. -1.
        -15    1    1    2    0    0 -0.46016103722E+01 -0.23827489740E+01  0.74865751586E+01  0.92767907865E+01  0.17770000000E+01 0. -1.
         15    1    1    2    0    0  0.11289089849E+02 -0.11558113601E+02 -0.26807132441E+02  0.31349858346E+02  0.17770000000E+01 0.  1.
</event>
<event>
 6    1  0.1860328E-003  0.5869738E+03  0.7546771E-02  0.9223807E-01
        -11   -1    0    0    0    0  0.00000000000E+00  0.00000000000E+00  0.50000000000E+03  0.50000000000E+03  0.00000000000E+00 0.  1.
         11   -1    0    0    0    0 -0.00000000000E+00 -0.00000000000E+00 -0.50000000000E+03  0.50000000000E+03  0.00000000000E+00 0. -1.
        -11    1    1    2    0    0 -0.41939740146E+01 -0.23030783744E+02  0.41236222431E+03  0.41302616195E+03  0.00000000000E+00 0.  1.
         11    1    1    2    0    0 -0.11464073603E+01 -0.29929019146E+02 -0.24656486254E+03  0.24837731756E+03  0.00000000000E+00 0. -1.
        -15    1    1    2    0    0  0.68670682266E+00  0.65529017467E+01 -0.24584282223E+03  0.24593751860E+03  0.17770000000E+01 0. -1.
         15    1    1    2    0    0  0.46536745522E+01  0.46406901144E+02  0.80045460463E+02  0.92659001885E+02  0.17770000000E+01 0.  1.
</event>
<event>
 6    1  0.1860328E-003  0.5221091E+03  0.7546771E-02  0.9351654E-01
        -11   -1    0    0    0    0  0.00000000000E+00  0.00000000000E+00  0.50000000000E+03  0.50000000000E+03  0.00000000000E+00 0. -1.
         11   -1    0    0    0    0 -0.00000000000E+00 -0.00000000000E+00 -0.50000000000E+03  0.50000000000E+03  0.00000000000E+00 0. -1.
        -11    1    1    2    0    0  0.10412553508E+02  0.12372365279E+02  0.44012808267E+03  0.44042505134E+03  0.00000000000E+00 0. -1.
         11    1    1    2    0    0  0.44704806058E+00 -0.82108350026E+01 -0.47782018830E+03  0.47789093946E+03  0.00000000000E+00 0. -1.
        -15    1    1    2    0    0 -0.50169965461E+01 -0.14857368548E+02  0.56799378801E+02  0.58951156186E+02  0.17770000000E+01 0.  1.
         15    1    1    2    0    0 -0.58426050220E+01  0.10695838272E+02 -0.19107273163E+02  0.22732853022E+02  0.17770000000E+01 0. -1.
</event>
<event>
 6    1  0.1860328E-003  0.5020098E+03  0.7546771E-02  0.9395324E-01
        -11   -1    0    0    0    0  0.00000000000E+00  0.00000000000E+00  0.50000000000E+03  0.50000000000E+03  0.00000000000E+00 0. -1.
         11   -1    0    0    0    0 -0.00000000000E+00 -0.00000000000E+00 -0.50000000000E+03  0.50000000000E+03  0.00000000000E+00 0. -1.
        -11    1    1    2    0    0  0.74828233215E+01  0.92122097517E+01  0.35646209905E+03  0.35665962137E+03  0.00000000000E+00 0. -1.
         11    1    1    2    0    0  0.11204987184E+02 -0.22167099135E+02 -0.49737041686E+03  0.49799022439E+03  0.00000000000E+00 0. -1.
        -15    1    1    2    0    0 -0.11990298792E+02  0.13059751570E+02  0.13520777093E+03  0.13637677010E+03  0.17770000000E+01 0. -1.
         15    1    1    2    0    0 -0.66975117132E+01 -0.10486218732E+00  0.57005468801E+01  0.89733841420E+01  0.17770000000E+01 0.  1.
</event>
<event>
 6    1  0.1860328E-003  0.5007227E+03  0.7546771E-02  0.9398194E-01
        -11   -1    0    0    0    0  0.00000000000E+00  0.00000000000E+00  0.50000000000E+03  0.50000000000E+03  0.00000000000E+00 0.  1.
         11   -1    0    0    0    0 -0.00000000000E+00 -0.00000000000E+00 -0.50000000000E+03  0.50000000000E+03  0.00000000000E+00 0.  1.
        -11    1    1    2    0    0 -0.79571293825E+01  0.57394797428E+01  0.49918088548E+03  0.49927729165E+03  0.00000000000E+00 0.  1.
         11    1    1    2    0    0  0.73019807615E+01  0.16149882204E+01 -0.42731747383E+03  0.42738290858E+03  0.00000000000E+00 0.  1.
        -15    1    1    2    0    0 -0.33274803666E+01 -0.13601556142E+01 -0.51728106595E+02  0.51883300683E+02  0.17770000000E+01 0.  1.
         15    1    1    2    0    0  0.39826289877E+01 -0.59943123490E+01 -0.20135305052E+02  0.21456499079E+02  0.17770000000E+01 0. -1.
</event>
<event>
 6    1  0.1860328E-003  0.5019658E+03  0.7546771E-02  0.9395422E-01
        -11   -1    0    0    0    0  0.00000000000E+00  0.00000000000E+00  0.50000000000E+03  0.50000000000E+03  0.00000000000E+00 0. -1.
         11   -1    0    0    0    0 -0.00000000000E+00 -0.00000000000E+00 -0.50000000000E+03  0.50000000000E+03  0.00000000000E+00 0.  1.
        -11    1    1    2    0    0  0.21899884246E+01  0.69474990716E+01  0.49798087838E+03  0.49803415448E+03  0.00000000000E+00 0. -1.
         11    1    1    2    0    0 -0.45986334855E+01 -0.61328955241E+01 -0.47028198025E+03  0.47034444908E+03  0.00000000000E+00 0.  1.
        -15    1    1    2    0    0  0.25797063995E+01  0.50850350827E+01 -0.23288638314E+02  0.24042272572E+02  0.17770000000E+01 0.  1.
         15    1    1    2    0    0 -0.17106133863E+00 -0.58996386303E+01 -0.44102598185E+01  0.75791238686E+01  0.17770000000E+01 0. -1.
</event>
<event>
 6    1  0.1860328E-003  0.4909121E+03  0.7546771E-02  0.9420377E-01
        -11   -1    0    0    0    0  0.00000000000E+00  0.00000000000E+00  0.50000000000E+03  0.50000000000E+03  0.00000000000E+00 0.  1.
         11   -1    0    0    0    0 -0.00000000000E+00 -0.00000000000E+00 -0.50000000000E+03  0.50000000000E+03  0.00000000000E+00 0.  1.
        -11    1    1    2    0    0 -0.52314420289E+01 -0.12590210913E+02  0.49402039716E+03  0.49420849265E+03  0.00000000000E+00 0.  1.
         11    1    1    2    0    0  0.74367481364E+01 -0.27319595467E+00 -0.48766624882E+03  0.48772302601E+03  0.00000000000E+00 0.  1.
        -15    1    1    2    0    0 -0.22303914903E+01  0.11059571002E+01  0.18933181823E+01  0.35972447855E+01  0.17770000000E+01 0. -1.
         15    1    1    2    0    0  0.25085382772E-01  0.11757449768E+02 -0.82474665209E+01  0.14471236552E+02  0.17770000000E+01 0.  1.
</event>
<event>
 6    1  0.1860328E-003  0.4774294E+03  0.7546771E-02  0.9451779E-01
        -11   -1    0    0    0    0  0.00000000000E+00  0.00000000000E+00  0.50000000000E+03  0.50000000000E+03  0.00000000000E+00 0.  1.
         11   -1    0    0    0    0 -0.00000000000E+00 -0.00000000000E+00 -0.50000000000E+03  0.50000000000E+03  0.00000000000E+00 0.  1.
        -11    1    1    2    0    0 -0.48525196184E+01 -0.26532641968E+01  0.22313493861E+02  0.22988666030E+02  0.00000000000E+00 0.  1.
         11    1    1    2    0    0 -0.15752548716E+02  0.28135446841E+01 -0.47932024722E+03  0.47958727904E+03  0.00000000000E+00 0.  1.
        -15    1    1    2    0    0  0.87124225492E+01  0.32868827223E+01  0.47522784282E+03  0.47532238557E+03  0.17770000000E+01 0.  1.
         15    1    1    2    0    0  0.11892645786E+02 -0.34471632096E+01 -0.18221089463E+02  0.22101669353E+02  0.17770000000E+01 0. -1.
</event>
<event>
 6    1  0.1860328E-003  0.5331547E+03  0.7546771E-02  0.9328534E-01
        -11   -1    0    0    0    0  0.00000000000E+00  0.00000000000E+00  0.50000000000E+03  0.50000000000E+03  0.00000000000E+00 0. -1.
         11   -1    0    0    0    0 -0.00000000000E+00 -0.00000000000E+00 -0.50000000000E+03  0.50000000000E+03  0.00000000000E+00 0. -1.
        -11    1    1    2    0    0 -0.46517389777E+01  0.65217245449E+01  0.46677656170E+03  0.46684529570E+03  0.00000000000E+00 0. -1.
         11    1    1    2    0    0 -0.89926516656E+01 -0.24177933587E+01 -0.44842718469E+03  0.44852386054E+03  0.00000000000E+00 0. -1.
        -15    1    1    2    0    0  0.18292098554E+01 -0.41509236934E+01  0.32262250308E+02  0.32628004844E+02  0.17770000000E+01 0.  1.
         15    1    1    2    0    0  0.11815180788E+02  0.46992507132E-01 -0.50611627322E+02  0.52002838908E+02  0.17770000000E+01 0. -1.
</event>
<event>
 6    1  0.1860328E-003  0.5010043E+03  0.7546771E-02  0.9397565E-01
        -11   -1    0    0    0    0  0.00000000000E+00  0.00000000000E+00  0.50000000000E+03  0.50000000000E+03  0.00000000000E+00 0.  1.
         11   -1    0    0    0    0 -0.00000000000E+00 -0.00000000000E+00 -0.50000000000E+03  0.50000000000E+03  0.00000000000E+00 0. -1.
        -11    1    1    2    0    0 -0.12988406789E+01 -0.26452149050E+01  0.11069418623E+03  0.11073340514E+03  0.00000000000E+00 0.  1.
         11    1    1    2    0    0  0.53966955197E+01  0.88978056181E+01 -0.49888715350E+03  0.49899567853E+03  0.00000000000E+00 0. -1.
        -15    1    1    2    0    0 -0.31439930330E+00  0.60327814217E+01  0.34753833378E+03  0.34759537465E+03  0.17770000000E+01 0.  1.
         15    1    1    2    0    0 -0.37834555375E+01 -0.12285372135E+02  0.40654633488E+02  0.42675541676E+02  0.17770000000E+01 0. -1.
</event>
<event>
 6    1  0.1860328E-003  0.5065385E+03  0.7546771E-02  0.9385297E-01
        -11   -1    0    0    0    0  0.00000000000E+00  0.00000000000E+00  0.50000000000E+03  0.50000000000E+03  0.00000000000E+00 0.  1.
         11   -1    0    0    0    0 -0.00000000000E+00 -0.00000000000E+00 -0.50000000000E+03  0.50000000000E+03  0.00000000000E+00 0.  1.
        -11    1    1    2    0    0  0.66655583310E+01  0.46972884749E+01  0.49339413450E+03  0.49346151435E+03  0.00000000000E+00 0.  1.
         11    1    1    2    0    0 -0.10121395978E+02 -0.13333480305E+01 -0.34566536875E+03  0.34581608931E+03  0.00000000000E+00 0.  1.
        -15    1    1    2    0    0  0.11981816236E+02 -0.11672200503E+02 -0.14773129357E+03  0.14868590052E+03  0.17770000000E+01 0. -1.
         15    1    1    2    0    0 -0.85259785889E+01  0.83082600583E+01  0.25278193133E-02  0.12036495814E+02  0.17770000000E+01 0.  1.
</event>
<event>
 6    1  0.1860328E-003  0.5004762E+03  0.7546771E-02  0.9398745E-01
        -11   -1    0    0    0    0  0.00000000000E+00  0.00000000000E+00  0.50000000000E+03  0.50000000000E+03  0.00000000000E+00 0.  1.
         11   -1    0    0    0    0 -0.00000000000E+00 -0.00000000000E+00 -0.50000000000E+03  0.50000000000E+03  0.00000000000E+00 0. -1.
        -11    1    1    2    0    0  0.57488206436E+01 -0.27403169893E+01  0.35977265132E+03  0.35982901344E+03  0.00000000000E+00 0.  1.
         11    1    1    2    0    0 -0.63645748307E+01 -0.52178024422E+01 -0.49945598925E+03  0.49952379170E+03  0.00000000000E+00 0. -1.
        -15    1    1    2    0    0 -0.17191502110E+01  0.37686203483E+01  0.12530779061E+03  0.12538882763E+03  0.17770000000E+01 0.  1.
         15    1    1    2    0    0  0.23349043980E+01  0.41894990831E+01  0.14375547315E+02  0.15258367237E+02  0.17770000000E+01 0. -1.
</event>
<event>
 6    1  0.1860328E-003  0.5087250E+03  0.7546771E-02  0.9380496E-01
        -11   -1    0    0    0    0  0.00000000000E+00  0.00000000000E+00  0.50000000000E+03  0.50000000000E+03  0.00000000000E+00 0.  1.
         11   -1    0    0    0    0 -0.00000000000E+00 -0.00000000000E+00 -0.50000000000E+03  0.50000000000E+03  0.00000000000E+00 0. -1.
        -11    1    1    2    0    0 -0.18484641541E+02 -0.51694778729E+01  0.49089989822E+03  0.49127498975E+03  0.00000000000E+00 0.  1.
         11    1    1    2    0    0 -0.49061100091E+01  0.51885612139E+01 -0.46063662988E+03  0.46069197505E+03  0.00000000000E+00 0. -1.
        -15    1    1    2    0    0 -0.94740917049E+00 -0.10326116068E+02 -0.11401025380E+02  0.15513457574E+02  0.17770000000E+01 0.  1.
         15    1    1    2    0    0  0.24338160721E+02  0.10307032727E+02 -0.18862242961E+02  0.32519577633E+02  0.17770000000E+01 0. -1.
</event>
<event>
 6    1  0.1860328E-003  0.5016142E+03  0.7546771E-02  0.9396205E-01
        -11   -1    0    0    0    0  0.00000000000E+00  0.00000000000E+00  0.50000000000E+03  0.50000000000E+03  0.00000000000E+00 0.  1.
         11   -1    0    0    0    0 -0.00000000000E+00 -0.00000000000E+00 -0.50000000000E+03  0.50000000000E+03  0.00000000000E+00 0.  1.
        -11    1    1    2    0    0  0.61796953760E+01 -0.27898896604E+01  0.42192660429E+03  0.42198107958E+03  0.00000000000E+00 0.  1.
         11    1    1    2    0    0  0.67151555963E+01  0.14403419153E+02 -0.49813240276E+03  0.49838583696E+03  0.00000000000E+00 0.  1.
        -15    1    1    2    0    0 -0.38930697330E+01 -0.88315596172E+01  0.16782605613E+02  0.19441348137E+02  0.17770000000E+01 0. -1.
         15    1    1    2    0    0 -0.90017812393E+01 -0.27819698758E+01  0.59423192863E+02  0.60191735321E+02  0.17770000000E+01 0.  1.
</event>
<event>
 6    1  0.1860328E-003  0.5002374E+03  0.7546771E-02  0.9399279E-01
        -11   -1    0    0    0    0  0.00000000000E+00  0.00000000000E+00  0.50000000000E+03  0.50000000000E+03  0.00000000000E+00 0. -1.
         11   -1    0    0    0    0 -0.00000000000E+00 -0.00000000000E+00 -0.50000000000E+03  0.50000000000E+03  0.00000000000E+00 0. -1.
        -11    1    1    2    0    0  0.12683941846E+02  0.39240988869E+01  0.49958618242E+03  0.49976257823E+03  0.00000000000E+00 0. -1.
         11    1    1    2    0    0 -0.35942866827E+01  0.13317304933E+01 -0.22823619136E+03  0.22826837593E+03  0.00000000000E+00 0. -1.
        -15    1    1    2    0    0 -0.12479675719E+02 -0.11226831689E+01 -0.19684638621E+03  0.19725278253E+03  0.17770000000E+01 0.  1.
         15    1    1    2    0    0  0.33900205562E+01 -0.41331462113E+01 -0.74503604855E+02  0.74716263305E+02  0.17770000000E+01 0. -1.
</event>
<event>
 6    1  0.1860328E-003  0.5053589E+03  0.7546771E-02  0.9387898E-01
        -11   -1    0    0    0    0  0.00000000000E+00  0.00000000000E+00  0.50000000000E+03  0.50000000000E+03  0.00000000000E+00 0. -1.
         11   -1    0    0    0    0 -0.00000000000E+00 -0.00000000000E+00 -0.50000000000E+03  0.50000000000E+03  0.00000000000E+00 0. -1.
        -11    1    1    2    0    0 -0.67274514104E+01  0.93864324127E+01  0.49450627444E+03  0.49464110138E+03  0.00000000000E+00 0. -1.
         11    1    1    2    0    0 -0.71064728469E+01  0.79076951632E+01 -0.40476349594E+03  0.40490310105E+03  0.00000000000E+00 0. -1.
        -15    1    1    2    0    0  0.63817581134E+01  0.64692240935E+01 -0.63731500890E+02  0.64400618255E+02  0.17770000000E+01 0. -1.
         15    1    1    2    0    0  0.74521661439E+01 -0.23763351669E+02 -0.26011277613E+02  0.36055179307E+02  0.17770000000E+01 0.  1.
</event>
<event>
 6    1  0.1860328E-003  0.5208090E+03  0.7546771E-02  0.9354415E-01
        -11   -1    0    0    0    0  0.00000000000E+00  0.00000000000E+00  0.50000000000E+03  0.50000000000E+03  0.00000000000E+00 0. -1.
         11   -1    0    0    0    0 -0.00000000000E+00 -0.00000000000E+00 -0.50000000000E+03  0.50000000000E+03  0.00000000000E+00 0. -1.
        -11    1    1    2    0    0  0.37383876258E+01 -0.57636411219E+01  0.47914178143E+03  0.47919102852E+03  0.00000000000E+00 0. -1.
         11    1    1    2    0    0  0.97842195447E+01 -0.15025944724E+00 -0.35649293908E+03  0.35662721313E+03  0.00000000000E+00 0. -1.
        -15    1    1    2    0    0  0.30287138915E+01  0.61607144540E+01  0.19661359819E+02  0.20901060005E+02  0.17770000000E+01 0.  1.
         15    1    1    2    0    0 -0.16551321062E+02 -0.24681388482E+00 -0.14231020217E+03  0.14328069834E+03  0.17770000000E+01 0. -1.
</event>
<event>
 6    1  0.1860328E-003  0.5034843E+03  0.7546771E-02  0.9392047E-01
        -11   -1    0    0    0    0  0.00000000000E+00  0.00000000000E+00  0.50000000000E+03  0.50000000000E+03  0.00000000000E+00 0. -1.
         11   -1    0    0    0    0 -0.00000000000E+00 -0.00000000000E+00 -0.50000000000E+03  0.50000000000E+03  0.00000000000E+00 0.  1.
        -11    1    1    2    0    0 -0.88957286284E+01 -0.37927861169E+01  0.42084019215E+03  0.42095128761E+03  0.00000000000E+00 0. -1.
         11    1    1    2    0    0 -0.95525287451E+01  0.70687316829E+01 -0.49637346126E+03  0.49651569040E+03  0.00000000000E+00 0.  1.
        -15    1    1    2    0    0  0.13325908828E+02 -0.84116793965E+01  0.15980349185E+02  0.22513673300E+02  0.17770000000E+01 0.  1.
         15    1    1    2    0    0  0.51223485457E+01  0.51357338305E+01  0.59552919926E+02  0.60019348691E+02  0.17770000000E+01 0. -1.
</event>
<event>
 6    1  0.1860328E-003  0.5199441E+03  0.7546771E-02  0.9356257E-01
        -11   -1    0    0    0    0  0.00000000000E+00  0.00000000000E+00  0.50000000000E+03  0.50000000000E+03  0.00000000000E+00 0. -1.
         11   -1    0    0    0    0 -0.00000000000E+00 -0.00000000000E+00 -0.50000000000E+03  0.50000000000E+03  0.00000000000E+00 0. -1.
        -11    1    1    2    0    0  0.58539653389E+01 -0.86223010048E+01  0.47994271554E+03  0.48005585423E+03  0.00000000000E+00 0. -1.
         11    1    1    2    0    0 -0.93913627658E+01 -0.32052955905E+01 -0.38395012437E+03  0.38407833787E+03  0.00000000000E+00 0. -1.
        -15    1    1    2    0    0  0.58967879145E+01 -0.11374987638E+02 -0.10855017747E+03  0.10931816505E+03  0.17770000000E+01 0. -1.
         15    1    1    2    0    0 -0.23593904877E+01  0.23202584233E+02  0.12557586301E+02  0.26547642857E+02  0.17770000000E+01 0.  1.
</event>
<event>
 6    1  0.1860328E-003  0.5016121E+03  0.7546771E-02  0.9396210E-01
        -11   -1    0    0    0    0  0.00000000000E+00  0.00000000000E+00  0.50000000000E+03  0.50000000000E+03  0.00000000000E+00 0. -1.
         11   -1    0    0    0    0 -0.00000000000E+00 -0.00000000000E+00 -0.50000000000E+03  0.50000000000E+03  0.00000000000E+00 0.  1.
        -11    1    1    2    0    0 -0.31098297668E+01 -0.10221209374E+02  0.49827341782E+03  0.49838794435E+03  0.00000000000E+00 0. -1.
         11    1    1    2    0    0  0.59751499055E+01 -0.47099111607E+00 -0.43080349844E+03  0.43084519090E+03  0.00000000000E+00 0.  1.
        -15    1    1    2    0    0 -0.45214859227E+01  0.15234863789E+02 -0.54926898717E+02  0.57207227177E+02  0.17770000000E+01 0.  1.
         15    1    1    2    0    0  0.16561657840E+01 -0.45426632990E+01 -0.12543020664E+02  0.13559637581E+02  0.17770000000E+01 0. -1.
</event>
<event>
 6    1  0.1860328E-003  0.5009657E+03  0.7546771E-02  0.9397651E-01
        -11   -1    0    0    0    0  0.00000000000E+00  0.00000000000E+00  0.50000000000E+03  0.50000000000E+03  0.00000000000E+00 0. -1.
         11   -1    0    0    0    0 -0.00000000000E+00 -0.00000000000E+00 -0.50000000000E+03  0.50000000000E+03  0.00000000000E+00 0. -1.
        -11    1    1    2    0    0  0.96352778445E+01  0.34812320547E+01  0.49892913563E+03  0.49903430738E+03  0.00000000000E+00 0. -1.
         11    1    1    2    0    0  0.50972777573E+01 -0.37779842435E+01 -0.11427819434E+03  0.11445418781E+03  0.00000000000E+00 0. -1.
        -15    1    1    2    0    0 -0.13126972135E+02  0.11585758528E+02 -0.33787579047E+03  0.33833379186E+03  0.17770000000E+01 0. -1.
         15    1    1    2    0    0 -0.16055834668E+01 -0.11289006339E+02 -0.46775150821E+02  0.48177712957E+02  0.17770000000E+01 0.  1.
</event>
<event>
 6    1  0.1860328E-003  0.5018516E+03  0.7546771E-02  0.9395676E-01
        -11   -1    0    0    0    0  0.00000000000E+00  0.00000000000E+00  0.50000000000E+03  0.50000000000E+03  0.00000000000E+00 0. -1.
         11   -1    0    0    0    0 -0.00000000000E+00 -0.00000000000E+00 -0.50000000000E+03  0.50000000000E+03  0.00000000000E+00 0.  1.
        -11    1    1    2    0    0  0.17617829112E+02  0.45946871151E+01  0.34744486222E+03  0.34792158791E+03  0.00000000000E+00 0. -1.
         11    1    1    2    0    0  0.76135538142E+01 -0.35035832790E+01 -0.49807789223E+03  0.49814839960E+03  0.00000000000E+00 0.  1.
        -15    1    1    2    0    0  0.78079238974E-01 -0.50593062613E+01  0.16152502313E+02  0.17019510457E+02  0.17770000000E+01 0. -1.
         15    1    1    2    0    0 -0.25309462165E+02  0.39682024252E+01  0.13448052770E+03  0.13691050203E+03  0.17770000000E+01 0.  1.
</event>
<event>
 6    1  0.1860328E-003  0.5003582E+03  0.7546771E-02  0.9399009E-01
        -11   -1    0    0    0    0  0.00000000000E+00  0.00000000000E+00  0.50000000000E+03  0.50000000000E+03  0.00000000000E+00 0. -1.
         11   -1    0    0    0    0 -0.00000000000E+00 -0.00000000000E+00 -0.50000000000E+03  0.50000000000E+03  0.00000000000E+00 0. -1.
        -11    1    1    2    0    0  0.45788764233E+01  0.30548520533E+01  0.34631434066E+03  0.34635808173E+03  0.00000000000E+00 0. -1.
         11    1    1    2    0    0  0.68953405871E+01 -0.43797964179E+01 -0.49957503179E+03  0.49964181242E+03  0.00000000000E+00 0. -1.
        -15    1    1    2    0    0 -0.11655447584E+02  0.34550042431E+01  0.12677151604E+03  0.12736546440E+03  0.17770000000E+01 0. -1.
         15    1    1    2    0    0  0.18123057365E+00 -0.21300598785E+01  0.26489175086E+02  0.26634641453E+02  0.17770000000E+01 0.  1.
</event>
<event>
 6    1  0.1860328E-003  0.4828902E+03  0.7546771E-02  0.9438930E-01
        -11   -1    0    0    0    0  0.00000000000E+00  0.00000000000E+00  0.50000000000E+03  0.50000000000E+03  0.00000000000E+00 0.  1.
         11   -1    0    0    0    0 -0.00000000000E+00 -0.00000000000E+00 -0.50000000000E+03  0.50000000000E+03  0.00000000000E+00 0.  1.
        -11    1    1    2    0    0 -0.12847511150E+02 -0.13091849525E+02  0.47909434627E+03  0.47944535423E+03  0.00000000000E+00 0.  1.
         11    1    1    2    0    0 -0.76395876501E+01  0.31355389496E+00 -0.48660598196E+03  0.48666604905E+03  0.00000000000E+00 0.  1.
        -15    1    1    2    0    0  0.56780625141E+01 -0.24807412022E+01 -0.58563294316E+01  0.87091213240E+01  0.17770000000E+01 0.  1.
         15    1    1    2    0    0  0.14809036286E+02  0.15259036832E+02  0.13367965127E+02  0.25179475400E+02  0.17770000000E+01 0.  1.
</event>
<event>
 6    1  0.1860328E-003  0.5006205E+03  0.7546771E-02  0.9398422E-01
        -11   -1    0    0    0    0  0.00000000000E+00  0.00000000000E+00  0.50000000000E+03  0.50000000000E+03  0.00000000000E+00 0.  1.
         11   -1    0    0    0    0 -0.00000000000E+00 -0.00000000000E+00 -0.50000000000E+03  0.50000000000E+03  0.00000000000E+00 0. -1.
        -11    1    1    2    0    0 -0.34991845192E+01 -0.71361067529E+01  0.36630671601E+03  0.36639292911E+03  0.00000000000E+00 0.  1.
         11    1    1    2    0    0  0.32171387330E+00 -0.72351099805E+01 -0.49932694856E+03  0.49937946682E+03  0.00000000000E+00 0. -1.
        -15    1    1    2    0    0  0.34857596528E+01  0.10312544793E+02  0.11924643498E+03  0.11975545535E+03  0.17770000000E+01 0. -1.
         15    1    1    2    0    0 -0.30828900686E+00  0.40586719407E+01  0.13773797575E+02  0.14472148724E+02  0.17770000000E+01 0.  1.
</event>
<event>
 6    1  0.1860328E-003  0.5530680E+03  0.7546771E-02  0.9288317E-01
        -11   -1    0    0    0    0  0.00000000000E+00  0.00000000000E+00  0.50000000000E+03  0.50000000000E+03  0.00000000000E+00 0. -1.
         11   -1    0    0    0    0 -0.00000000000E+00 -0.00000000000E+00 -0.50000000000E+03  0.50000000000E+03  0.00000000000E+00 0.  1.
        -11    1    1    2    0    0  0.86892829910E+01  0.59482896892E+01  0.44680796686E+03  0.44693203626E+03  0.00000000000E+00 0. -1.
         11    1    1    2    0    0  0.30745724438E+01  0.56672554260E+01 -0.39324984679E+03  0.39330269867E+03  0.00000000000E+00 0.  1.
        -15    1    1    2    0    0 -0.60176369904E+01 -0.29112365983E+01 -0.10602087461E+03  0.10624627445E+03  0.17770000000E+01 0.  1.
         15    1    1    2    0    0 -0.57462184443E+01 -0.87043085170E+01  0.52462754545E+02  0.53518990616E+02  0.17770000000E+01 0. -1.
</event>
<event>
 6    1  0.1860328E-003  0.5121949E+03  0.7546771E-02  0.9372929E-01
        -11   -1    0    0    0    0  0.00000000000E+00  0.00000000000E+00  0.50000000000E+03  0.50000000000E+03  0.00000000000E+00 0.  1.
         11   -1    0    0    0    0 -0.00000000000E+00 -0.00000000000E+00 -0.50000000000E+03  0.50000000000E+03  0.00000000000E+00 0. -1.
        -11    1    1    2    0    0 -0.34042640459E+01 -0.39145642512E+01  0.14460285990E+03  0.14469588771E+03  0.00000000000E+00 0.  1.
         11    1    1    2    0    0 -0.51874021407E+02  0.72222214007E+02 -0.47963201378E+03  0.48780511574E+03  0.00000000000E+00 0. -1.
        -15    1    1    2    0    0 -0.20173540168E+01  0.93154739516E+01  0.20675628855E+03  0.20698349779E+03  0.17770000000E+01 0.  1.
         15    1    1    2    0    0  0.57295639470E+02 -0.77623123707E+02  0.12827286533E+03  0.16051549877E+03  0.17770000000E+01 0. -1.
</event>
<event>
 6    1  0.2339879E-003  0.5197492E+03  0.7546771E-02  0.9356672E-01
        -11   -1    0    0    0    0  0.00000000000E+00  0.00000000000E+00  0.50000000000E+03  0.50000000000E+03  0.00000000000E+00 0.  1.
         11   -1    0    0    0    0 -0.00000000000E+00 -0.00000000000E+00 -0.50000000000E+03  0.50000000000E+03  0.00000000000E+00 0. -1.
        -11    1    1    2    0    0  0.14262725132E+02  0.40070786124E+01  0.48002222321E+03  0.48025078530E+03  0.00000000000E+00 0.  1.
         11    1    1    2    0    0 -0.28725965536E+02  0.14374169253E+02 -0.42337922750E+03  0.42459600577E+03  0.00000000000E+00 0. -1.
        -15    1    1    2    0    0  0.28454540427E+02 -0.15769142665E+02 -0.68945812142E+02  0.76256209401E+02  0.17770000000E+01 0. -1.
         15    1    1    2    0    0 -0.13991300023E+02 -0.26121051998E+01  0.12302816432E+02  0.18896999526E+02  0.17770000000E+01 0.  1.
</event>
<event>
 6    1  0.1860328E-003  0.5060773E+03  0.7546771E-02  0.9386313E-01
        -11   -1    0    0    0    0  0.00000000000E+00  0.00000000000E+00  0.50000000000E+03  0.50000000000E+03  0.00000000000E+00 0.  1.
         11   -1    0    0    0    0 -0.00000000000E+00 -0.00000000000E+00 -0.50000000000E+03  0.50000000000E+03  0.00000000000E+00 0. -1.
        -11    1    1    2    0    0 -0.24185803825E+01 -0.87500337396E+01  0.49383927302E+03  0.49392270671E+03  0.00000000000E+00 0.  1.
         11    1    1    2    0    0  0.69673287668E+01 -0.45771177388E+01 -0.46353838877E+03  0.46361334271E+03  0.00000000000E+00 0. -1.
        -15    1    1    2    0    0  0.16063493739E+01  0.16139634632E+02 -0.31395455333E+02  0.35382206106E+02  0.17770000000E+01 0.  1.
         15    1    1    2    0    0 -0.61550977582E+01 -0.28124831536E+01  0.10945710823E+01  0.70817444713E+01  0.17770000000E+01 0. -1.
</event>
<event>
 6    1  0.1860328E-003  0.4966898E+03  0.7546771E-02  0.9407247E-01
        -11   -1    0    0    0    0  0.00000000000E+00  0.00000000000E+00  0.50000000000E+03  0.50000000000E+03  0.00000000000E+00 0.  1.
         11   -1    0    0    0    0 -0.00000000000E+00 -0.00000000000E+00 -0.50000000000E+03  0.50000000000E+03  0.00000000000E+00 0. -1.
        -11    1    1    2    0    0 -0.25256641531E+01  0.68333873725E+01  0.49729526776E+03  0.49734862772E+03  0.00000000000E+00 0.  1.
         11    1    1    2    0    0  0.29724226783E+01 -0.42674044652E+01 -0.91201992215E+01  0.10498765227E+02  0.00000000000E+00 0. -1.
        -15    1    1    2    0    0  0.10414078032E+02  0.25477437028E+02 -0.32883920139E+03  0.32999383467E+03  0.17770000000E+01 0. -1.
         15    1    1    2    0    0 -0.10860836557E+02 -0.28043419935E+02 -0.15933586715E+03  0.16215877238E+03  0.17770000000E+01 0.  1.
</event>
<event>
 6    1  0.1860328E-003  0.5003763E+03  0.7546771E-02  0.9398968E-01
        -11   -1    0    0    0    0  0.00000000000E+00  0.00000000000E+00  0.50000000000E+03  0.50000000000E+03  0.00000000000E+00 0. -1.
         11   -1    0    0    0    0 -0.00000000000E+00 -0.00000000000E+00 -0.50000000000E+03  0.50000000000E+03  0.00000000000E+00 0. -1.
        -11    1    1    2    0    0 -0.10345956189E+02  0.11518163294E+01  0.49951528972E+03  0.49962374859E+03  0.00000000000E+00 0. -1.
         11    1    1    2    0    0 -0.47792318650E+01  0.18620131755E+00 -0.27839273567E+03  0.27843381800E+03  0.00000000000E+00 0. -1.
        -15    1    1    2    0    0  0.15064825680E+02  0.18740537687E+01 -0.16840787806E+03  0.16910006555E+03  0.17770000000E+01 0. -1.
         15    1    1    2    0    0  0.60362373215E-01 -0.32120714157E+01 -0.52714675995E+02  0.52842367856E+02  0.17770000000E+01 0.  1.
</event>
<event>
 6    1  0.1860328E-003  0.5003647E+03  0.7546771E-02  0.9398994E-01
        -11   -1    0    0    0    0  0.00000000000E+00  0.00000000000E+00  0.50000000000E+03  0.50000000000E+03  0.00000000000E+00 0. -1.
         11   -1    0    0    0    0 -0.00000000000E+00 -0.00000000000E+00 -0.50000000000E+03  0.50000000000E+03  0.00000000000E+00 0.  1.
        -11    1    1    2    0    0  0.15979559535E+02 -0.52321507044E+01  0.49935225027E+03  0.49963525854E+03  0.00000000000E+00 0. -1.
         11    1    1    2    0    0  0.13972972130E+01  0.35592891645E+01 -0.20286250934E+03  0.20289854281E+03  0.00000000000E+00 0.  1.
        -15    1    1    2    0    0 -0.74748052674E+01  0.36827758661E+01 -0.23276940281E+03  0.23292528451E+03  0.17770000000E+01 0.  1.
         15    1    1    2    0    0 -0.99020514807E+01 -0.20099143261E+01 -0.63720338128E+02  0.64540914150E+02  0.17770000000E+01 0. -1.
</event>
<event>
 6    1  0.1860328E-003  0.5047786E+03  0.7546771E-02  0.9389180E-01
        -11   -1    0    0    0    0  0.00000000000E+00  0.00000000000E+00  0.50000000000E+03  0.50000000000E+03  0.00000000000E+00 0. -1.
         11   -1    0    0    0    0 -0.00000000000E+00 -0.00000000000E+00 -0.50000000000E+03  0.50000000000E+03  0.00000000000E+00 0. -1.
        -11    1    1    2    0    0 -0.83684901925E+00 -0.16377920634E+02  0.49494980245E+03  0.49522140861E+03  0.00000000000E+00 0. -1.
         11    1    1    2    0    0  0.48485280884E+01 -0.35616165619E+01 -0.38455352758E+03  0.38460058360E+03  0.00000000000E+00 0. -1.
        -15    1    1    2    0    0 -0.53502327137E+01  0.94454032760E+00 -0.96176122274E+02  0.96345842522E+02  0.17770000000E+01 0.  1.
         15    1    1    2    0    0  0.13385536445E+01  0.18994996868E+02 -0.14220152603E+02  0.23832165259E+02  0.17770000000E+01 0. -1.
</event>
<event>
 6    1  0.1860328E-003  0.5456880E+03  0.7546771E-02  0.9303009E-01
        -11   -1    0    0    0    0  0.00000000000E+00  0.00000000000E+00  0.50000000000E+03  0.50000000000E+03  0.00000000000E+00 0. -1.
         11   -1    0    0    0    0 -0.00000000000E+00 -0.00000000000E+00 -0.50000000000E+03  0.50000000000E+03  0.00000000000E+00 0.  1.
        -11    1    1    2    0    0 -0.20976678220E+01 -0.70387569993E+01  0.43723411000E+03  0.43729579378E+03  0.00000000000E+00 0. -1.
         11    1    1    2    0    0 -0.79440904094E+01 -0.12300450109E+02 -0.45407597885E+03  0.45431201197E+03  0.00000000000E+00 0.  1.
        -15    1    1    2    0    0  0.38534894554E+02 -0.75010272670E+01 -0.28440286100E+02  0.48509907347E+02  0.17770000000E+01 0.  1.
         15    1    1    2    0    0 -0.28493136322E+02  0.26840234375E+02  0.45282154951E+02  0.59882286903E+02  0.17770000000E+01 0. -1.
</event>
<event>
 6    1  0.1860328E-003  0.5012711E+03  0.7546771E-02  0.9396970E-01
        -11   -1    0    0    0    0  0.00000000000E+00  0.00000000000E+00  0.50000000000E+03  0.50000000000E+03  0.00000000000E+00 0. -1.
         11   -1    0    0    0    0 -0.00000000000E+00 -0.00000000000E+00 -0.50000000000E+03  0.50000000000E+03  0.00000000000E+00 0. -1.
        -11    1    1    2    0    0  0.10214661350E+02  0.30736724318E+01  0.49861476820E+03  0.49872885803E+03  0.00000000000E+00 0. -1.
         11    1    1    2    0    0  0.46598025694E+00 -0.60333524642E+01 -0.41771331234E+03  0.41775714211E+03  0.00000000000E+00 0. -1.
        -15    1    1    2    0    0 -0.41138069955E+01 -0.78096025516E+00 -0.69906521026E+02  0.70054355453E+02  0.17770000000E+01 0. -1.
         15    1    1    2    0    0 -0.65668346109E+01  0.37406402876E+01 -0.10994934828E+02  0.13459644403E+02  0.17770000000E+01 0.  1.
</event>
<event>
 6    1  0.1860328E-003  0.5017805E+03  0.7546771E-02  0.9395834E-01
        -11   -1    0    0    0    0  0.00000000000E+00  0.00000000000E+00  0.50000000000E+03  0.50000000000E+03  0.00000000000E+00 0.  1.
         11   -1    0    0    0    0 -0.00000000000E+00 -0.00000000000E+00 -0.50000000000E+03  0.50000000000E+03  0.00000000000E+00 0. -1.
        -11    1    1    2    0    0 -0.62608429982E+01  0.38031474897E+01  0.31786776049E+03  0.31795215873E+03  0.00000000000E+00 0.  1.
         11    1    1    2    0    0  0.64284905448E+00 -0.94338974024E+01 -0.49812971075E+03  0.49821945005E+03  0.00000000000E+00 0. -1.
        -15    1    1    2    0    0  0.66990948425E+01  0.11593157088E+02  0.24811512058E+02  0.28249743761E+02  0.17770000000E+01 0. -1.
         15    1    1    2    0    0 -0.10811008988E+01 -0.59624071754E+01  0.15545043821E+03  0.15557864746E+03  0.17770000000E+01 0.  1.
</event>
<event>
 6    1  0.1860328E-003  0.5007582E+03  0.7546771E-02  0.9398115E-01
        -11   -1    0    0    0    0  0.00000000000E+00  0.00000000000E+00  0.50000000000E+03  0.50000000000E+03  0.00000000000E+00 0. -1.
         11   -1    0    0    0    0 -0.00000000000E+00 -0.00000000000E+00 -0.50000000000E+03  0.50000000000E+03  0.00000000000E+00 0.  1.
        -11    1    1    2    0    0 -0.90032793109E+01 -0.14174353096E+01  0.49915859816E+03  0.49924179941E+03  0.00000000000E+00 0. -1.
         11    1    1    2    0    0 -0.68969828706E+01 -0.49577612855E+01 -0.26503741738E+03  0.26517349110E+03  0.00000000000E+00 0.  1.
        -15    1    1    2    0    0  0.17717292945E+01 -0.60894641228E+01 -0.87450674042E+02  0.87698339308E+02  0.17770000000E+01 0. -1.
         15    1    1    2    0    0  0.14128532887E+02  0.12464660718E+02 -0.14667050674E+03  0.14788637018E+03  0.17770000000E+01 0.  1.
</event>
<event>
 6    1  0.1860328E-003  0.5022412E+03  0.7546771E-02  0.9394809E-01
        -11   -1    0    0    0    0  0.00000000000E+00  0.00000000000E+00  0.50000000000E+03  0.50000000000E+03  0.00000000000E+00 0.  1.
         11   -1    0    0    0    0 -0.00000000000E+00 -0.00000000000E+00 -0.50000000000E+03  0.50000000000E+03  0.00000000000E+00 0. -1.
        -11    1    1    2    0    0 -0.17526030394E+01 -0.85998214413E+01  0.49768146036E+03  0.49775884174E+03  0.00000000000E+00 0.  1.
         11    1    1    2    0    0 -0.15894384396E+01  0.48563211911E+01 -0.35575174084E+03  0.35578843612E+03  0.00000000000E+00 0. -1.
        -15    1    1    2    0    0  0.13443898564E+02 -0.10580974727E+02 -0.50724185016E+02  0.53561143652E+02  0.17770000000E+01 0.  1.
         15    1    1    2    0    0 -0.10101857085E+02  0.14324474977E+02 -0.91205534506E+02  0.92891578485E+02  0.17770000000E+01 0. -1.
</event>
<event>
 6    1  0.1860328E-003  0.5011709E+03  0.7546771E-02  0.9397194E-01
        -11   -1    0    0    0    0  0.00000000000E+00  0.00000000000E+00  0.50000000000E+03  0.50000000000E+03  0.00000000000E+00 0. -1.
         11   -1    0    0    0    0 -0.00000000000E+00 -0.00000000000E+00 -0.50000000000E+03  0.50000000000E+03  0.00000000000E+00 0.  1.
        -11    1    1    2    0    0  0.91660032662E+00  0.74747707094E+01  0.49877226924E+03  0.49882911795E+03  0.00000000000E+00 0. -1.
         11    1    1    2    0    0  0.78236289484E+01  0.39545483562E+01 -0.40288462215E+03  0.40297998261E+03  0.00000000000E+00 0.  1.
        -15    1    1    2    0    0  0.13821470868E+01 -0.38915120010E+01 -0.65244336553E+01  0.79233931965E+01  0.17770000000E+01 0.  1.
         15    1    1    2    0    0 -0.10122376362E+02 -0.75378070646E+01 -0.89363213434E+02  0.90267506240E+02  0.17770000000E+01 0. -1.
</event>
<event>
 6    1  0.1860328E-003  0.5045599E+03  0.7546771E-02  0.9389664E-01
        -11   -1    0    0    0    0  0.00000000000E+00  0.00000000000E+00  0.50000000000E+03  0.50000000000E+03  0.00000000000E+00 0.  1.
         11   -1    0    0    0    0 -0.00000000000E+00 -0.00000000000E+00 -0.50000000000E+03  0.50000000000E+03  0.00000000000E+00 0.  1.
        -11    1    1    2    0    0 -0.65038118951E+01  0.50713345982E+01  0.33013596168E+03  0.33023896076E+03  0.00000000000E+00 0.  1.
         11    1    1    2    0    0  0.14472575873E+02  0.19722502826E+02 -0.49483575741E+03  0.49544006639E+03  0.00000000000E+00 0.  1.
        -15    1    1    2    0    0  0.33640940857E+01 -0.37714843451E+02  0.13202571001E+03  0.13735964611E+03  0.17770000000E+01 0. -1.
         15    1    1    2    0    0 -0.11332858063E+02  0.12921006027E+02  0.32674085715E+02  0.36961326747E+02  0.17770000000E+01 0.  1.
</event>
<event>
 6    1  0.1860328E-003  0.4022867E+03  0.7546771E-02  0.9649668E-01
        -11   -1    0    0    0    0  0.00000000000E+00  0.00000000000E+00  0.50000000000E+03  0.50000000000E+03  0.00000000000E+00 0. -1.
         11   -1    0    0    0    0 -0.00000000000E+00 -0.00000000000E+00 -0.50000000000E+03  0.50000000000E+03  0.00000000000E+00 0. -1.
        -11    1    1    2    0    0 -0.30658506813E+01  0.12222840666E+02  0.39629282206E+03  0.39649312490E+03  0.00000000000E+00 0. -1.
         11    1    1    2    0    0  0.15973237181E+01 -0.40810506331E-01 -0.47360065162E+02  0.47387011730E+02  0.00000000000E+00 0. -1.
        -15    1    1    2    0    0 -0.10013794134E+03 -0.92087281067E+02 -0.39586267504E+03  0.41859059933E+03  0.17770000000E+01 0. -1.
         15    1    1    2    0    0  0.10160646830E+03  0.79905250907E+02  0.46929918141E+02  0.13752926404E+03  0.17770000000E+01 0.  1.
</event>
<event>
 6    1  0.1860328E-003  0.5070101E+03  0.7546771E-02  0.9384259E-01
        -11   -1    0    0    0    0  0.00000000000E+00  0.00000000000E+00  0.50000000000E+03  0.50000000000E+03  0.00000000000E+00 0. -1.
         11   -1    0    0    0    0 -0.00000000000E+00 -0.00000000000E+00 -0.50000000000E+03  0.50000000000E+03  0.00000000000E+00 0.  1.
        -11    1    1    2    0    0  0.18584948413E+02 -0.78274206166E+01  0.49257723982E+03  0.49298986400E+03  0.00000000000E+00 0. -1.
         11    1    1    2    0    0 -0.36105704776E+01 -0.47182126250E+01 -0.25308571668E+03  0.25315544184E+03  0.00000000000E+00 0.  1.
        -15    1    1    2    0    0  0.24447461541E+01  0.98813283412E+01  0.29665453757E+01  0.10750607146E+02  0.17770000000E+01 0. -1.
         15    1    1    2    0    0 -0.17419124089E+02  0.26643049004E+01 -0.24245806852E+03  0.24310408701E+03  0.17770000000E+01 0.  1.
</event>
<event>
 6    1  0.1860328E-003  0.5107250E+03  0.7546771E-02  0.9376126E-01
        -11   -1    0    0    0    0  0.00000000000E+00  0.00000000000E+00  0.50000000000E+03  0.50000000000E+03  0.00000000000E+00 0.  1.
         11   -1    0    0    0    0 -0.00000000000E+00 -0.00000000000E+00 -0.50000000000E+03  0.50000000000E+03  0.00000000000E+00 0.  1.
        -11    1    1    2    0    0  0.78859576436E+01 -0.51335504143E+01  0.47766695650E+03  0.47775962889E+03  0.00000000000E+00 0.  1.
         11    1    1    2    0    0 -0.55118736646E+01  0.37731964723E+01 -0.48922935601E+03  0.48927495393E+03  0.00000000000E+00 0.  1.
        -15    1    1    2    0    0 -0.72661999089E+01  0.81290561876E+01  0.18777944690E+02  0.21786421262E+02  0.17770000000E+01 0. -1.
         15    1    1    2    0    0  0.48921159299E+01 -0.67687022456E+01 -0.72155451774E+01  0.11178995911E+02  0.17770000000E+01 0.  1.
</event>
<event>
 6    1  0.1860328E-003  0.5010263E+03  0.7546771E-02  0.9397516E-01
        -11   -1    0    0    0    0  0.00000000000E+00  0.00000000000E+00  0.50000000000E+03  0.50000000000E+03  0.00000000000E+00 0.  1.
         11   -1    0    0    0    0 -0.00000000000E+00 -0.00000000000E+00 -0.50000000000E+03  0.50000000000E+03  0.00000000000E+00 0. -1.
        -11    1    1    2    0    0 -0.75787527800E+01 -0.14984201974E+00  0.49891607523E+03  0.49897365669E+03  0.00000000000E+00 0.  1.
         11    1    1    2    0    0  0.23482058456E+01 -0.59586207970E+01 -0.24637137298E+03  0.24645460568E+03  0.00000000000E+00 0. -1.
        -15    1    1    2    0    0  0.36031699265E+01  0.92350261064E+01 -0.24918433088E+03  0.24938776439E+03  0.17770000000E+01 0. -1.
         15    1    1    2    0    0  0.16273770079E+01 -0.31265632896E+01 -0.33603713655E+01  0.51839732487E+01  0.17770000000E+01 0.  1.
</event>
<event>
 6    1  0.1860328E-003  0.4733190E+03  0.7546771E-02  0.9461573E-01
        -11   -1    0    0    0    0  0.00000000000E+00  0.00000000000E+00  0.50000000000E+03  0.50000000000E+03  0.00000000000E+00 0.  1.
         11   -1    0    0    0    0 -0.00000000000E+00 -0.00000000000E+00 -0.50000000000E+03  0.50000000000E+03  0.00000000000E+00 0. -1.
        -11    1    1    2    0    0  0.67537859146E+01  0.16558213410E+02  0.47528474952E+03  0.47562104787E+03  0.00000000000E+00 0.  1.
         11    1    1    2    0    0  0.10591202721E+02  0.32707977584E+01 -0.47126166688E+03  0.47139201347E+03  0.00000000000E+00 0. -1.
        -15    1    1    2    0    0 -0.10122808261E+02 -0.14346203586E+02  0.20341022392E+02  0.26929532588E+02  0.17770000000E+01 0.  1.
         15    1    1    2    0    0 -0.72221803737E+01 -0.54828075829E+01 -0.24364105029E+02  0.26057406072E+02  0.17770000000E+01 0. -1.
</event>
<event>
 6    1  0.1860328E-003  0.5026096E+03  0.7546771E-02  0.9393989E-01
        -11   -1    0    0    0    0  0.00000000000E+00  0.00000000000E+00  0.50000000000E+03  0.50000000000E+03  0.00000000000E+00 0.  1.
         11   -1    0    0    0    0 -0.00000000000E+00 -0.00000000000E+00 -0.50000000000E+03  0.50000000000E+03  0.00000000000E+00 0. -1.
        -11    1    1    2    0    0  0.30991150790E+01  0.12445042384E+02  0.13867975629E+03  0.13927152760E+03  0.00000000000E+00 0.  1.
         11    1    1    2    0    0  0.74009769202E+01 -0.16756822205E+01 -0.49733250686E+03  0.49739039471E+03  0.00000000000E+00 0. -1.
        -15    1    1    2    0    0 -0.48171860602E+01 -0.14041429384E+02  0.35555827512E+03  0.35587246557E+03  0.17770000000E+01 0.  1.
         15    1    1    2    0    0 -0.56829059390E+01  0.32720692203E+01  0.30944754522E+01  0.74656121128E+01  0.17770000000E+01 0. -1.
</event>
<event>
 6    1  0.1860328E-003  0.5001332E+03  0.7546771E-02  0.9399512E-01
        -11   -1    0    0    0    0  0.00000000000E+00  0.00000000000E+00  0.50000000000E+03  0.50000000000E+03  0.00000000000E+00 0.  1.
         11   -1    0    0    0    0 -0.00000000000E+00 -0.00000000000E+00 -0.50000000000E+03  0.50000000000E+03  0.00000000000E+00 0.  1.
        -11    1    1    2    0    0 -0.37215200827E+01 -0.16042400695E+01  0.27659162236E+03  0.27662130948E+03  0.00000000000E+00 0.  1.
         11    1    1    2    0    0  0.98514677080E+01 -0.41816480863E+01 -0.49975222029E+03  0.49986680154E+03  0.00000000000E+00 0.  1.
        -15    1    1    2    0    0 -0.41207286936E+00  0.40178537298E+01  0.15582957215E+03  0.15589203392E+03  0.17770000000E+01 0. -1.
         15    1    1    2    0    0 -0.57178747559E+01  0.17680344260E+01  0.67331025778E+02  0.67619855063E+02  0.17770000000E+01 0.  1.
</event>
<event>
 6    1  0.1860328E-003  0.5066035E+03  0.7546771E-02  0.9385154E-01
        -11   -1    0    0    0    0  0.00000000000E+00  0.00000000000E+00  0.50000000000E+03  0.50000000000E+03  0.00000000000E+00 0.  1.
         11   -1    0    0    0    0 -0.00000000000E+00 -0.00000000000E+00 -0.50000000000E+03  0.50000000000E+03  0.00000000000E+00 0.  1.
        -11    1    1    2    0    0  0.10125603372E+01 -0.72912825858E+01  0.49334160772E+03  0.49339652410E+03  0.00000000000E+00 0.  1.
         11    1    1    2    0    0  0.64375060198E+01  0.80492097878E+00 -0.46548958205E+03  0.46553478965E+03  0.00000000000E+00 0.  1.
        -15    1    1    2    0    0  0.28188949322E+01  0.36239124142E+01  0.46774741718E+01  0.67908323093E+01  0.17770000000E+01 0.  1.
         15    1    1    2    0    0 -0.10268961289E+02  0.28624491928E+01 -0.32529499849E+02  0.34277853940E+02  0.17770000000E+01 0. -1.
</event>
<event>
 6    1  0.1860328E-003  0.5004321E+03  0.7546771E-02  0.9398843E-01
        -11   -1    0    0    0    0  0.00000000000E+00  0.00000000000E+00  0.50000000000E+03  0.50000000000E+03  0.00000000000E+00 0. -1.
         11   -1    0    0    0    0 -0.00000000000E+00 -0.00000000000E+00 -0.50000000000E+03  0.50000000000E+03  0.00000000000E+00 0.  1.
        -11    1    1    2    0    0 -0.21534420961E+01 -0.39237153735E+01  0.29202107934E+03  0.29205537768E+03  0.00000000000E+00 0. -1.
         11    1    1    2    0    0 -0.30854446310E+01  0.11992491352E+02 -0.49941437841E+03  0.49956787445E+03  0.00000000000E+00 0.  1.
        -15    1    1    2    0    0  0.40537821514E+01 -0.12264251718E+02  0.95681730593E+02  0.96566020515E+02  0.17770000000E+01 0.  1.
         15    1    1    2    0    0  0.11851045757E+01  0.41954757399E+01  0.11171156848E+03  0.11181072735E+03  0.17770000000E+01 0.  1.
</event>
<event>
 6    1  0.1860328E-003  0.5018050E+03  0.7546771E-02  0.9395780E-01
        -11   -1    0    0    0    0  0.00000000000E+00  0.00000000000E+00  0.50000000000E+03  0.50000000000E+03  0.00000000000E+00 0. -1.
         11   -1    0    0    0    0 -0.00000000000E+00 -0.00000000000E+00 -0.50000000000E+03  0.50000000000E+03  0.00000000000E+00 0.  1.
        -11    1    1    2    0    0  0.76731867671E+01 -0.41440151361E+01  0.49811870307E+03  0.49819503510E+03  0.00000000000E+00 0. -1.
         11    1    1    2    0    0  0.13403599385E+01 -0.10961208323E+02 -0.32994790322E+03  0.33013264530E+03  0.00000000000E+00 0.  1.
        -15    1    1    2    0    0  0.17535508971E+01 -0.19839266953E+01 -0.11040937855E+03  0.11045541864E+03  0.17770000000E+01 0.  1.
         15    1    1    2    0    0 -0.10767097603E+02  0.17089150155E+02 -0.57761421295E+02  0.61216900957E+02  0.17770000000E+01 0. -1.
</event>
<event>
 6    1  0.1860328E-003  0.5141514E+03  0.7546771E-02  0.9368690E-01
        -11   -1    0    0    0    0  0.00000000000E+00  0.00000000000E+00  0.50000000000E+03  0.50000000000E+03  0.00000000000E+00 0.  1.
         11   -1    0    0    0    0 -0.00000000000E+00 -0.00000000000E+00 -0.50000000000E+03  0.50000000000E+03  0.00000000000E+00 0. -1.
        -11    1    1    2    0    0 -0.64973274666E+01 -0.24426251989E+01  0.48579898743E+03  0.48584857504E+03  0.00000000000E+00 0.  1.
         11    1    1    2    0    0  0.13391942195E+02 -0.82764766892E+01 -0.43488256598E+03  0.43516742798E+03  0.00000000000E+00 0. -1.
        -15    1    1    2    0    0  0.82668376317E+01 -0.96657603924E+01  0.77700791348E+01  0.15009976254E+02  0.17770000000E+01 0. -1.
         15    1    1    2    0    0 -0.15161452360E+02  0.20384862280E+02 -0.58686500588E+02  0.63974020728E+02  0.17770000000E+01 0.  1.
</event>
<event>
 6    1  0.1860328E-003  0.5011863E+03  0.7546771E-02  0.9397159E-01
        -11   -1    0    0    0    0  0.00000000000E+00  0.00000000000E+00  0.50000000000E+03  0.50000000000E+03  0.00000000000E+00 0.  1.
         11   -1    0    0    0    0 -0.00000000000E+00 -0.00000000000E+00 -0.50000000000E+03  0.50000000000E+03  0.00000000000E+00 0.  1.
        -11    1    1    2    0    0 -0.63579983127E+01 -0.10001440766E+01  0.24021299092E+03  0.24029919982E+03  0.00000000000E+00 0.  1.
         11    1    1    2    0    0 -0.37533652925E+01  0.65682004927E+01 -0.49875630528E+03  0.49881367370E+03  0.00000000000E+00 0.  1.
        -15    1    1    2    0    0  0.69915705379E+01 -0.15765655121E+02  0.22449757615E+03  0.22516606619E+03  0.17770000000E+01 0.  1.
         15    1    1    2    0    0  0.31197930673E+01  0.10197598705E+02  0.34045738216E+02  0.35721060284E+02  0.17770000000E+01 0. -1.
</event>
<event>
 6    1  0.1860328E-003  0.5095914E+03  0.7546771E-02  0.9378600E-01
        -11   -1    0    0    0    0  0.00000000000E+00  0.00000000000E+00  0.50000000000E+03  0.50000000000E+03  0.00000000000E+00 0. -1.
         11   -1    0    0    0    0 -0.00000000000E+00 -0.00000000000E+00 -0.50000000000E+03  0.50000000000E+03  0.00000000000E+00 0. -1.
        -11    1    1    2    0    0 -0.89328772841E+01  0.28748718261E+02  0.34761562953E+03  0.34891676800E+03  0.00000000000E+00 0. -1.
         11    1    1    2    0    0  0.19613958679E+02 -0.98112781881E+01 -0.48991799021E+03  0.49040861094E+03  0.00000000000E+00 0. -1.
        -15    1    1    2    0    0  0.13217477688E+02  0.21887758703E+01 -0.12854040551E+01  0.13575803800E+02  0.17770000000E+01 0.  1.
         15    1    1    2    0    0 -0.23898559083E+02 -0.21126215944E+02  0.14358776473E+03  0.14709881725E+03  0.17770000000E+01 0. -1.
</event>
<event>
 6    1  0.1860328E-003  0.5081613E+03  0.7546771E-02  0.9381731E-01
        -11   -1    0    0    0    0  0.00000000000E+00  0.00000000000E+00  0.50000000000E+03  0.50000000000E+03  0.00000000000E+00 0.  1.
         11   -1    0    0    0    0 -0.00000000000E+00 -0.00000000000E+00 -0.50000000000E+03  0.50000000000E+03  0.00000000000E+00 0. -1.
        -11    1    1    2    0    0 -0.53980941836E+01 -0.23267011196E+01  0.33065687079E+03  0.33070911562E+03  0.00000000000E+00 0.  1.
         11    1    1    2    0    0 -0.34150484384E+02 -0.24908508194E+02 -0.49001896408E+03  0.49183866717E+03  0.00000000000E+00 0. -1.
        -15    1    1    2    0    0 -0.31293444511E+01 -0.38549403886E+01  0.90524320471E+02  0.90677801516E+02  0.17770000000E+01 0.  1.
         15    1    1    2    0    0  0.42677923018E+02  0.31090149703E+02  0.68837772826E+02  0.86774415690E+02  0.17770000000E+01 0. -1.
</event>
<event>
 6    1  0.1860328E-003  0.5018184E+03  0.7546771E-02  0.9395750E-01
        -11   -1    0    0    0    0  0.00000000000E+00  0.00000000000E+00  0.50000000000E+03  0.50000000000E+03  0.00000000000E+00 0. -1.
         11   -1    0    0    0    0 -0.00000000000E+00 -0.00000000000E+00 -0.50000000000E+03  0.50000000000E+03  0.00000000000E+00 0. -1.
        -11    1    1    2    0    0 -0.69731095762E+01 -0.21133587912E+01  0.49812833922E+03  0.49818162639E+03  0.00000000000E+00 0. -1.
         11    1    1    2    0    0 -0.18615253885E+01  0.59644400057E+01 -0.19743653178E+03  0.19753537381E+03  0.00000000000E+00 0. -1.
        -15    1    1    2    0    0  0.22105963063E+02  0.80830408093E+01 -0.98145191049E+02  0.10094377349E+03  0.17770000000E+01 0. -1.
         15    1    1    2    0    0 -0.13271328099E+02 -0.11934122024E+02 -0.20254661639E+03  0.20333922631E+03  0.17770000000E+01 0.  1.
</event>
<event>
 6    1  0.1860328E-003  0.5072854E+03  0.7546771E-02  0.9383654E-01
        -11   -1    0    0    0    0  0.00000000000E+00  0.00000000000E+00  0.50000000000E+03  0.50000000000E+03  0.00000000000E+00 0. -1.
         11   -1    0    0    0    0 -0.00000000000E+00 -0.00000000000E+00 -0.50000000000E+03  0.50000000000E+03  0.00000000000E+00 0. -1.
        -11    1    1    2    0    0 -0.65450112827E+01 -0.48385913048E+01  0.49264738324E+03  0.49271461654E+03  0.00000000000E+00 0. -1.
         11    1    1    2    0    0 -0.10120117107E+02  0.33479058558E+01 -0.28027522716E+03  0.28047785688E+03  0.00000000000E+00 0. -1.
        -15    1    1    2    0    0  0.26486964957E+02 -0.25822077974E+01 -0.21421654816E+03  0.21587059629E+03  0.17770000000E+01 0.  1.
         15    1    1    2    0    0 -0.98218365678E+01  0.40728932464E+01  0.18443920729E+01  0.10936930286E+02  0.17770000000E+01 0. -1.
</event>
<event>
 6    1  0.1860328E-003  0.5032322E+03  0.7546771E-02  0.9392606E-01
        -11   -1    0    0    0    0  0.00000000000E+00  0.00000000000E+00  0.50000000000E+03  0.50000000000E+03  0.00000000000E+00 0.  1.
         11   -1    0    0    0    0 -0.00000000000E+00 -0.00000000000E+00 -0.50000000000E+03  0.50000000000E+03  0.00000000000E+00 0. -1.
        -11    1    1    2    0    0  0.27672676977E+01  0.12287917173E+02  0.49660806998E+03  0.49676777860E+03  0.00000000000E+00 0.  1.
         11    1    1    2    0    0 -0.88182637847E+01 -0.10234603620E+01 -0.40873565704E+03  0.40883205180E+03  0.00000000000E+00 0. -1.
        -15    1    1    2    0    0  0.14022325744E+02 -0.13544665540E+02 -0.29433458359E+02  0.35349254360E+02  0.17770000000E+01 0.  1.
         15    1    1    2    0    0 -0.79713296570E+01  0.22802087292E+01 -0.58438954590E+02  0.59050915242E+02  0.17770000000E+01 0. -1.
</event>
<event>
 6    1  0.1860328E-003  0.5198052E+03  0.7546771E-02  0.9356553E-01
        -11   -1    0    0    0    0  0.00000000000E+00  0.00000000000E+00  0.50000000000E+03  0.50000000000E+03  0.00000000000E+00 0.  1.
         11   -1    0    0    0    0 -0.00000000000E+00 -0.00000000000E+00 -0.50000000000E+03  0.50000000000E+03  0.00000000000E+00 0. -1.
        -11    1    1    2    0    0  0.12246588457E+01 -0.16101554416E+02  0.40301816162E+03  0.40334154068E+03  0.00000000000E+00 0.  1.
         11    1    1    2    0    0 -0.55993776027E+01  0.58206442992E+01 -0.48012687034E+03  0.48019479855E+03  0.00000000000E+00 0. -1.
        -15    1    1    2    0    0  0.17317044503E+02  0.36841206319E+02  0.83347235223E+01  0.41590622243E+02  0.17770000000E+01 0.  1.
         15    1    1    2    0    0 -0.12942325746E+02 -0.26560296203E+02  0.68773985201E+02  0.74873038535E+02  0.17770000000E+01 0. -1.
</event>
<event>
 6    1  0.1860328E-003  0.5011108E+03  0.7546771E-02  0.9397328E-01
        -11   -1    0    0    0    0  0.00000000000E+00  0.00000000000E+00  0.50000000000E+03  0.50000000000E+03  0.00000000000E+00 0. -1.
         11   -1    0    0    0    0 -0.00000000000E+00 -0.00000000000E+00 -0.50000000000E+03  0.50000000000E+03  0.00000000000E+00 0.  1.
        -11    1    1    2    0    0 -0.80304020613E+00  0.11065005253E+02  0.29498630807E+03  0.29519485287E+03  0.00000000000E+00 0. -1.
         11    1    1    2    0    0 -0.20575124963E+02 -0.86201631360E+01 -0.49839017848E+03  0.49888917906E+03  0.00000000000E+00 0.  1.
        -15    1    1    2    0    0  0.19175875839E+02 -0.17090525070E+01  0.20150322937E+03  0.20242861519E+03  0.17770000000E+01 0.  1.
         15    1    1    2    0    0  0.22022893300E+01 -0.73578961030E+00  0.19006410470E+01  0.34873528691E+01  0.17770000000E+01 0. -1.
</event>
<event>
 6    1  0.1860328E-003  0.5003875E+03  0.7546771E-02  0.9398943E-01
        -11   -1    0    0    0    0  0.00000000000E+00  0.00000000000E+00  0.50000000000E+03  0.50000000000E+03  0.00000000000E+00 0. -1.
         11   -1    0    0    0    0 -0.00000000000E+00 -0.00000000000E+00 -0.50000000000E+03  0.50000000000E+03  0.00000000000E+00 0. -1.
        -11    1    1    2    0    0 -0.53774942282E-01  0.71024718355E+01  0.49956199546E+03  0.49961248514E+03  0.00000000000E+00 0. -1.
         11    1    1    2    0    0 -0.38069380530E+01  0.11808474488E+01 -0.27022015802E+03  0.27024955315E+03  0.00000000000E+00 0. -1.
        -15    1    1    2    0    0  0.49028450121E+01 -0.11745315029E+01 -0.19174766900E+03  0.19182216689E+03  0.17770000000E+01 0. -1.
         15    1    1    2    0    0 -0.10421320168E+01 -0.71087877815E+01 -0.37594168445E+02  0.38315794823E+02  0.17770000000E+01 0. -1.
</event>
<event>
 6    1  0.1860328E-003  0.4726843E+03  0.7546771E-02  0.9463095E-01
        -11   -1    0    0    0    0  0.00000000000E+00  0.00000000000E+00  0.50000000000E+03  0.50000000000E+03  0.00000000000E+00 0.  1.
         11   -1    0    0    0    0 -0.00000000000E+00 -0.00000000000E+00 -0.50000000000E+03  0.50000000000E+03  0.00000000000E+00 0. -1.
        -11    1    1    2    0    0  0.37706662305E+01 -0.92879603098E+00  0.51129929335E+01  0.64205360078E+01  0.00000000000E+00 0.  1.
         11    1    1    2    0    0  0.36110313310E+02 -0.23456899919E+02 -0.47989185042E+03  0.48181985117E+03  0.00000000000E+00 0. -1.
        -15    1    1    2    0    0 -0.89218712226E+01 -0.95573885460E+01  0.46445083665E+03  0.46463822578E+03  0.17770000000E+01 0.  1.
         15    1    1    2    0    0 -0.30959108317E+02  0.33943084496E+02  0.10328020836E+02  0.47121387037E+02  0.17770000000E+01 0. -1.
</event>
<event>
 6    1  0.1860328E-003  0.5010157E+03  0.7546771E-02  0.9397540E-01
        -11   -1    0    0    0    0  0.00000000000E+00  0.00000000000E+00  0.50000000000E+03  0.50000000000E+03  0.00000000000E+00 0. -1.
         11   -1    0    0    0    0 -0.00000000000E+00 -0.00000000000E+00 -0.50000000000E+03  0.50000000000E+03  0.00000000000E+00 0. -1.
        -11    1    1    2    0    0 -0.11668217868E+01 -0.47461102263E+01  0.22633794226E+03  0.22639070462E+03  0.00000000000E+00 0. -1.
         11    1    1    2    0    0  0.11304957816E+02 -0.57113746977E+01 -0.49882356615E+03  0.49898434046E+03  0.00000000000E+00 0. -1.
        -15    1    1    2    0    0 -0.53064657957E+01  0.11170934504E+02  0.26609305058E+03  0.26638621896E+03  0.17770000000E+01 0.  1.
         15    1    1    2    0    0 -0.48316702332E+01 -0.71344957972E+00  0.63925733160E+01  0.82387359556E+01  0.17770000000E+01 0. -1.
</event>
<event>
 6    1  0.1860328E-003  0.5096122E+03  0.7546771E-02  0.9378555E-01
        -11   -1    0    0    0    0  0.00000000000E+00  0.00000000000E+00  0.50000000000E+03  0.50000000000E+03  0.00000000000E+00 0.  1.
         11   -1    0    0    0    0 -0.00000000000E+00 -0.00000000000E+00 -0.50000000000E+03  0.50000000000E+03  0.00000000000E+00 0. -1.
        -11    1    1    2    0    0  0.35592163571E+00 -0.66562588244E+01  0.49034245142E+03  0.49038775691E+03  0.00000000000E+00 0.  1.
         11    1    1    2    0    0  0.24754377167E+02  0.74943739331E+01 -0.45200262750E+03  0.45274200169E+03  0.00000000000E+00 0. -1.
        -15    1    1    2    0    0 -0.17448467649E+02 -0.72416707727E+01 -0.42000216637E+02  0.46087598608E+02  0.17770000000E+01 0. -1.
         15    1    1    2    0    0 -0.76618311538E+01  0.64035556640E+01  0.36603927130E+01  0.10782642792E+02  0.17770000000E+01 0.  1.
</event>
<event>
 6    1  0.1860328E-003  0.5059130E+03  0.7546771E-02  0.9386675E-01
        -11   -1    0    0    0    0  0.00000000000E+00  0.00000000000E+00  0.50000000000E+03  0.50000000000E+03  0.00000000000E+00 0. -1.
         11   -1    0    0    0    0 -0.00000000000E+00 -0.00000000000E+00 -0.50000000000E+03  0.50000000000E+03  0.00000000000E+00 0. -1.
        -11    1    1    2    0    0  0.82287299123E+01  0.20055308313E+01  0.47805296597E+03  0.47812798749E+03  0.00000000000E+00 0. -1.
         11    1    1    2    0    0 -0.32748911513E+01 -0.75795084156E+01 -0.49401798575E+03  0.49408698030E+03  0.00000000000E+00 0. -1.
        -15    1    1    2    0    0 -0.53114804810E+01  0.12358915518E+01  0.20479173856E+02  0.21267194071E+02  0.17770000000E+01 0. -1.
         15    1    1    2    0    0  0.35764172006E+00  0.43380860325E+01 -0.45141540740E+01  0.65178381408E+01  0.17770000000E+01 0.  1.
</event>
<event>
 6    1  0.1860328E-003  0.4879895E+03  0.7546771E-02  0.9427093E-01
        -11   -1    0    0    0    0  0.00000000000E+00  0.00000000000E+00  0.50000000000E+03  0.50000000000E+03  0.00000000000E+00 0. -1.
         11   -1    0    0    0    0 -0.00000000000E+00 -0.00000000000E+00 -0.50000000000E+03  0.50000000000E+03  0.00000000000E+00 0. -1.
        -11    1    1    2    0    0 -0.36875919457E+00 -0.95627367918E+01  0.48672684878E+03  0.48682091907E+03  0.00000000000E+00 0. -1.
         11    1    1    2    0    0 -0.83227261845E+01  0.13225134198E+01 -0.48916201433E+03  0.48923459923E+03  0.00000000000E+00 0. -1.
        -15    1    1    2    0    0  0.11961183645E+02  0.20220552255E+01 -0.52895278499E+01  0.13352732133E+02  0.17770000000E+01 0.  1.
         15    1    1    2    0    0 -0.32696982662E+01  0.62181681465E+01  0.77246934042E+01  0.10591749574E+02  0.17770000000E+01 0. -1.
</event>
<event>
 6    1  0.1860328E-003  0.5061954E+03  0.7546771E-02  0.9386053E-01
        -11   -1    0    0    0    0  0.00000000000E+00  0.00000000000E+00  0.50000000000E+03  0.50000000000E+03  0.00000000000E+00 0. -1.
         11   -1    0    0    0    0 -0.00000000000E+00 -0.00000000000E+00 -0.50000000000E+03  0.50000000000E+03  0.00000000000E+00 0.  1.
        -11    1    1    2    0    0  0.61121991599E+01  0.83598661246E+01  0.45231141915E+03  0.45242995727E+03  0.00000000000E+00 0. -1.
         11    1    1    2    0    0  0.73122169402E+01  0.16885492592E+02 -0.49346164521E+03  0.49380460070E+03  0.00000000000E+00 0.  1.
        -15    1    1    2    0    0  0.29762278460E+01 -0.82382822942E+01  0.20392668371E+02  0.22265351550E+02  0.17770000000E+01 0.  1.
         15    1    1    2    0    0 -0.16400643946E+02 -0.17007076423E+02  0.20757557692E+02  0.31500090486E+02  0.17770000000E+01 0. -1.
</event>
<event>
 6    1  0.1860328E-003  0.5030259E+03  0.7546771E-02  0.9393064E-01
        -11   -1    0    0    0    0  0.00000000000E+00  0.00000000000E+00  0.50000000000E+03  0.50000000000E+03  0.00000000000E+00 0.  1.
         11   -1    0    0    0    0 -0.00000000000E+00 -0.00000000000E+00 -0.50000000000E+03  0.50000000000E+03  0.00000000000E+00 0.  1.
        -11    1    1    2    0    0  0.20961865913E+02  0.65914517815E+01  0.49648806364E+03  0.49697408825E+03  0.00000000000E+00 0.  1.
         11    1    1    2    0    0 -0.57903498675E+01 -0.14376623509E+02 -0.32075768296E+03  0.32113191469E+03  0.00000000000E+00 0.  1.
        -15    1    1    2    0    0 -0.11497364485E+02 -0.10142017936E+02 -0.20928206467E+02  0.26003797278E+02  0.17770000000E+01 0.  1.
         15    1    1    2    0    0 -0.36741515609E+01  0.17927189664E+02 -0.15480217421E+03  0.15589019978E+03  0.17770000000E+01 0. -1.
</event>
<event>
 6    1  0.1860328E-003  0.4989600E+03  0.7546771E-02  0.9402140E-01
        -11   -1    0    0    0    0  0.00000000000E+00  0.00000000000E+00  0.50000000000E+03  0.50000000000E+03  0.00000000000E+00 0. -1.
         11   -1    0    0    0    0 -0.00000000000E+00 -0.00000000000E+00 -0.50000000000E+03  0.50000000000E+03  0.00000000000E+00 0.  1.
        -11    1    1    2    0    0 -0.50004062256E+00  0.42270411457E+00  0.22848015841E+01  0.23767704289E+01  0.00000000000E+00 0. -1.
         11    1    1    2    0    0 -0.72455098901E+01 -0.91039288610E+01 -0.49966816593E+03  0.49980361641E+03  0.00000000000E+00 0.  1.
        -15    1    1    2    0    0  0.78056354129E+00  0.94507589362E+01  0.41706227681E+03  0.41717385655E+03  0.17770000000E+01 0. -1.
         15    1    1    2    0    0  0.69649869714E+01 -0.76953418982E+00  0.80321087537E+02  0.80645756606E+02  0.17770000000E+01 0.  1.
</event>
<event>
 6    1  0.1860328E-003  0.5196139E+03  0.7546771E-02  0.9356961E-01
        -11   -1    0    0    0    0  0.00000000000E+00  0.00000000000E+00  0.50000000000E+03  0.50000000000E+03  0.00000000000E+00 0. -1.
         11   -1    0    0    0    0 -0.00000000000E+00 -0.00000000000E+00 -0.50000000000E+03  0.50000000000E+03  0.00000000000E+00 0. -1.
        -11    1    1    2    0    0 -0.26033219820E+01  0.11734371701E+02  0.48023574247E+03  0.48038613751E+03  0.00000000000E+00 0. -1.
         11    1    1    2    0    0  0.13965052079E+02  0.91868340243E+00 -0.46958281801E+03  0.46979132562E+03  0.00000000000E+00 0. -1.
        -15    1    1    2    0    0 -0.11735728480E+02  0.86355036469E+01 -0.21365235384E+02  0.25921617584E+02  0.17770000000E+01 0.  1.
         15    1    1    2    0    0  0.37399838356E+00 -0.21288558751E+02  0.10712310920E+02  0.23900919286E+02  0.17770000000E+01 0. -1.
</event>
<event>
 6    1  0.1860328E-003  0.5006508E+03  0.7546771E-02  0.9398355E-01
        -11   -1    0    0    0    0  0.00000000000E+00  0.00000000000E+00  0.50000000000E+03  0.50000000000E+03  0.00000000000E+00 0.  1.
         11   -1    0    0    0    0 -0.00000000000E+00 -0.00000000000E+00 -0.50000000000E+03  0.50000000000E+03  0.00000000000E+00 0. -1.
        -11    1    1    2    0    0  0.54476278854E+01 -0.32696396990E+01  0.41999674674E+03  0.42004480055E+03  0.00000000000E+00 0.  1.
         11    1    1    2    0    0 -0.44718902288E+01 -0.81835324148E+01 -0.49926209908E+03  0.49934918803E+03  0.00000000000E+00 0. -1.
        -15    1    1    2    0    0 -0.81884062674E+00  0.14188102936E+01  0.38861198219E+02  0.38936281007E+02  0.17770000000E+01 0.  1.
         15    1    1    2    0    0 -0.15689702986E+00  0.10034361820E+02  0.40404154119E+02  0.41669730415E+02  0.17770000000E+01 0. -1.
</event>
<event>
 6    1  0.1860328E-003  0.4425615E+03  0.7546771E-02  0.9538383E-01
        -11   -1    0    0    0    0  0.00000000000E+00  0.00000000000E+00  0.50000000000E+03  0.50000000000E+03  0.00000000000E+00 0. -1.
         11   -1    0    0    0    0 -0.00000000000E+00 -0.00000000000E+00 -0.50000000000E+03  0.50000000000E+03  0.00000000000E+00 0. -1.
        -11    1    1    2    0    0 -0.85603009876E+01  0.15972541854E+02  0.44316311355E+03  0.44353347794E+03  0.00000000000E+00 0. -1.
         11    1    1    2    0    0 -0.10988193184E+02 -0.75444546275E+01 -0.44164565132E+03  0.44184673871E+03  0.00000000000E+00 0. -1.
        -15    1    1    2    0    0  0.25117162772E+02 -0.42093482031E+01  0.53422424989E+02  0.59208983260E+02  0.17770000000E+01 0.  1.
         15    1    1    2    0    0 -0.55686686004E+01 -0.42187390235E+01 -0.54939887221E+02  0.55410800083E+02  0.17770000000E+01 0. -1.
</event>
<event>
 6    1  0.1860328E-003  0.5061759E+03  0.7546771E-02  0.9386096E-01
        -11   -1    0    0    0    0  0.00000000000E+00  0.00000000000E+00  0.50000000000E+03  0.50000000000E+03  0.00000000000E+00 0.  1.
         11   -1    0    0    0    0 -0.00000000000E+00 -0.00000000000E+00 -0.50000000000E+03  0.50000000000E+03  0.00000000000E+00 0. -1.
        -11    1    1    2    0    0  0.88859736896E+01  0.90169964408E+00  0.49374328379E+03  0.49382406166E+03  0.00000000000E+00 0.  1.
         11    1    1    2    0    0 -0.25333348358E+01  0.89432083430E+01 -0.42401879141E+03  0.42412065999E+03  0.00000000000E+00 0. -1.
        -15    1    1    2    0    0  0.43432171462E+01 -0.12040534810E+02 -0.15802693193E+01  0.13018947492E+02  0.17770000000E+01 0. -1.
         15    1    1    2    0    0 -0.10695856000E+02  0.21956268227E+01 -0.68144223058E+02  0.69036330855E+02  0.17770000000E+01 0.  1.
</event>
<event>
 6    1  0.1860328E-003  0.5013142E+03  0.7546771E-02  0.9396874E-01
        -11   -1    0    0    0    0  0.00000000000E+00  0.00000000000E+00  0.50000000000E+03  0.50000000000E+03  0.00000000000E+00 0.  1.
         11   -1    0    0    0    0 -0.00000000000E+00 -0.00000000000E+00 -0.50000000000E+03  0.50000000000E+03  0.00000000000E+00 0. -1.
        -11    1    1    2    0    0  0.50500548401E+01  0.38000199141E+01  0.40783396722E+03  0.40788293422E+03  0.00000000000E+00 0.  1.
         11    1    1    2    0    0  0.36660620709E+01  0.67604440935E+01 -0.49862652974E+03  0.49868583274E+03  0.00000000000E+00 0. -1.
        -15    1    1    2    0    0 -0.68021196576E+01 -0.14357012429E+02  0.52989059876E+02  0.55347907217E+02  0.17770000000E+01 0. -1.
         15    1    1    2    0    0 -0.19139972533E+01  0.37965484218E+01  0.37803502638E+02  0.38083325827E+02  0.17770000000E+01 0.  1.
</event>
<event>
 6    1  0.1860328E-003  0.5022785E+03  0.7546771E-02  0.9394726E-01
        -11   -1    0    0    0    0  0.00000000000E+00  0.00000000000E+00  0.50000000000E+03  0.50000000000E+03  0.00000000000E+00 0. -1.
         11   -1    0    0    0    0 -0.00000000000E+00 -0.00000000000E+00 -0.50000000000E+03  0.50000000000E+03  0.00000000000E+00 0. -1.
        -11    1    1    2    0    0 -0.15212077747E+01  0.89499045153E+01  0.46604060153E+03  0.46612901341E+03  0.00000000000E+00 0. -1.
         11    1    1    2    0    0 -0.44067802448E+01 -0.98602002199E+01 -0.49760430604E+03  0.49772149707E+03  0.00000000000E+00 0. -1.
        -15    1    1    2    0    0  0.90699339546E+01 -0.46126242796E+01  0.14082926474E+02  0.17465009355E+02  0.17770000000E+01 0. -1.
         15    1    1    2    0    0 -0.31419459350E+01  0.55229199842E+01  0.17480778031E+02  0.18684480163E+02  0.17770000000E+01 0.  1.
</event>
<event>
 6    1  0.1860328E-003  0.5006011E+03  0.7546771E-02  0.9398466E-01
        -11   -1    0    0    0    0  0.00000000000E+00  0.00000000000E+00  0.50000000000E+03  0.50000000000E+03  0.00000000000E+00 0. -1.
         11   -1    0    0    0    0 -0.00000000000E+00 -0.00000000000E+00 -0.50000000000E+03  0.50000000000E+03  0.00000000000E+00 0.  1.
        -11    1    1    2    0    0  0.13360811900E+02 -0.14594984610E+01  0.49921805340E+03  0.49939894501E+03  0.00000000000E+00 0. -1.
         11    1    1    2    0    0 -0.51508960506E+01  0.58554689501E+01 -0.33479814558E+03  0.33488896149E+03  0.00000000000E+00 0.  1.
        -15    1    1    2    0    0  0.51334233012E+01 -0.12512643117E+01 -0.25287885345E+02  0.25895029859E+02  0.17770000000E+01 0. -1.
         15    1    1    2    0    0 -0.13343339151E+02 -0.31447061774E+01 -0.13913202248E+03  0.13981706364E+03  0.17770000000E+01 0.  1.
</event>
<event>
 6    1  0.1860328E-003  0.5045077E+03  0.7546771E-02  0.9389780E-01
        -11   -1    0    0    0    0  0.00000000000E+00  0.00000000000E+00  0.50000000000E+03  0.50000000000E+03  0.00000000000E+00 0.  1.
         11   -1    0    0    0    0 -0.00000000000E+00 -0.00000000000E+00 -0.50000000000E+03  0.50000000000E+03  0.00000000000E+00 0. -1.
        -11    1    1    2    0    0  0.37201465953E+00 -0.30987798955E+02  0.49452223541E+03  0.49549230407E+03  0.00000000000E+00 0.  1.
         11    1    1    2    0    0 -0.58341837434E+01  0.39628191617E+01 -0.41616956937E+03  0.41622932634E+03  0.00000000000E+00 0. -1.
        -15    1    1    2    0    0  0.99747191583E+01  0.26183800936E+02 -0.36063043379E+02  0.45703252406E+02  0.17770000000E+01 0.  1.
         15    1    1    2    0    0 -0.45125500744E+01  0.84117885720E+00 -0.42289622652E+02  0.42575117183E+02  0.17770000000E+01 0.  1.
</event>
<event>
 6    1  0.1860328E-003  0.5025991E+03  0.7546771E-02  0.9394013E-01
        -11   -1    0    0    0    0  0.00000000000E+00  0.00000000000E+00  0.50000000000E+03  0.50000000000E+03  0.00000000000E+00 0. -1.
         11   -1    0    0    0    0 -0.00000000000E+00 -0.00000000000E+00 -0.50000000000E+03  0.50000000000E+03  0.00000000000E+00 0.  1.
        -11    1    1    2    0    0 -0.17219884132E+02 -0.69117112133E+01  0.49705466655E+03  0.49740088229E+03  0.00000000000E+00 0. -1.
         11    1    1    2    0    0  0.17711433249E+01 -0.13361164108E+01 -0.11290430078E+03  0.11292609658E+03  0.00000000000E+00 0.  1.
        -15    1    1    2    0    0  0.11177589194E+02  0.16879945278E+02 -0.35656897534E+02  0.41041967832E+02  0.17770000000E+01 0. -1.
         15    1    1    2    0    0  0.42711516135E+01 -0.86321176539E+01 -0.34849346824E+03  0.34863105330E+03  0.17770000000E+01 0.  1.
</event>
<event>
 6    1  0.1860328E-003  0.4799412E+03  0.7546771E-02  0.9445846E-01
        -11   -1    0    0    0    0  0.00000000000E+00  0.00000000000E+00  0.50000000000E+03  0.50000000000E+03  0.00000000000E+00 0.  1.
         11   -1    0    0    0    0 -0.00000000000E+00 -0.00000000000E+00 -0.50000000000E+03  0.50000000000E+03  0.00000000000E+00 0. -1.
        -11    1    1    2    0    0 -0.15293280444E+01  0.18588937807E+02  0.48367585542E+03  0.48403535054E+03  0.00000000000E+00 0.  1.
         11    1    1    2    0    0 -0.63988970418E+01  0.16144815869E+01 -0.47607680948E+03  0.47612254826E+03  0.00000000000E+00 0. -1.
        -15    1    1    2    0    0  0.63129362303E+01 -0.12024535990E+02  0.12164459887E+02  0.18318691082E+02  0.17770000000E+01 0. -1.
         15    1    1    2    0    0  0.16152888558E+01 -0.81788834039E+01 -0.19763505824E+02  0.21523410122E+02  0.17770000000E+01 0.  1.
</event>
<event>
 6    1  0.1860328E-003  0.5337403E+03  0.7546771E-02  0.9327325E-01
        -11   -1    0    0    0    0  0.00000000000E+00  0.00000000000E+00  0.50000000000E+03  0.50000000000E+03  0.00000000000E+00 0. -1.
         11   -1    0    0    0    0 -0.00000000000E+00 -0.00000000000E+00 -0.50000000000E+03  0.50000000000E+03  0.00000000000E+00 0.  1.
        -11    1    1    2    0    0 -0.14227052912E+02  0.16120865010E+02  0.46576370511E+03  0.46625971338E+03  0.00000000000E+00 0. -1.
         11    1    1    2    0    0  0.10602148864E+03 -0.54675407037E+02 -0.15464609973E+03  0.19530840317E+03  0.00000000000E+00 0.  1.
        -15    1    1    2    0    0 -0.10429415907E+03  0.13547286051E+02 -0.24576241930E+03  0.26732587799E+03  0.17770000000E+01 0.  1.
         15    1    1    2    0    0  0.12499723339E+02  0.25007255976E+02 -0.65355186086E+02  0.71106005459E+02  0.17770000000E+01 0. -1.
</event>
<event>
 6    1  0.1860328E-003  0.5040974E+03  0.7546771E-02  0.9390688E-01
        -11   -1    0    0    0    0  0.00000000000E+00  0.00000000000E+00  0.50000000000E+03  0.50000000000E+03  0.00000000000E+00 0. -1.
         11   -1    0    0    0    0 -0.00000000000E+00 -0.00000000000E+00 -0.50000000000E+03  0.50000000000E+03  0.00000000000E+00 0.  1.
        -11    1    1    2    0    0 -0.59194485782E+01  0.98061281824E+01  0.49577033470E+03  0.49590263640E+03  0.00000000000E+00 0. -1.
         11    1    1    2    0    0 -0.56303076179E+01 -0.77033243142E+01 -0.45639206776E+03  0.45649179739E+03  0.00000000000E+00 0.  1.
        -15    1    1    2    0    0  0.15248782176E+02  0.33485324880E+01 -0.13104650630E+02  0.20460391610E+02  0.17770000000E+01 0. -1.
         15    1    1    2    0    0 -0.36990259800E+01 -0.54513363562E+01 -0.26273616309E+02  0.27145174603E+02  0.17770000000E+01 0.  1.
</event>
<event>
 6    1  0.1860328E-003  0.5006447E+03  0.7546771E-02  0.9398368E-01
        -11   -1    0    0    0    0  0.00000000000E+00  0.00000000000E+00  0.50000000000E+03  0.50000000000E+03  0.00000000000E+00 0.  1.
         11   -1    0    0    0    0 -0.00000000000E+00 -0.00000000000E+00 -0.50000000000E+03  0.50000000000E+03  0.00000000000E+00 0. -1.
        -11    1    1    2    0    0 -0.32368583095E+01  0.14011907032E+02  0.49914816721E+03  0.49935528796E+03  0.00000000000E+00 0.  1.
         11    1    1    2    0    0 -0.46325620862E+00  0.99400730364E+00 -0.61972993471E+02  0.61982695783E+02  0.00000000000E+00 0. -1.
        -15    1    1    2    0    0  0.11871241690E+02 -0.12048058468E+02 -0.10499794559E+03  0.10636638754E+03  0.17770000000E+01 0.  1.
         15    1    1    2    0    0 -0.81711271721E+01 -0.29578558680E+01 -0.33217722815E+03  0.33229562871E+03  0.17770000000E+01 0. -1.
</event>
<event>
 6    1  0.1860328E-003  0.5063199E+03  0.7546771E-02  0.9385778E-01
        -11   -1    0    0    0    0  0.00000000000E+00  0.00000000000E+00  0.50000000000E+03  0.50000000000E+03  0.00000000000E+00 0. -1.
         11   -1    0    0    0    0 -0.00000000000E+00 -0.00000000000E+00 -0.50000000000E+03  0.50000000000E+03  0.00000000000E+00 0.  1.
        -11    1    1    2    0    0 -0.69860524440E+01  0.38072112630E+01  0.45168563669E+03  0.45175570188E+03  0.00000000000E+00 0. -1.
         11    1    1    2    0    0 -0.87434270618E+01  0.13541355601E+01 -0.49360076553E+03  0.49368005523E+03  0.00000000000E+00 0.  1.
        -15    1    1    2    0    0  0.95291100444E+01 -0.17284018279E+02  0.16972290261E+02  0.26091331737E+02  0.17770000000E+01 0. -1.
         15    1    1    2    0    0  0.62003694614E+01  0.12122671456E+02  0.24942838573E+02  0.28472911157E+02  0.17770000000E+01 0.  1.
</event>
<event>
 6    1  0.1860328E-003  0.5015979E+03  0.7546771E-02  0.9396241E-01
        -11   -1    0    0    0    0  0.00000000000E+00  0.00000000000E+00  0.50000000000E+03  0.50000000000E+03  0.00000000000E+00 0. -1.
         11   -1    0    0    0    0 -0.00000000000E+00 -0.00000000000E+00 -0.50000000000E+03  0.50000000000E+03  0.00000000000E+00 0. -1.
        -11    1    1    2    0    0  0.71814795983E+01  0.11607250198E+02  0.49821512621E+03  0.49840206048E+03  0.00000000000E+00 0. -1.
         11    1    1    2    0    0  0.20653264438E+01  0.31158206489E+01 -0.26105223228E+03  0.26107899550E+03  0.00000000000E+00 0. -1.
        -15    1    1    2    0    0 -0.71750886684E+01 -0.85283006645E+01 -0.23126621807E+03  0.23154143292E+03  0.17770000000E+01 0. -1.
         15    1    1    2    0    0 -0.20717173737E+01 -0.61947701828E+01 -0.58966758553E+01  0.89775111048E+01  0.17770000000E+01 0.  1.
</event>
<event>
 6    1  0.1860328E-003  0.5009811E+03  0.7546771E-02  0.9397617E-01
        -11   -1    0    0    0    0  0.00000000000E+00  0.00000000000E+00  0.50000000000E+03  0.50000000000E+03  0.00000000000E+00 0. -1.
         11   -1    0    0    0    0 -0.00000000000E+00 -0.00000000000E+00 -0.50000000000E+03  0.50000000000E+03  0.00000000000E+00 0.  1.
        -11    1    1    2    0    0  0.99344249635E+01  0.37037158090E+01  0.49890627492E+03  0.49901891895E+03  0.00000000000E+00 0. -1.
         11    1    1    2    0    0 -0.55163469384E+01 -0.70368008015E+01 -0.45261026781E+03  0.45269857651E+03  0.00000000000E+00 0.  1.
        -15    1    1    2    0    0 -0.18262348201E+01 -0.45289503540E+01 -0.19510236164E+02  0.20190432613E+02  0.17770000000E+01 0.  1.
         15    1    1    2    0    0 -0.25918432050E+01  0.78620353465E+01 -0.26785770953E+02  0.28092071934E+02  0.17770000000E+01 0. -1.
</event>
<event>
 6    1  0.1860328E-003  0.5043036E+03  0.7546771E-02  0.9390231E-01
        -11   -1    0    0    0    0  0.00000000000E+00  0.00000000000E+00  0.50000000000E+03  0.50000000000E+03  0.00000000000E+00 0. -1.
         11   -1    0    0    0    0 -0.00000000000E+00 -0.00000000000E+00 -0.50000000000E+03  0.50000000000E+03  0.00000000000E+00 0. -1.
        -11    1    1    2    0    0 -0.83144515858E+01  0.97414549458E+01  0.42821411903E+03  0.42840559962E+03  0.00000000000E+00 0. -1.
         11    1    1    2    0    0  0.71087520675E+01  0.73035705541E+01 -0.49559164730E+03  0.49569643671E+03  0.00000000000E+00 0. -1.
        -15    1    1    2    0    0  0.10645641458E+02 -0.15067422246E+02  0.62004587887E+02  0.64715404219E+02  0.17770000000E+01 0. -1.
         15    1    1    2    0    0 -0.94399419396E+01 -0.19776032536E+01  0.53729403790E+01  0.11182559446E+02  0.17770000000E+01 0.  1.
</event>
<event>
 6    1  0.1860328E-003  0.5027856E+03  0.7546771E-02  0.9393598E-01
        -11   -1    0    0    0    0  0.00000000000E+00  0.00000000000E+00  0.50000000000E+03  0.50000000000E+03  0.00000000000E+00 0.  1.
         11   -1    0    0    0    0 -0.00000000000E+00 -0.00000000000E+00 -0.50000000000E+03  0.50000000000E+03  0.00000000000E+00 0. -1.
        -11    1    1    2    0    0  0.64166708646E+01 -0.15473785876E+02  0.49693212152E+03  0.49721438547E+03  0.00000000000E+00 0.  1.
         11    1    1    2    0    0 -0.10777043304E+02 -0.27412863184E+01 -0.25177461821E+03  0.25202007397E+03  0.00000000000E+00 0. -1.
        -15    1    1    2    0    0  0.17168763868E+02  0.27888568582E+02 -0.20278145020E+03  0.20541668137E+03  0.17770000000E+01 0. -1.
         15    1    1    2    0    0 -0.12808391429E+02 -0.96734963873E+01 -0.42376053112E+02  0.45348859188E+02  0.17770000000E+01 0.  1.
</event>
<event>
 6    1  0.1860328E-003  0.6098258E+03  0.7546771E-02  0.9182876E-01
        -11   -1    0    0    0    0  0.00000000000E+00  0.00000000000E+00  0.50000000000E+03  0.50000000000E+03  0.00000000000E+00 0.  1.
         11   -1    0    0    0    0 -0.00000000000E+00 -0.00000000000E+00 -0.50000000000E+03  0.50000000000E+03  0.00000000000E+00 0. -1.
        -11    1    1    2    0    0  0.51916859095E+01 -0.17531027649E+01  0.39013572812E+03  0.39017420894E+03  0.00000000000E+00 0.  1.
         11    1    1    2    0    0  0.19224700105E+02  0.88526213293E+01 -0.29245439397E+03  0.29321925338E+03  0.00000000000E+00 0. -1.
        -15    1    1    2    0    0 -0.18507854507E+02 -0.12476076562E+02 -0.20638459474E+03  0.20759564504E+03  0.17770000000E+01 0. -1.
         15    1    1    2    0    0 -0.59085315073E+01  0.53765579972E+01  0.10870326060E+03  0.10901089264E+03  0.17770000000E+01 0.  1.
</event>
<event>
 6    1  0.1860328E-003  0.5022719E+03  0.7546771E-02  0.9394740E-01
        -11   -1    0    0    0    0  0.00000000000E+00  0.00000000000E+00  0.50000000000E+03  0.50000000000E+03  0.00000000000E+00 0.  1.
         11   -1    0    0    0    0 -0.00000000000E+00 -0.00000000000E+00 -0.50000000000E+03  0.50000000000E+03  0.00000000000E+00 0. -1.
        -11    1    1    2    0    0  0.25599259236E+01  0.72213281699E+01  0.45128245732E+03  0.45134749040E+03  0.00000000000E+00 0.  1.
         11    1    1    2    0    0  0.10872515817E+02 -0.99637865670E+01 -0.49750956609E+03  0.49772809544E+03  0.00000000000E+00 0. -1.
        -15    1    1    2    0    0 -0.13022545874E+01 -0.49050978081E+01  0.22586045896E+02  0.23217300655E+02  0.17770000000E+01 0. -1.
         15    1    1    2    0    0 -0.12130187153E+02  0.76475562052E+01  0.23641062870E+02  0.27707113508E+02  0.17770000000E+01 0.  1.
</event>
<event>
 6    1  0.1860328E-003  0.5018643E+03  0.7546771E-02  0.9395648E-01
        -11   -1    0    0    0    0  0.00000000000E+00  0.00000000000E+00  0.50000000000E+03  0.50000000000E+03  0.00000000000E+00 0.  1.
         11   -1    0    0    0    0 -0.00000000000E+00 -0.00000000000E+00 -0.50000000000E+03  0.50000000000E+03  0.00000000000E+00 0. -1.
        -11    1    1    2    0    0  0.43689557040E+01 -0.67146728407E+01  0.49807128808E+03  0.49813570703E+03  0.00000000000E+00 0.  1.
         11    1    1    2    0    0  0.68243152305E+01 -0.65882781088E+01 -0.40220912878E+03  0.40232096634E+03  0.00000000000E+00 0. -1.
        -15    1    1    2    0    0  0.29292977912E+01 -0.33952400517E+01 -0.19854901352E+02  0.20432407525E+02  0.17770000000E+01 0.  1.
         15    1    1    2    0    0 -0.14122568726E+02  0.16698191001E+02 -0.76007257954E+02  0.79110919100E+02  0.17770000000E+01 0.  1.
</event>
<event>
 6    1  0.1860328E-003  0.5032178E+03  0.7546771E-02  0.9392638E-01
        -11   -1    0    0    0    0  0.00000000000E+00  0.00000000000E+00  0.50000000000E+03  0.50000000000E+03  0.00000000000E+00 0. -1.
         11   -1    0    0    0    0 -0.00000000000E+00 -0.00000000000E+00 -0.50000000000E+03  0.50000000000E+03  0.00000000000E+00 0.  1.
        -11    1    1    2    0    0  0.47771762159E+01  0.59445921188E+01  0.49672367995E+03  0.49678221970E+03  0.00000000000E+00 0. -1.
         11    1    1    2    0    0  0.75997000531E+00  0.76606260351E+01 -0.45516677630E+03  0.45523187168E+03  0.00000000000E+00 0.  1.
        -15    1    1    2    0    0 -0.12586219449E+01 -0.48516209067E+01 -0.54542988244E-01  0.53181818849E+01  0.17770000000E+01 0. -1.
         15    1    1    2    0    0 -0.42785242763E+01 -0.87535972472E+01 -0.41502360660E+02  0.42667726728E+02  0.17770000000E+01 0.  1.
</event>
<event>
 6    1  0.1860328E-003  0.5189259E+03  0.7546771E-02  0.9358430E-01
        -11   -1    0    0    0    0  0.00000000000E+00  0.00000000000E+00  0.50000000000E+03  0.50000000000E+03  0.00000000000E+00 0. -1.
         11   -1    0    0    0    0 -0.00000000000E+00 -0.00000000000E+00 -0.50000000000E+03  0.50000000000E+03  0.00000000000E+00 0. -1.
        -11    1    1    2    0    0  0.47653825742E+01 -0.60703808426E+01  0.42876680529E+03  0.42883625280E+03  0.00000000000E+00 0. -1.
         11    1    1    2    0    0 -0.19868582122E+02 -0.10499052663E+02 -0.48054895380E+03  0.48107409789E+03  0.00000000000E+00 0. -1.
        -15    1    1    2    0    0  0.23240663925E+02  0.18180292550E+02 -0.72619440413E+01  0.30439202637E+02  0.17770000000E+01 0.  1.
         15    1    1    2    0    0 -0.81374643772E+01 -0.16108590449E+01  0.59044092555E+02  0.59650446670E+02  0.17770000000E+01 0. -1.
</event>
<event>
 6    1  0.1860328E-003  0.5011760E+03  0.7546771E-02  0.9397182E-01
        -11   -1    0    0    0    0  0.00000000000E+00  0.00000000000E+00  0.50000000000E+03  0.50000000000E+03  0.00000000000E+00 0.  1.
         11   -1    0    0    0    0 -0.00000000000E+00 -0.00000000000E+00 -0.50000000000E+03  0.50000000000E+03  0.00000000000E+00 0. -1.
        -11    1    1    2    0    0  0.76050813141E+00 -0.68980937998E+00  0.36766167555E+02  0.36780501442E+02  0.00000000000E+00 0.  1.
         11    1    1    2    0    0 -0.12051818376E+02 -0.16565975234E+00 -0.49867832079E+03  0.49882395832E+03  0.00000000000E+00 0. -1.
        -15    1    1    2    0    0 -0.32633422712E+01  0.70962969609E+01  0.41032437590E+03  0.41040255606E+03  0.17770000000E+01 0.  1.
         15    1    1    2    0    0  0.14554652516E+02 -0.62408278286E+01  0.51587777333E+02  0.53992984183E+02  0.17770000000E+01 0. -1.
</event>
<event>
 6    1  0.1860328E-003  0.5127073E+03  0.7546771E-02  0.9371817E-01
        -11   -1    0    0    0    0  0.00000000000E+00  0.00000000000E+00  0.50000000000E+03  0.50000000000E+03  0.00000000000E+00 0. -1.
         11   -1    0    0    0    0 -0.00000000000E+00 -0.00000000000E+00 -0.50000000000E+03  0.50000000000E+03  0.00000000000E+00 0. -1.
        -11    1    1    2    0    0 -0.74133070702E+01 -0.78265719012E+01  0.28373595777E+03  0.28394067353E+03  0.00000000000E+00 0. -1.
         11    1    1    2    0    0 -0.15075863208E+02 -0.45950755190E+01 -0.48703774237E+03  0.48729268296E+03  0.00000000000E+00 0. -1.
        -15    1    1    2    0    0  0.57562120967E+01  0.65253732659E+01  0.20965152962E+03  0.20983954841E+03  0.17770000000E+01 0. -1.
         15    1    1    2    0    0  0.16732958181E+02  0.58962741543E+01 -0.63497450229E+01  0.18927095109E+02  0.17770000000E+01 0. -1.
</event>
<event>
 6    1  0.1860328E-003  0.5026436E+03  0.7546771E-02  0.9393914E-01
        -11   -1    0    0    0    0  0.00000000000E+00  0.00000000000E+00  0.50000000000E+03  0.50000000000E+03  0.00000000000E+00 0.  1.
         11   -1    0    0    0    0 -0.00000000000E+00 -0.00000000000E+00 -0.50000000000E+03  0.50000000000E+03  0.00000000000E+00 0.  1.
        -11    1    1    2    0    0 -0.11992750495E+01  0.20846904195E+01  0.38216557211E+02  0.38292158987E+02  0.00000000000E+00 0.  1.
         11    1    1    2    0    0 -0.64053544058E+01 -0.88317059367E+01 -0.49723676819E+03  0.49735644284E+03  0.00000000000E+00 0.  1.
        -15    1    1    2    0    0 -0.16957041747E+02 -0.59681446364E+01  0.38318447655E+03  0.38361003743E+03  0.17770000000E+01 0.  1.
         15    1    1    2    0    0  0.24561671202E+02  0.12715160154E+02  0.75835734426E+02  0.80741360745E+02  0.17770000000E+01 0. -1.
</event>
<event>
 6    1  0.1860328E-003  0.5071340E+03  0.7546771E-02  0.9383987E-01
        -11   -1    0    0    0    0  0.00000000000E+00  0.00000000000E+00  0.50000000000E+03  0.50000000000E+03  0.00000000000E+00 0. -1.
         11   -1    0    0    0    0 -0.00000000000E+00 -0.00000000000E+00 -0.50000000000E+03  0.50000000000E+03  0.00000000000E+00 0. -1.
        -11    1    1    2    0    0 -0.21568633376E+00 -0.69059400944E+01  0.48670189872E+03  0.48675093913E+03  0.00000000000E+00 0. -1.
         11    1    1    2    0    0 -0.48775134060E+01  0.87895832582E+01 -0.49276350084E+03  0.49286602101E+03  0.00000000000E+00 0. -1.
        -15    1    1    2    0    0 -0.17238941562E+00 -0.47958135716E+00  0.11992966883E+02  0.12134607535E+02  0.17770000000E+01 0.  1.
         15    1    1    2    0    0  0.52655891554E+01 -0.14040618067E+01 -0.59313647689E+01  0.82484323197E+01  0.17770000000E+01 0. -1.
</event>
<event>
 6    1  0.1860328E-003  0.5035534E+03  0.7546771E-02  0.9391894E-01
        -11   -1    0    0    0    0  0.00000000000E+00  0.00000000000E+00  0.50000000000E+03  0.50000000000E+03  0.00000000000E+00 0. -1.
         11   -1    0    0    0    0 -0.00000000000E+00 -0.00000000000E+00 -0.50000000000E+03  0.50000000000E+03  0.00000000000E+00 0.  1.
        -11    1    1    2    0    0  0.12075271198E+01  0.65661564092E+01  0.36650536369E+03  0.36656616612E+03  0.00000000000E+00 0. -1.
         11    1    1    2    0    0  0.13870203599E+02  0.15960420618E+02 -0.49599611341E+03  0.49644663569E+03  0.00000000000E+00 0.  1.
        -15    1    1    2    0    0 -0.24511946635E+02 -0.16433142510E+02  0.63766598391E+02  0.70286702156E+02  0.17770000000E+01 0.  1.
         15    1    1    2    0    0  0.94342159161E+01 -0.60934345177E+01  0.65724151330E+02  0.66700496034E+02  0.17770000000E+01 0. -1.
</event>
<event>
 6    1  0.1860328E-003  0.5008275E+03  0.7546771E-02  0.9397960E-01
        -11   -1    0    0    0    0  0.00000000000E+00  0.00000000000E+00  0.50000000000E+03  0.50000000000E+03  0.00000000000E+00 0. -1.
         11   -1    0    0    0    0 -0.00000000000E+00 -0.00000000000E+00 -0.50000000000E+03  0.50000000000E+03  0.00000000000E+00 0. -1.
        -11    1    1    2    0    0 -0.17474419287E+01 -0.79552769213E+01  0.49910599614E+03  0.49917245053E+03  0.00000000000E+00 0. -1.
         11    1    1    2    0    0  0.40764982731E+01  0.52479380598E+01 -0.32418069394E+03  0.32424879493E+03  0.00000000000E+00 0. -1.
        -15    1    1    2    0    0  0.17691470945E+01  0.62611376212E+01 -0.13875854084E+02  0.15428181400E+02  0.17770000000E+01 0. -1.
         15    1    1    2    0    0 -0.40982034390E+01 -0.35537987597E+01 -0.16104944812E+03  0.16115057314E+03  0.17770000000E+01 0.  1.
</event>
<event>
 6    1  0.1860328E-003  0.5134965E+03  0.7546771E-02  0.9370107E-01
        -11   -1    0    0    0    0  0.00000000000E+00  0.00000000000E+00  0.50000000000E+03  0.50000000000E+03  0.00000000000E+00 0.  1.
         11   -1    0    0    0    0 -0.00000000000E+00 -0.00000000000E+00 -0.50000000000E+03  0.50000000000E+03  0.00000000000E+00 0.  1.
        -11    1    1    2    0    0 -0.92339554636E+02 -0.12032012832E+02  0.47750839954E+03  0.48650347822E+03  0.00000000000E+00 0.  1.
         11    1    1    2    0    0  0.40105857605E+01  0.24371237445E+01 -0.20478939600E+03  0.20484316216E+03  0.00000000000E+00 0.  1.
        -15    1    1    2    0    0  0.61645576395E+01  0.36482911153E+00 -0.19518804003E+03  0.19529378784E+03  0.17770000000E+01 0.  1.
         15    1    1    2    0    0  0.82164411236E+02  0.92300599755E+01 -0.77530963512E+02  0.11335957178E+03  0.17770000000E+01 0. -1.
</event>
<event>
 6    1  0.1860328E-003  0.5023232E+03  0.7546771E-02  0.9394626E-01
        -11   -1    0    0    0    0  0.00000000000E+00  0.00000000000E+00  0.50000000000E+03  0.50000000000E+03  0.00000000000E+00 0.  1.
         11   -1    0    0    0    0 -0.00000000000E+00 -0.00000000000E+00 -0.50000000000E+03  0.50000000000E+03  0.00000000000E+00 0. -1.
        -11    1    1    2    0    0  0.50431057600E+01 -0.54810838285E+01  0.19655662409E+03  0.19669769106E+03  0.00000000000E+00 0.  1.
         11    1    1    2    0    0  0.79970662056E+01 -0.15684020200E+02 -0.49736526574E+03  0.49767675164E+03  0.00000000000E+00 0. -1.
        -15    1    1    2    0    0  0.10596778138E+02  0.27279506643E+01  0.17406176868E+02  0.20636524511E+02  0.17770000000E+01 0.  1.
         15    1    1    2    0    0 -0.23636950104E+02  0.18437153364E+02  0.28340246479E+03  0.28498903279E+03  0.17770000000E+01 0. -1.
</event>
<event>
 6    1  0.1860328E-003  0.5256721E+03  0.7546771E-02  0.9344130E-01
        -11   -1    0    0    0    0  0.00000000000E+00  0.00000000000E+00  0.50000000000E+03  0.50000000000E+03  0.00000000000E+00 0.  1.
         11   -1    0    0    0    0 -0.00000000000E+00 -0.00000000000E+00 -0.50000000000E+03  0.50000000000E+03  0.00000000000E+00 0.  1.
        -11    1    1    2    0    0  0.40299373529E+01  0.36560058468E+01  0.27377277735E+03  0.27382684381E+03  0.00000000000E+00 0.  1.
         11    1    1    2    0    0 -0.62330290922E+01 -0.86681947492E+01 -0.47420774269E+03  0.47432791556E+03  0.00000000000E+00 0.  1.
        -15    1    1    2    0    0  0.26120755230E+02 -0.46244035027E+01 -0.17858078111E+02  0.32027295302E+02  0.17770000000E+01 0. -1.
         15    1    1    2    0    0 -0.23917663491E+02  0.96365924051E+01  0.21829304345E+03  0.21981794533E+03  0.17770000000E+01 0.  1.
</event>
<event>
 6    1  0.1860328E-003  0.5052722E+03  0.7546771E-02  0.9388089E-01
        -11   -1    0    0    0    0  0.00000000000E+00  0.00000000000E+00  0.50000000000E+03  0.50000000000E+03  0.00000000000E+00 0. -1.
         11   -1    0    0    0    0 -0.00000000000E+00 -0.00000000000E+00 -0.50000000000E+03  0.50000000000E+03  0.00000000000E+00 0. -1.
        -11    1    1    2    0    0  0.10399606293E+02  0.51880434894E+01  0.42739243009E+03  0.42755041446E+03  0.00000000000E+00 0. -1.
         11    1    1    2    0    0  0.14357518695E+02  0.15579504781E+02 -0.49427397866E+03  0.49472782951E+03  0.00000000000E+00 0. -1.
        -15    1    1    2    0    0 -0.17589153212E+02 -0.11610549615E+02  0.61013754034E+02  0.64575684924E+02  0.17770000000E+01 0. -1.
         15    1    1    2    0    0 -0.71679717758E+01 -0.91569986553E+01  0.58677945320E+01  0.13146071102E+02  0.17770000000E+01 0.  1.
</event>
<event>
 6    1  0.1860328E-003  0.5048780E+03  0.7546771E-02  0.9388961E-01
        -11   -1    0    0    0    0  0.00000000000E+00  0.00000000000E+00  0.50000000000E+03  0.50000000000E+03  0.00000000000E+00 0.  1.
         11   -1    0    0    0    0 -0.00000000000E+00 -0.00000000000E+00 -0.50000000000E+03  0.50000000000E+03  0.00000000000E+00 0.  1.
        -11    1    1    2    0    0  0.44773505209E+01 -0.63893685456E+01  0.46837157026E+03  0.46843654696E+03  0.00000000000E+00 0.  1.
         11    1    1    2    0    0 -0.11089212391E+02 -0.36136457789E+01 -0.49498461816E+03  0.49512200646E+03  0.00000000000E+00 0.  1.
        -15    1    1    2    0    0  0.70945726130E+01  0.11993281863E+02  0.53901400212E+01  0.15046032994E+02  0.17770000000E+01 0.  1.
         15    1    1    2    0    0 -0.48271074243E+00 -0.19902675381E+01  0.21222907877E+02  0.21395413580E+02  0.17770000000E+01 0. -1.
</event>
<event>
 6    1  0.1860328E-003  0.5022843E+03  0.7546771E-02  0.9394713E-01
        -11   -1    0    0    0    0  0.00000000000E+00  0.00000000000E+00  0.50000000000E+03  0.50000000000E+03  0.00000000000E+00 0. -1.
         11   -1    0    0    0    0 -0.00000000000E+00 -0.00000000000E+00 -0.50000000000E+03  0.50000000000E+03  0.00000000000E+00 0.  1.
        -11    1    1    2    0    0 -0.37038522097E+01 -0.80460027183E+01  0.49763689149E+03  0.49771571449E+03  0.00000000000E+00 0. -1.
         11    1    1    2    0    0  0.32556967673E+01  0.90428988113E+01 -0.31421798784E+03  0.31436494312E+03  0.00000000000E+00 0.  1.
        -15    1    1    2    0    0 -0.91859523257E+00 -0.68521371244E+01 -0.18109063044E+03  0.18123126045E+03  0.17770000000E+01 0. -1.
         15    1    1    2    0    0  0.13667506750E+01  0.58552410315E+01 -0.23282731989E+01  0.66880819397E+01  0.17770000000E+01 0.  1.
</event>
<event>
 6    1  0.1860328E-003  0.5055090E+03  0.7546771E-02  0.9387567E-01
        -11   -1    0    0    0    0  0.00000000000E+00  0.00000000000E+00  0.50000000000E+03  0.50000000000E+03  0.00000000000E+00 0.  1.
         11   -1    0    0    0    0 -0.00000000000E+00 -0.00000000000E+00 -0.50000000000E+03  0.50000000000E+03  0.00000000000E+00 0. -1.
        -11    1    1    2    0    0 -0.13464407010E+02 -0.47702028218E+01  0.49428463833E+03  0.49449099970E+03  0.00000000000E+00 0.  1.
         11    1    1    2    0    0  0.11750182898E+02 -0.12520247614E+01 -0.43503951869E+03  0.43519997379E+03  0.00000000000E+00 0. -1.
        -15    1    1    2    0    0  0.10240709093E+02  0.11770830797E+02 -0.72835790624E+01  0.17309905642E+02  0.17770000000E+01 0.  1.
         15    1    1    2    0    0 -0.85264849799E+01 -0.57486032141E+01 -0.51961540578E+02  0.52999120873E+02  0.17770000000E+01 0. -1.
</event>
<event>
 6    1  0.1860328E-003  0.5000926E+03  0.7546771E-02  0.9399603E-01
        -11   -1    0    0    0    0  0.00000000000E+00  0.00000000000E+00  0.50000000000E+03  0.50000000000E+03  0.00000000000E+00 0. -1.
         11   -1    0    0    0    0 -0.00000000000E+00 -0.00000000000E+00 -0.50000000000E+03  0.50000000000E+03  0.00000000000E+00 0. -1.
        -11    1    1    2    0    0 -0.72764204426E+01  0.12534615089E+01  0.49985290563E+03  0.49990743616E+03  0.00000000000E+00 0. -1.
         11    1    1    2    0    0  0.43013613591E+01 -0.10490072329E+01 -0.27792879887E+03  0.27796406128E+03  0.00000000000E+00 0. -1.
        -15    1    1    2    0    0  0.50094309842E+01  0.75083335037E+00 -0.19007399525E+03  0.19014978188E+03  0.17770000000E+01 0. -1.
         15    1    1    2    0    0 -0.20343719007E+01 -0.95528762638E+00 -0.31850111514E+02  0.31978720674E+02  0.17770000000E+01 0. -1.
</event>
<event>
 6    1  0.1860328E-003  0.5008479E+03  0.7546771E-02  0.9397914E-01
        -11   -1    0    0    0    0  0.00000000000E+00  0.00000000000E+00  0.50000000000E+03  0.50000000000E+03  0.00000000000E+00 0. -1.
         11   -1    0    0    0    0 -0.00000000000E+00 -0.00000000000E+00 -0.50000000000E+03  0.50000000000E+03  0.00000000000E+00 0.  1.
        -11    1    1    2    0    0 -0.94192412527E+01  0.81034480034E+01  0.49899739232E+03  0.49915206653E+03  0.00000000000E+00 0. -1.
         11    1    1    2    0    0 -0.34461949692E+01  0.58002406842E+00 -0.25088025178E+03  0.25090459028E+03  0.00000000000E+00 0.  1.
        -15    1    1    2    0    0 -0.59636965965E+01  0.38714348189E+01 -0.71048923851E+02  0.71425912623E+02  0.17770000000E+01 0. -1.
         15    1    1    2    0    0  0.18829132818E+02 -0.12554906891E+02 -0.17706821669E+03  0.17851743058E+03  0.17770000000E+01 0.  1.
</event>
<event>
 6    1  0.1860328E-003  0.5078667E+03  0.7546771E-02  0.9382377E-01
        -11   -1    0    0    0    0  0.00000000000E+00  0.00000000000E+00  0.50000000000E+03  0.50000000000E+03  0.00000000000E+00 0. -1.
         11   -1    0    0    0    0 -0.00000000000E+00 -0.00000000000E+00 -0.50000000000E+03  0.50000000000E+03  0.00000000000E+00 0.  1.
        -11    1    1    2    0    0 -0.74358884543E+01  0.14881857855E+01  0.49207489800E+03  0.49213332785E+03  0.00000000000E+00 0. -1.
         11    1    1    2    0    0  0.10994583855E+02 -0.62117929739E+00 -0.45819970860E+03  0.45833201906E+03  0.00000000000E+00 0.  1.
        -15    1    1    2    0    0  0.11187970133E+02 -0.10037612975E+02 -0.52755621696E+01  0.16028525669E+02  0.17770000000E+01 0.  1.
         15    1    1    2    0    0 -0.14746665533E+02  0.91706064865E+01 -0.28599627234E+02  0.33506127419E+02  0.17770000000E+01 0. -1.
</event>
<event>
 6    1  0.1860328E-003  0.5022527E+03  0.7546771E-02  0.9394783E-01
        -11   -1    0    0    0    0  0.00000000000E+00  0.00000000000E+00  0.50000000000E+03  0.50000000000E+03  0.00000000000E+00 0. -1.
         11   -1    0    0    0    0 -0.00000000000E+00 -0.00000000000E+00 -0.50000000000E+03  0.50000000000E+03  0.00000000000E+00 0. -1.
        -11    1    1    2    0    0 -0.10704307283E+02  0.35215378693E+01  0.49761969942E+03  0.49774727389E+03  0.00000000000E+00 0. -1.
         11    1    1    2    0    0  0.11177760906E+01 -0.52345507717E+01 -0.37742280434E+03  0.37746075714E+03  0.00000000000E+00 0. -1.
        -15    1    1    2    0    0  0.31349479096E+01  0.37746285331E+01 -0.11696247735E+03  0.11707883906E+03  0.17770000000E+01 0. -1.
         15    1    1    2    0    0  0.64515832831E+01 -0.20616156307E+01 -0.32344177224E+01  0.77131299011E+01  0.17770000000E+01 0.  1.
</event>
<event>
 6    1  0.2712741E-003  0.4533492E+03  0.7546771E-02  0.9510706E-01
        -11   -1    0    0    0    0  0.00000000000E+00  0.00000000000E+00  0.50000000000E+03  0.50000000000E+03  0.00000000000E+00 0. -1.
         11   -1    0    0    0    0 -0.00000000000E+00 -0.00000000000E+00 -0.50000000000E+03  0.50000000000E+03  0.00000000000E+00 0. -1.
        -11    1    1    2    0    0  0.29303694114E+02 -0.54305134876E+00  0.46211287143E+03  0.46304136677E+03  0.00000000000E+00 0. -1.
         11    1    1    2    0    0  0.35525972052E+01 -0.50201981998E+01 -0.44439944577E+03  0.44444199930E+03  0.00000000000E+00 0. -1.
        -15    1    1    2    0    0 -0.55236675290E+01 -0.20896544189E+01 -0.49489659767E+02  0.49872454436E+02  0.17770000000E+01 0. -1.
         15    1    1    2    0    0 -0.27332623790E+02  0.76529039675E+01  0.31776234104E+02  0.42644179500E+02  0.17770000000E+01 0.  1.
</event>
<event>
 6    1  0.1860328E-003  0.5034377E+03  0.7546771E-02  0.9392150E-01
        -11   -1    0    0    0    0  0.00000000000E+00  0.00000000000E+00  0.50000000000E+03  0.50000000000E+03  0.00000000000E+00 0.  1.
         11   -1    0    0    0    0 -0.00000000000E+00 -0.00000000000E+00 -0.50000000000E+03  0.50000000000E+03  0.00000000000E+00 0. -1.
        -11    1    1    2    0    0 -0.19806028127E+01 -0.15810293379E+02  0.41652132829E+03  0.41682598898E+03  0.00000000000E+00 0.  1.
         11    1    1    2    0    0  0.12203266538E+02  0.48881091801E+01 -0.49638825928E+03  0.49656229949E+03  0.00000000000E+00 0. -1.
        -15    1    1    2    0    0 -0.77216345357E+01 -0.41192344048E+01  0.63679928631E+02  0.64303054138E+02  0.17770000000E+01 0.  1.
         15    1    1    2    0    0 -0.25010291901E+01  0.15041418604E+02  0.16187002355E+02  0.22308657397E+02  0.17770000000E+01 0. -1.
</event>
<event>
 6    1  0.1860328E-003  0.5008773E+03  0.7546771E-02  0.9397849E-01
        -11   -1    0    0    0    0  0.00000000000E+00  0.00000000000E+00  0.50000000000E+03  0.50000000000E+03  0.00000000000E+00 0. -1.
         11   -1    0    0    0    0 -0.00000000000E+00 -0.00000000000E+00 -0.50000000000E+03  0.50000000000E+03  0.00000000000E+00 0. -1.
        -11    1    1    2    0    0 -0.19766234850E+01 -0.47007751679E+01  0.28605742836E+03  0.28610287773E+03  0.00000000000E+00 0. -1.
         11    1    1    2    0    0  0.11406269221E+02  0.69974986488E+00 -0.49899183169E+03  0.49912267102E+03  0.00000000000E+00 0. -1.
        -15    1    1    2    0    0 -0.48901876020E+01 -0.94159450225E+01  0.14264684427E+03  0.14305192716E+03  0.17770000000E+01 0. -1.
         15    1    1    2    0    0 -0.45394581336E+01  0.13416970325E+02  0.70287559067E+02  0.71722524087E+02  0.17770000000E+01 0.  1.
</event>
<event>
 6    1  0.1860328E-003  0.5026427E+03  0.7546771E-02  0.9393916E-01
        -11   -1    0    0    0    0  0.00000000000E+00  0.00000000000E+00  0.50000000000E+03  0.50000000000E+03  0.00000000000E+00 0. -1.
         11   -1    0    0    0    0 -0.00000000000E+00 -0.00000000000E+00 -0.50000000000E+03  0.50000000000E+03  0.00000000000E+00 0.  1.
        -11    1    1    2    0    0  0.17118542086E+01 -0.88176834513E+01  0.46336680823E+03  0.46345386065E+03  0.00000000000E+00 0. -1.
         11    1    1    2    0    0 -0.64138717543E+01 -0.69277714329E+01 -0.49726773316E+03  0.49735734659E+03  0.00000000000E+00 0.  1.
        -15    1    1    2    0    0  0.27681697641E+01  0.47531369960E+01  0.22122440726E+02  0.22865152259E+02  0.17770000000E+01 0. -1.
         15    1    1    2    0    0  0.19338477816E+01  0.10992317888E+02  0.11778484207E+02  0.16323640495E+02  0.17770000000E+01 0.  1.
</event>
<event>
 6    1  0.1860328E-003  0.5071080E+03  0.7546771E-02  0.9384044E-01
        -11   -1    0    0    0    0  0.00000000000E+00  0.00000000000E+00  0.50000000000E+03  0.50000000000E+03  0.00000000000E+00 0.  1.
         11   -1    0    0    0    0 -0.00000000000E+00 -0.00000000000E+00 -0.50000000000E+03  0.50000000000E+03  0.00000000000E+00 0.  1.
        -11    1    1    2    0    0 -0.41711541681E+01  0.14424504027E+02  0.49266327608E+03  0.49289204542E+03  0.00000000000E+00 0.  1.
         11    1    1    2    0    0  0.12184178432E+02  0.73502480869E+00 -0.46932011618E+03  0.46947882371E+03  0.00000000000E+00 0.  1.
        -15    1    1    2    0    0 -0.13171136045E+02 -0.51181018535E+01 -0.21881755318E+02  0.26108288648E+02  0.17770000000E+01 0. -1.
         15    1    1    2    0    0  0.51581117813E+01 -0.10041426982E+02 -0.14614045866E+01  0.11520842216E+02  0.17770000000E+01 0.  1.
</event>
<event>
 6    1  0.1860328E-003  0.5005060E+03  0.7546771E-02  0.9398678E-01
        -11   -1    0    0    0    0  0.00000000000E+00  0.00000000000E+00  0.50000000000E+03  0.50000000000E+03  0.00000000000E+00 0. -1.
         11   -1    0    0    0    0 -0.00000000000E+00 -0.00000000000E+00 -0.50000000000E+03  0.50000000000E+03  0.00000000000E+00 0.  1.
        -11    1    1    2    0    0 -0.20443805029E+01  0.46107236973E+00  0.89863393117E+02  0.89887827329E+02  0.00000000000E+00 0. -1.
         11    1    1    2    0    0 -0.11658802411E+01 -0.95464854019E+01 -0.49940140888E+03  0.49949400582E+03  0.00000000000E+00 0.  1.
        -15    1    1    2    0    0 -0.10431016336E+02  0.72751944181E+01  0.10793600330E+03  0.10869716230E+03  0.17770000000E+01 0.  1.
         15    1    1    2    0    0  0.13641277080E+02  0.18102186141E+01  0.30160201247E+03  0.30192100455E+03  0.17770000000E+01 0. -1.
</event>
<event>
 6    1  0.1860328E-003  0.5458978E+03  0.7546771E-02  0.9302588E-01
        -11   -1    0    0    0    0  0.00000000000E+00  0.00000000000E+00  0.50000000000E+03  0.50000000000E+03  0.00000000000E+00 0. -1.
         11   -1    0    0    0    0 -0.00000000000E+00 -0.00000000000E+00 -0.50000000000E+03  0.50000000000E+03  0.00000000000E+00 0.  1.
        -11    1    1    2    0    0  0.84640883396E+01 -0.62417333005E+01  0.45398038455E+03  0.45410217967E+03  0.00000000000E+00 0. -1.
         11    1    1    2    0    0  0.80219763893E+01 -0.16815718992E+01 -0.42049742821E+03  0.42057730195E+03  0.00000000000E+00 0.  1.
        -15    1    1    2    0    0 -0.34455199017E+02  0.56335918064E+02 -0.48299301444E+01  0.66237318467E+02  0.17770000000E+01 0. -1.
         15    1    1    2    0    0  0.17969134288E+02 -0.48412612865E+02 -0.28653026200E+02  0.59083199904E+02  0.17770000000E+01 0.  1.
</event>
<event>
 6    1  0.1860328E-003  0.5031121E+03  0.7546771E-02  0.9392873E-01
        -11   -1    0    0    0    0  0.00000000000E+00  0.00000000000E+00  0.50000000000E+03  0.50000000000E+03  0.00000000000E+00 0. -1.
         11   -1    0    0    0    0 -0.00000000000E+00 -0.00000000000E+00 -0.50000000000E+03  0.50000000000E+03  0.00000000000E+00 0. -1.
        -11    1    1    2    0    0 -0.10853707796E+02  0.23017358958E+01  0.49676404251E+03  0.49688792992E+03  0.00000000000E+00 0. -1.
         11    1    1    2    0    0  0.71512167741E+01 -0.29519835786E+01 -0.45798213700E+03  0.45804747780E+03  0.00000000000E+00 0. -1.
        -15    1    1    2    0    0  0.68381660114E+01  0.15198433171E+01 -0.40384070401E+02  0.41025617719E+02  0.17770000000E+01 0. -1.
         15    1    1    2    0    0 -0.31356749896E+01 -0.86959563431E+00  0.16021648859E+01  0.40389745640E+01  0.17770000000E+01 0.  1.
</event>
<event>
 6    1  0.1860328E-003  0.5007596E+03  0.7546771E-02  0.9398112E-01
        -11   -1    0    0    0    0  0.00000000000E+00  0.00000000000E+00  0.50000000000E+03  0.50000000000E+03  0.00000000000E+00 0.  1.
         11   -1    0    0    0    0 -0.00000000000E+00 -0.00000000000E+00 -0.50000000000E+03  0.50000000000E+03  0.00000000000E+00 0.  1.
        -11    1    1    2    0    0  0.24950621275E+01  0.51785038592E+00  0.92955448234E+02  0.92990369719E+02  0.00000000000E+00 0.  1.
         11    1    1    2    0    0  0.20775532229E+01  0.92056383116E+01 -0.49915121497E+03  0.49924041845E+03  0.00000000000E+00 0.  1.
        -15    1    1    2    0    0 -0.50552992505E+01  0.22388483026E+01  0.35897641333E+03  0.35902338580E+03  0.17770000000E+01 0. -1.
         15    1    1    2    0    0  0.48268390010E+00 -0.11962337000E+02  0.47219353410E+02  0.48745826034E+02  0.17770000000E+01 0.  1.
</event>
<event>
 6    1  0.1860328E-003  0.5036319E+03  0.7546771E-02  0.9391720E-01
        -11   -1    0    0    0    0  0.00000000000E+00  0.00000000000E+00  0.50000000000E+03  0.50000000000E+03  0.00000000000E+00 0. -1.
         11   -1    0    0    0    0 -0.00000000000E+00 -0.00000000000E+00 -0.50000000000E+03  0.50000000000E+03  0.00000000000E+00 0. -1.
        -11    1    1    2    0    0  0.51452191920E+01 -0.49854569089E+01  0.48972057335E+03  0.48977297600E+03  0.00000000000E+00 0. -1.
         11    1    1    2    0    0 -0.90702555570E+01 -0.11409703025E+01 -0.49628394693E+03  0.49636813690E+03  0.00000000000E+00 0. -1.
        -15    1    1    2    0    0 -0.59191418879E+00  0.56348146402E+01  0.67328092186E+01  0.89771903962E+01  0.17770000000E+01 0.  1.
         15    1    1    2    0    0  0.45169505537E+01  0.49161257115E+00 -0.16943563538E+00  0.48816966989E+01  0.17770000000E+01 0. -1.
</event>
<event>
 6    1  0.1860328E-003  0.5006336E+03  0.7546771E-02  0.9398393E-01
        -11   -1    0    0    0    0  0.00000000000E+00  0.00000000000E+00  0.50000000000E+03  0.50000000000E+03  0.00000000000E+00 0.  1.
         11   -1    0    0    0    0 -0.00000000000E+00 -0.00000000000E+00 -0.50000000000E+03  0.50000000000E+03  0.00000000000E+00 0. -1.
        -11    1    1    2    0    0 -0.72585794236E+00 -0.90250323653E+01  0.49928427813E+03  0.49936636697E+03  0.00000000000E+00 0.  1.
         11    1    1    2    0    0 -0.33736821271E+01  0.33550247114E+01 -0.11117538024E+03  0.11127714542E+03  0.00000000000E+00 0. -1.
        -15    1    1    2    0    0 -0.56563619566E+00  0.14690271565E+02 -0.10276708620E+03  0.10382849203E+03  0.17770000000E+01 0. -1.
         15    1    1    2    0    0  0.46651762651E+01 -0.90202639112E+01 -0.28534181169E+03  0.28552799557E+03  0.17770000000E+01 0.  1.
</event>
<event>
 6    1  0.1860328E-003  0.5009150E+03  0.7546771E-02  0.9397765E-01
        -11   -1    0    0    0    0  0.00000000000E+00  0.00000000000E+00  0.50000000000E+03  0.50000000000E+03  0.00000000000E+00 0.  1.
         11   -1    0    0    0    0 -0.00000000000E+00 -0.00000000000E+00 -0.50000000000E+03  0.50000000000E+03  0.00000000000E+00 0.  1.
        -11    1    1    2    0    0  0.92347831479E+01  0.61531776914E+01  0.49896158798E+03  0.49908497182E+03  0.00000000000E+00 0.  1.
         11    1    1    2    0    0 -0.47651703616E+01  0.31348811510E+00 -0.13406017470E+03  0.13414520329E+03  0.00000000000E+00 0.  1.
        -15    1    1    2    0    0 -0.30549098006E+00 -0.14339487945E+02 -0.59380376174E+02  0.61113836754E+02  0.17770000000E+01 0. -1.
         15    1    1    2    0    0 -0.41641218062E+01  0.78728221382E+01 -0.30552103711E+03  0.30565598813E+03  0.17770000000E+01 0.  1.
</event>
<event>
 6    1  0.1860328E-003  0.5073450E+03  0.7546771E-02  0.9383523E-01
        -11   -1    0    0    0    0  0.00000000000E+00  0.00000000000E+00  0.50000000000E+03  0.50000000000E+03  0.00000000000E+00 0. -1.
         11   -1    0    0    0    0 -0.00000000000E+00 -0.00000000000E+00 -0.50000000000E+03  0.50000000000E+03  0.00000000000E+00 0.  1.
        -11    1    1    2    0    0 -0.71739311141E+01  0.96145284946E+00  0.46660979311E+03  0.46666592838E+03  0.00000000000E+00 0. -1.
         11    1    1    2    0    0 -0.13335548680E+02 -0.32837866313E+01 -0.49246351214E+03  0.49265498160E+03  0.00000000000E+00 0.  1.
        -15    1    1    2    0    0  0.84774780369E+01  0.35833779050E+01  0.26822316731E+02  0.28413071549E+02  0.17770000000E+01 0.  1.
         15    1    1    2    0    0  0.12032001757E+02 -0.12610441232E+01 -0.96859770958E+00  0.12266018469E+02  0.17770000000E+01 0. -1.
</event>
<event>
 6    1  0.1860328E-003  0.5149502E+03  0.7546771E-02  0.9366965E-01
        -11   -1    0    0    0    0  0.00000000000E+00  0.00000000000E+00  0.50000000000E+03  0.50000000000E+03  0.00000000000E+00 0. -1.
         11   -1    0    0    0    0 -0.00000000000E+00 -0.00000000000E+00 -0.50000000000E+03  0.50000000000E+03  0.00000000000E+00 0. -1.
        -11    1    1    2    0    0 -0.77815458720E+01  0.12884539326E+01  0.46695342048E+03  0.46702003112E+03  0.00000000000E+00 0. -1.
         11    1    1    2    0    0  0.13511213044E+02  0.13817699928E+02 -0.48466461666E+03  0.48504976276E+03  0.00000000000E+00 0. -1.
        -15    1    1    2    0    0  0.65677433526E+01 -0.74934288355E+01  0.28209597613E+02  0.29970416329E+02  0.17770000000E+01 0. -1.
         15    1    1    2    0    0 -0.12297410524E+02 -0.76127250246E+01 -0.10498401425E+02  0.17959789792E+02  0.17770000000E+01 0.  1.
</event>
<event>
 6    1  0.1860328E-003  0.5066416E+03  0.7546771E-02  0.9385070E-01
        -11   -1    0    0    0    0  0.00000000000E+00  0.00000000000E+00  0.50000000000E+03  0.50000000000E+03  0.00000000000E+00 0. -1.
         11   -1    0    0    0    0 -0.00000000000E+00 -0.00000000000E+00 -0.50000000000E+03  0.50000000000E+03  0.00000000000E+00 0.  1.
        -11    1    1    2    0    0 -0.97284049783E+01 -0.40372996058E+01  0.49324590291E+03  0.49335835088E+03  0.00000000000E+00 0. -1.
         11    1    1    2    0    0  0.11411815409E+02  0.26741129977E+01 -0.49136046473E+03  0.49150024081E+03  0.00000000000E+00 0.  1.
        -15    1    1    2    0    0 -0.56566993117E+01 -0.28823146883E+01 -0.50334940011E+01  0.82945630339E+01  0.17770000000E+01 0.  1.
         15    1    1    2    0    0  0.39732888805E+01  0.42455012965E+01  0.31480558254E+01  0.68468452784E+01  0.17770000000E+01 0. -1.
</event>
<event>
 6    1  0.1860328E-003  0.5062366E+03  0.7546771E-02  0.9385962E-01
        -11   -1    0    0    0    0  0.00000000000E+00  0.00000000000E+00  0.50000000000E+03  0.50000000000E+03  0.00000000000E+00 0.  1.
         11   -1    0    0    0    0 -0.00000000000E+00 -0.00000000000E+00 -0.50000000000E+03  0.50000000000E+03  0.00000000000E+00 0. -1.
        -11    1    1    2    0    0 -0.27331943100E+02 -0.10664429321E+02  0.49289099151E+03  0.49376339949E+03  0.00000000000E+00 0.  1.
         11    1    1    2    0    0  0.25111507240E+01  0.47563892143E+01 -0.35835533806E+03  0.35839569951E+03  0.00000000000E+00 0. -1.
        -15    1    1    2    0    0  0.28535430616E+02  0.75558446915E+01 -0.26482859148E+02  0.39697117617E+02  0.17770000000E+01 0. -1.
         15    1    1    2    0    0 -0.37146382396E+01 -0.16478045845E+01 -0.10805279430E+03  0.10814378338E+03  0.17770000000E+01 0.  1.
</event>
<event>
 6    1  0.1860328E-003  0.5025020E+03  0.7546771E-02  0.9394229E-01
        -11   -1    0    0    0    0  0.00000000000E+00  0.00000000000E+00  0.50000000000E+03  0.50000000000E+03  0.00000000000E+00 0.  1.
         11   -1    0    0    0    0 -0.00000000000E+00 -0.00000000000E+00 -0.50000000000E+03  0.50000000000E+03  0.00000000000E+00 0. -1.
        -11    1    1    2    0    0 -0.23301383993E+02  0.28158389085E+02  0.49615365144E+03  0.49749803538E+03  0.00000000000E+00 0.  1.
         11    1    1    2    0    0 -0.55807794816E+01  0.48288764318E+01 -0.22428662162E+03  0.22440800294E+03  0.00000000000E+00 0. -1.
        -15    1    1    2    0    0 -0.53626936158E+01 -0.80083632768E+01 -0.16221724309E+02  0.18952425537E+02  0.17770000000E+01 0.  1.
         15    1    1    2    0    0  0.34244857090E+02 -0.24978902240E+02 -0.25564530551E+03  0.25914153614E+03  0.17770000000E+01 0. -1.
</event>
<event>
 6    1  0.1860328E-003  0.5711258E+03  0.7546771E-02  0.9253369E-01
        -11   -1    0    0    0    0  0.00000000000E+00  0.00000000000E+00  0.50000000000E+03  0.50000000000E+03  0.00000000000E+00 0. -1.
         11   -1    0    0    0    0 -0.00000000000E+00 -0.00000000000E+00 -0.50000000000E+03  0.50000000000E+03  0.00000000000E+00 0.  1.
        -11    1    1    2    0    0  0.13887019962E+02  0.87495964826E+01  0.41393613587E+03  0.41426142632E+03  0.00000000000E+00 0. -1.
         11    1    1    2    0    0  0.57854078909E+01 -0.95621263110E+00 -0.42883412922E+03  0.42887421894E+03  0.00000000000E+00 0.  1.
        -15    1    1    2    0    0 -0.10184280769E+02 -0.38935192126E+02  0.76899989470E+02  0.86812642341E+02  0.17770000000E+01 0. -1.
         15    1    1    2    0    0 -0.94881470840E+01  0.31141808274E+02 -0.62001996116E+02  0.70051712392E+02  0.17770000000E+01 0.  1.
</event>
<event>
 6    1  0.1860328E-003  0.5000493E+03  0.7546771E-02  0.9399699E-01
        -11   -1    0    0    0    0  0.00000000000E+00  0.00000000000E+00  0.50000000000E+03  0.50000000000E+03  0.00000000000E+00 0. -1.
         11   -1    0    0    0    0 -0.00000000000E+00 -0.00000000000E+00 -0.50000000000E+03  0.50000000000E+03  0.00000000000E+00 0.  1.
        -11    1    1    2    0    0  0.13475586628E+01  0.73637709994E+00  0.98745440219E+02  0.98757380127E+02  0.00000000000E+00 0. -1.
         11    1    1    2    0    0 -0.27003950712E+01  0.66609029351E+01 -0.49989905731E+03  0.49995072483E+03  0.00000000000E+00 0.  1.
        -15    1    1    2    0    0 -0.16409163240E+01 -0.10295504032E+00  0.10590757436E+03  0.10593524079E+03  0.17770000000E+01 0.  1.
         15    1    1    2    0    0  0.29937527324E+01 -0.72943249947E+01  0.29524604273E+03  0.29535665425E+03  0.17770000000E+01 0. -1.
</event>
<event>
 6    1  0.1860328E-003  0.5290812E+03  0.7546771E-02  0.9336991E-01
        -11   -1    0    0    0    0  0.00000000000E+00  0.00000000000E+00  0.50000000000E+03  0.50000000000E+03  0.00000000000E+00 0. -1.
         11   -1    0    0    0    0 -0.00000000000E+00 -0.00000000000E+00 -0.50000000000E+03  0.50000000000E+03  0.00000000000E+00 0. -1.
        -11    1    1    2    0    0 -0.18416098352E+02  0.37259708312E+02  0.42366722069E+03  0.42570101296E+03  0.00000000000E+00 0. -1.
         11    1    1    2    0    0  0.55134350757E+01 -0.59137205291E+01 -0.47084943609E+03  0.47091884813E+03  0.00000000000E+00 0. -1.
        -15    1    1    2    0    0 -0.10056998037E+02 -0.28832027788E+02  0.66512906053E+02  0.73208971011E+02  0.17770000000E+01 0.  1.
         15    1    1    2    0    0  0.22959661313E+02 -0.25139599944E+01 -0.19330690656E+02  0.30171167904E+02  0.17770000000E+01 0. -1.
</event>
<event>
 6    1  0.1860328E-003  0.5261047E+03  0.7546771E-02  0.9343221E-01
        -11   -1    0    0    0    0  0.00000000000E+00  0.00000000000E+00  0.50000000000E+03  0.50000000000E+03  0.00000000000E+00 0. -1.
         11   -1    0    0    0    0 -0.00000000000E+00 -0.00000000000E+00 -0.50000000000E+03  0.50000000000E+03  0.00000000000E+00 0.  1.
        -11    1    1    2    0    0 -0.22193706400E+01  0.80428695059E+01  0.46077849776E+03  0.46085403042E+03  0.00000000000E+00 0. -1.
         11    1    1    2    0    0  0.16169436471E+02  0.54746372082E+01 -0.47358776325E+03  0.47389533848E+03  0.00000000000E+00 0.  1.
        -15    1    1    2    0    0 -0.18064869401E+02 -0.95427709120E+01 -0.21914759429E+02  0.30013636784E+02  0.17770000000E+01 0.  1.
         15    1    1    2    0    0  0.41148035694E+01 -0.39747358021E+01  0.34724024919E+02  0.35236994319E+02  0.17770000000E+01 0. -1.
</event>
<event>
 6    1  0.1860328E-003  0.5000935E+03  0.7546771E-02  0.9399600E-01
        -11   -1    0    0    0    0  0.00000000000E+00  0.00000000000E+00  0.50000000000E+03  0.50000000000E+03  0.00000000000E+00 0.  1.
         11   -1    0    0    0    0 -0.00000000000E+00 -0.00000000000E+00 -0.50000000000E+03  0.50000000000E+03  0.00000000000E+00 0.  1.
        -11    1    1    2    0    0  0.31207619591E+01  0.16311244729E+01  0.96248174896E+02  0.96312568718E+02  0.00000000000E+00 0.  1.
         11    1    1    2    0    0  0.58310626538E+01 -0.50291922989E+01 -0.49984717875E+03  0.49990648742E+03  0.00000000000E+00 0.  1.
        -15    1    1    2    0    0 -0.51147329567E+01 -0.15228480941E+01  0.19433970941E+03  0.19442108924E+03  0.17770000000E+01 0.  1.
         15    1    1    2    0    0 -0.38370916562E+01  0.49209159202E+01  0.20925929444E+03  0.20935985462E+03  0.17770000000E+01 0. -1.
</event>
<event>
 6    1  0.1860328E-003  0.5026567E+03  0.7546771E-02  0.9393885E-01
        -11   -1    0    0    0    0  0.00000000000E+00  0.00000000000E+00  0.50000000000E+03  0.50000000000E+03  0.00000000000E+00 0.  1.
         11   -1    0    0    0    0 -0.00000000000E+00 -0.00000000000E+00 -0.50000000000E+03  0.50000000000E+03  0.00000000000E+00 0.  1.
        -11    1    1    2    0    0  0.10194821693E+02 -0.87535329122E+01  0.25610922171E+03  0.25646148283E+03  0.00000000000E+00 0.  1.
         11    1    1    2    0    0 -0.13791618060E+02  0.22755232647E+02 -0.49663097026E+03  0.49734327176E+03  0.00000000000E+00 0.  1.
        -15    1    1    2    0    0  0.98741265904E+01  0.11423901930E+02  0.17428436598E+03  0.17494628280E+03  0.17770000000E+01 0.  1.
         15    1    1    2    0    0 -0.62773302233E+01 -0.25425601664E+02  0.66237382567E+02  0.71248962610E+02  0.17770000000E+01 0. -1.
</event>
<event>
 6    1  0.1860328E-003  0.5005902E+03  0.7546771E-02  0.9398490E-01
        -11   -1    0    0    0    0  0.00000000000E+00  0.00000000000E+00  0.50000000000E+03  0.50000000000E+03  0.00000000000E+00 0.  1.
         11   -1    0    0    0    0 -0.00000000000E+00 -0.00000000000E+00 -0.50000000000E+03  0.50000000000E+03  0.00000000000E+00 0.  1.
        -11    1    1    2    0    0 -0.21096016265E+01  0.15174509711E+02  0.49917476888E+03  0.49940981773E+03  0.00000000000E+00 0.  1.
         11    1    1    2    0    0  0.34007006213E+01  0.55736618671E+01 -0.20143333060E+03  0.20153912063E+03  0.00000000000E+00 0.  1.
        -15    1    1    2    0    0 -0.12955254946E+01 -0.16762004684E+02 -0.28640554739E+03  0.28690405799E+03  0.17770000000E+01 0. -1.
         15    1    1    2    0    0  0.44264997747E-02 -0.39861668934E+01 -0.11335890893E+02  0.12147003640E+02  0.17770000000E+01 0.  1.
</event>
<event>
 6    1  0.1860328E-003  0.5095351E+03  0.7546771E-02  0.9378723E-01
        -11   -1    0    0    0    0  0.00000000000E+00  0.00000000000E+00  0.50000000000E+03  0.50000000000E+03  0.00000000000E+00 0. -1.
         11   -1    0    0    0    0 -0.00000000000E+00 -0.00000000000E+00 -0.50000000000E+03  0.50000000000E+03  0.00000000000E+00 0. -1.
        -11    1    1    2    0    0 -0.96202088365E+01 -0.35263652975E+01  0.49035790137E+03  0.49046493769E+03  0.00000000000E+00 0. -1.
         11    1    1    2    0    0 -0.45600777534E+01  0.46663853267E+01 -0.47867663628E+03  0.47872109999E+03  0.00000000000E+00 0. -1.
        -15    1    1    2    0    0  0.12731413386E+02  0.56589414027E+01 -0.16875746080E+02  0.21955888490E+02  0.17770000000E+01 0.  1.
         15    1    1    2    0    0  0.14488732035E+01 -0.67989614319E+01  0.51944809881E+01  0.88580738227E+01  0.17770000000E+01 0. -1.
</event>
<event>
 6    1  0.1860328E-003  0.5023016E+03  0.7546771E-02  0.9394674E-01
        -11   -1    0    0    0    0  0.00000000000E+00  0.00000000000E+00  0.50000000000E+03  0.50000000000E+03  0.00000000000E+00 0. -1.
         11   -1    0    0    0    0 -0.00000000000E+00 -0.00000000000E+00 -0.50000000000E+03  0.50000000000E+03  0.00000000000E+00 0. -1.
        -11    1    1    2    0    0 -0.48689489965E+01 -0.79914575606E+01  0.34144050908E+03  0.34156872119E+03  0.00000000000E+00 0. -1.
         11    1    1    2    0    0  0.13177556983E+01  0.86846678745E+01 -0.49762087671E+03  0.49769839951E+03  0.00000000000E+00 0. -1.
        -15    1    1    2    0    0 -0.91463349997E+01 -0.10335496984E+02  0.25311295890E+02  0.28884206246E+02  0.17770000000E+01 0.  1.
         15    1    1    2    0    0  0.12697528298E+02  0.96422866696E+01  0.13086907175E+03  0.13184867305E+03  0.17770000000E+01 0. -1.
</event>
<event>
 6    1  0.1860328E-003  0.5053989E+03  0.7546771E-02  0.9387810E-01
        -11   -1    0    0    0    0  0.00000000000E+00  0.00000000000E+00  0.50000000000E+03  0.50000000000E+03  0.00000000000E+00 0.  1.
         11   -1    0    0    0    0 -0.00000000000E+00 -0.00000000000E+00 -0.50000000000E+03  0.50000000000E+03  0.00000000000E+00 0. -1.
        -11    1    1    2    0    0 -0.16986272385E+02 -0.19370311021E+02  0.44622898743E+03  0.44697209266E+03  0.00000000000E+00 0.  1.
         11    1    1    2    0    0  0.12180972211E+01  0.93102128079E+01 -0.49451192475E+03  0.49460105898E+03  0.00000000000E+00 0. -1.
        -15    1    1    2    0    0  0.47195063635E+01 -0.59939999722E+01  0.18647607116E+01  0.80521324811E+01  0.17770000000E+01 0. -1.
         15    1    1    2    0    0  0.11048668801E+02  0.16054098185E+02  0.46418176611E+02  0.50374715877E+02  0.17770000000E+01 0.  1.
</event>
<event>
 6    1  0.1860328E-003  0.5006683E+03  0.7546771E-02  0.9398316E-01
        -11   -1    0    0    0    0  0.00000000000E+00  0.00000000000E+00  0.50000000000E+03  0.50000000000E+03  0.00000000000E+00 0. -1.
         11   -1    0    0    0    0 -0.00000000000E+00 -0.00000000000E+00 -0.50000000000E+03  0.50000000000E+03  0.00000000000E+00 0.  1.
        -11    1    1    2    0    0  0.89220473599E+01 -0.11463745629E+02  0.49912040001E+03  0.49933174754E+03  0.00000000000E+00 0. -1.
         11    1    1    2    0    0  0.11252057756E+01  0.26306561379E+01 -0.15240539230E+03  0.15243224738E+03  0.00000000000E+00 0.  1.
        -15    1    1    2    0    0 -0.53670127414E+01 -0.50146570562E+01 -0.27083888203E+03  0.27094429198E+03  0.17770000000E+01 0.  1.
         15    1    1    2    0    0 -0.46802403940E+01  0.13847746548E+02 -0.75876125694E+02  0.77291713100E+02  0.17770000000E+01 0. -1.
</event>
<event>
 6    1  0.1860328E-003  0.5002813E+03  0.7546771E-02  0.9399180E-01
        -11   -1    0    0    0    0  0.00000000000E+00  0.00000000000E+00  0.50000000000E+03  0.50000000000E+03  0.00000000000E+00 0.  1.
         11   -1    0    0    0    0 -0.00000000000E+00 -0.00000000000E+00 -0.50000000000E+03  0.50000000000E+03  0.00000000000E+00 0. -1.
        -11    1    1    2    0    0 -0.46146264813E+01 -0.55726899247E+01  0.49966627807E+03  0.49971865994E+03  0.00000000000E+00 0.  1.
         11    1    1    2    0    0  0.67049872556E+00  0.63496489931E+01 -0.36624609375E+03  0.36630174556E+03  0.00000000000E+00 0. -1.
        -15    1    1    2    0    0  0.26103526175E+01  0.19683607516E+01 -0.13388775292E+02  0.13896237536E+02  0.17770000000E+01 0.  1.
         15    1    1    2    0    0  0.13337751383E+01 -0.27453198200E+01 -0.12003140903E+03  0.12008335696E+03  0.17770000000E+01 0. -1.
</event>
<event>
 6    1  0.1860328E-003  0.5031090E+03  0.7546771E-02  0.9392880E-01
        -11   -1    0    0    0    0  0.00000000000E+00  0.00000000000E+00  0.50000000000E+03  0.50000000000E+03  0.00000000000E+00 0. -1.
         11   -1    0    0    0    0 -0.00000000000E+00 -0.00000000000E+00 -0.50000000000E+03  0.50000000000E+03  0.00000000000E+00 0. -1.
        -11    1    1    2    0    0 -0.81890331461E+01  0.32483504422E+01  0.47144248414E+03  0.47152479033E+03  0.00000000000E+00 0. -1.
         11    1    1    2    0    0  0.90506550735E+00  0.81723474920E+01 -0.49682295417E+03  0.49689098825E+03  0.00000000000E+00 0. -1.
        -15    1    1    2    0    0  0.12993305171E+00 -0.93101893590E+01  0.20249094684E+02  0.22357997965E+02  0.17770000000E+01 0.  1.
         15    1    1    2    0    0  0.71540345870E+01 -0.21105085752E+01  0.51313753465E+01  0.92262234562E+01  0.17770000000E+01 0. -1.
</event>
<event>
 6    1  0.1860328E-003  0.5002228E+03  0.7546771E-02  0.9399311E-01
        -11   -1    0    0    0    0  0.00000000000E+00  0.00000000000E+00  0.50000000000E+03  0.50000000000E+03  0.00000000000E+00 0.  1.
         11   -1    0    0    0    0 -0.00000000000E+00 -0.00000000000E+00 -0.50000000000E+03  0.50000000000E+03  0.00000000000E+00 0. -1.
        -11    1    1    2    0    0 -0.49138595100E+00  0.13208746455E+00  0.33212864156E+02  0.33216761623E+02  0.00000000000E+00 0.  1.
         11    1    1    2    0    0  0.58608077959E+01  0.34936312571E+01 -0.49973066482E+03  0.49977724227E+03  0.00000000000E+00 0. -1.
        -15    1    1    2    0    0 -0.10271675883E+02 -0.82375950344E+01  0.22811907927E+03  0.22850566153E+03  0.17770000000E+01 0.  1.
         15    1    1    2    0    0  0.49022540381E+01  0.46118763127E+01  0.23839872140E+03  0.23850033457E+03  0.17770000000E+01 0.  1.
</event>
<event>
 6    1  0.1860328E-003  0.5007498E+03  0.7546771E-02  0.9398133E-01
        -11   -1    0    0    0    0  0.00000000000E+00  0.00000000000E+00  0.50000000000E+03  0.50000000000E+03  0.00000000000E+00 0. -1.
         11   -1    0    0    0    0 -0.00000000000E+00 -0.00000000000E+00 -0.50000000000E+03  0.50000000000E+03  0.00000000000E+00 0. -1.
        -11    1    1    2    0    0  0.38454731751E+01  0.73944836064E+01  0.38808177362E+03  0.38817126255E+03  0.00000000000E+00 0. -1.
         11    1    1    2    0    0  0.88611678165E+01  0.36479872239E+01 -0.49915819400E+03  0.49925016850E+03  0.00000000000E+00 0. -1.
        -15    1    1    2    0    0 -0.60767480037E+01 -0.74366682180E+01  0.44928925579E+02  0.45978222923E+02  0.17770000000E+01 0. -1.
         15    1    1    2    0    0 -0.66298929879E+01 -0.36058026123E+01  0.66147494806E+02  0.66600346032E+02  0.17770000000E+01 0.  1.
</event>
<event>
 6    1  0.1860328E-003  0.5101078E+03  0.7546771E-02  0.9377473E-01
        -11   -1    0    0    0    0  0.00000000000E+00  0.00000000000E+00  0.50000000000E+03  0.50000000000E+03  0.00000000000E+00 0.  1.
         11   -1    0    0    0    0 -0.00000000000E+00 -0.00000000000E+00 -0.50000000000E+03  0.50000000000E+03  0.00000000000E+00 0.  1.
        -11    1    1    2    0    0  0.45620958650E+01 -0.13089187800E+02  0.48969609731E+03  0.48989224047E+03  0.00000000000E+00 0.  1.
         11    1    1    2    0    0  0.13644405663E+01  0.92779363238E+01 -0.42428912161E+03  0.42439274324E+03  0.00000000000E+00 0.  1.
        -15    1    1    2    0    0  0.62400695191E+01  0.44728440787E+01 -0.71530265565E+02  0.71963055956E+02  0.17770000000E+01 0. -1.
         15    1    1    2    0    0 -0.12166605950E+02 -0.66159260206E+00  0.61232898659E+01  0.13751960330E+02  0.17770000000E+01 0.  1.
</event>
<event>
 6    1  0.1860328E-003  0.5130374E+03  0.7546771E-02  0.9371101E-01
        -11   -1    0    0    0    0  0.00000000000E+00  0.00000000000E+00  0.50000000000E+03  0.50000000000E+03  0.00000000000E+00 0. -1.
         11   -1    0    0    0    0 -0.00000000000E+00 -0.00000000000E+00 -0.50000000000E+03  0.50000000000E+03  0.00000000000E+00 0. -1.
        -11    1    1    2    0    0  0.11718677412E+02 -0.63402287455E+01  0.48678031483E+03  0.48696262773E+03  0.00000000000E+00 0. -1.
         11    1    1    2    0    0 -0.47117345171E+01  0.58203387609E+01 -0.47529539665E+03  0.47535438449E+03  0.00000000000E+00 0. -1.
        -15    1    1    2    0    0 -0.10123784021E+02  0.73154934559E+01  0.92016350160E+01  0.15615225371E+02  0.17770000000E+01 0.  1.
         15    1    1    2    0    0  0.31168411262E+01 -0.67956034714E+01 -0.20686553201E+02  0.22067762404E+02  0.17770000000E+01 0. -1.
</event>
<event>
 6    1  0.1860328E-003  0.5002050E+03  0.7546771E-02  0.9399351E-01
        -11   -1    0    0    0    0  0.00000000000E+00  0.00000000000E+00  0.50000000000E+03  0.50000000000E+03  0.00000000000E+00 0. -1.
         11   -1    0    0    0    0 -0.00000000000E+00 -0.00000000000E+00 -0.50000000000E+03  0.50000000000E+03  0.00000000000E+00 0.  1.
        -11    1    1    2    0    0 -0.98240702430E+01 -0.18488271944E+01  0.49969506687E+03  0.49979504837E+03  0.00000000000E+00 0. -1.
         11    1    1    2    0    0 -0.14527950020E+01  0.21215319555E+01 -0.10937876447E+03  0.10940898331E+03  0.00000000000E+00 0.  1.
        -15    1    1    2    0    0  0.11880969713E+02  0.55465413246E+01 -0.26095677207E+03  0.26129201323E+03  0.17770000000E+01 0.  1.
         15    1    1    2    0    0 -0.60410446819E+00 -0.58192460858E+01 -0.12935953033E+03  0.12950395509E+03  0.17770000000E+01 0. -1.
</event>
<event>
 6    1  0.1860328E-003  0.5005600E+03  0.7546771E-02  0.9398558E-01
        -11   -1    0    0    0    0  0.00000000000E+00  0.00000000000E+00  0.50000000000E+03  0.50000000000E+03  0.00000000000E+00 0. -1.
         11   -1    0    0    0    0 -0.00000000000E+00 -0.00000000000E+00 -0.50000000000E+03  0.50000000000E+03  0.00000000000E+00 0. -1.
        -11    1    1    2    0    0 -0.44592111672E+01  0.63795539043E+01  0.21726573440E+03  0.21740511175E+03  0.00000000000E+00 0. -1.
         11    1    1    2    0    0  0.27672806080E+01  0.72152453255E+01 -0.49938022025E+03  0.49944000840E+03  0.00000000000E+00 0. -1.
        -15    1    1    2    0    0 -0.17624108634E+01 -0.55836715761E+01  0.24143323966E+03  0.24151076668E+03  0.17770000000E+01 0.  1.
         15    1    1    2    0    0  0.34543414225E+01 -0.80111276537E+01  0.40681246198E+02  0.41644113175E+02  0.17770000000E+01 0. -1.
</event>
<event>
 6    1  0.1860328E-003  0.3742350E+03  0.7546771E-02  0.9735749E-01
        -11   -1    0    0    0    0  0.00000000000E+00  0.00000000000E+00  0.50000000000E+03  0.50000000000E+03  0.00000000000E+00 0.  1.
         11   -1    0    0    0    0 -0.00000000000E+00 -0.00000000000E+00 -0.50000000000E+03  0.50000000000E+03  0.00000000000E+00 0.  1.
        -11    1    1    2    0    0  0.52423334961E+01 -0.53780113178E-01  0.30038246963E+03  0.30042821608E+03  0.00000000000E+00 0.  1.
         11    1    1    2    0    0  0.18230304339E+03 -0.11415039198E+03 -0.27545435393E+03  0.34948506795E+03  0.00000000000E+00 0.  1.
        -15    1    1    2    0    0  0.45156617435E+01  0.81979047133E+01  0.98101473079E+02  0.98562942285E+02  0.17770000000E+01 0. -1.
         15    1    1    2    0    0 -0.19206103863E+03  0.10600626738E+03 -0.12302958878E+03  0.25152377369E+03  0.17770000000E+01 0.  1.
</event>
<event>
 6    1  0.1860328E-003  0.5096573E+03  0.7546771E-02  0.9378456E-01
        -11   -1    0    0    0    0  0.00000000000E+00  0.00000000000E+00  0.50000000000E+03  0.50000000000E+03  0.00000000000E+00 0. -1.
         11   -1    0    0    0    0 -0.00000000000E+00 -0.00000000000E+00 -0.50000000000E+03  0.50000000000E+03  0.00000000000E+00 0.  1.
        -11    1    1    2    0    0  0.70173103540E+01  0.12920798152E+02  0.49012216759E+03  0.49034266471E+03  0.00000000000E+00 0. -1.
         11    1    1    2    0    0  0.19207383206E+02  0.91265280527E+01 -0.45723836306E+03  0.45773260506E+03  0.00000000000E+00 0.  1.
        -15    1    1    2    0    0 -0.19248544158E+02 -0.37429010484E+01 -0.11211910573E+02  0.22657899906E+02  0.17770000000E+01 0. -1.
         15    1    1    2    0    0 -0.69761494019E+01 -0.18304425156E+02 -0.21671893959E+02  0.29266830330E+02  0.17770000000E+01 0.  1.
</event>
<event>
 6    1  0.1860328E-003  0.5260229E+03  0.7546771E-02  0.9343393E-01
        -11   -1    0    0    0    0  0.00000000000E+00  0.00000000000E+00  0.50000000000E+03  0.50000000000E+03  0.00000000000E+00 0.  1.
         11   -1    0    0    0    0 -0.00000000000E+00 -0.00000000000E+00 -0.50000000000E+03  0.50000000000E+03  0.00000000000E+00 0.  1.
        -11    1    1    2    0    0 -0.60441859895E+01  0.29089910405E+01  0.41387429850E+03  0.41392865251E+03  0.00000000000E+00 0.  1.
         11    1    1    2    0    0 -0.87049964868E+01 -0.66852294119E+02 -0.46915807308E+03  0.47397711309E+03  0.00000000000E+00 0.  1.
        -15    1    1    2    0    0  0.22846344454E+02  0.22495054257E+01  0.42808713245E+02  0.48608223463E+02  0.17770000000E+01 0. -1.
         15    1    1    2    0    0 -0.80971619775E+01  0.61693797653E+02  0.12475061339E+02  0.63486010942E+02  0.17770000000E+01 0.  1.
</event>
<event>
 6    1  0.1860328E-003  0.5115746E+03  0.7546771E-02  0.9374277E-01
        -11   -1    0    0    0    0  0.00000000000E+00  0.00000000000E+00  0.50000000000E+03  0.50000000000E+03  0.00000000000E+00 0. -1.
         11   -1    0    0    0    0 -0.00000000000E+00 -0.00000000000E+00 -0.50000000000E+03  0.50000000000E+03  0.00000000000E+00 0.  1.
        -11    1    1    2    0    0 -0.12507991608E+02  0.10217119150E+01  0.44305421667E+03  0.44323191747E+03  0.00000000000E+00 0. -1.
         11    1    1    2    0    0 -0.18549291638E+01 -0.98912836974E+01 -0.48832170813E+03  0.48842539746E+03  0.00000000000E+00 0.  1.
        -15    1    1    2    0    0  0.19921335937E+02 -0.32755392058E+01  0.50087315034E+02  0.54032264796E+02  0.17770000000E+01 0. -1.
         15    1    1    2    0    0 -0.55584151658E+01  0.12145110988E+02 -0.48198235761E+01  0.14310420272E+02  0.17770000000E+01 0.  1.
</event>
<event>
 6    1  0.1860328E-003  0.5081487E+03  0.7546771E-02  0.9381759E-01
        -11   -1    0    0    0    0  0.00000000000E+00  0.00000000000E+00  0.50000000000E+03  0.50000000000E+03  0.00000000000E+00 0.  1.
         11   -1    0    0    0    0 -0.00000000000E+00 -0.00000000000E+00 -0.50000000000E+03  0.50000000000E+03  0.00000000000E+00 0.  1.
        -11    1    1    2    0    0  0.42277019211E+01  0.20838666532E+02  0.46521735851E+03  0.46570303214E+03  0.00000000000E+00 0.  1.
         11    1    1    2    0    0  0.97876878989E+01 -0.87448898180E+01 -0.49167609559E+03  0.49185125283E+03  0.00000000000E+00 0.  1.
        -15    1    1    2    0    0 -0.18401018175E+02 -0.20078091785E+01  0.25077380179E+02  0.31219569075E+02  0.17770000000E+01 0. -1.
         15    1    1    2    0    0  0.43856283555E+01 -0.10085967536E+02  0.13813569046E+01  0.11226145960E+02  0.17770000000E+01 0.  1.
</event>
<event>
 6    1  0.1860328E-003  0.5013010E+03  0.7546771E-02  0.9396903E-01
        -11   -1    0    0    0    0  0.00000000000E+00  0.00000000000E+00  0.50000000000E+03  0.50000000000E+03  0.00000000000E+00 0. -1.
         11   -1    0    0    0    0 -0.00000000000E+00 -0.00000000000E+00 -0.50000000000E+03  0.50000000000E+03  0.00000000000E+00 0. -1.
        -11    1    1    2    0    0 -0.14759576388E+01 -0.15479561020E+02  0.49845655736E+03  0.49869904235E+03  0.00000000000E+00 0. -1.
         11    1    1    2    0    0  0.12250217113E+01 -0.63042799923E+01 -0.34266651061E+03  0.34272668719E+03  0.00000000000E+00 0. -1.
        -15    1    1    2    0    0  0.41578903508E-01 -0.29775387093E+01 -0.80833242013E+01  0.87957560627E+01  0.17770000000E+01 0.  1.
         15    1    1    2    0    0  0.20935702394E+00  0.24761379722E+02 -0.14770672256E+03  0.14977851439E+03  0.17770000000E+01 0. -1.
</event>
<event>
 6    1  0.1860328E-003  0.5092336E+03  0.7546771E-02  0.9379383E-01
        -11   -1    0    0    0    0  0.00000000000E+00  0.00000000000E+00  0.50000000000E+03  0.50000000000E+03  0.00000000000E+00 0.  1.
         11   -1    0    0    0    0 -0.00000000000E+00 -0.00000000000E+00 -0.50000000000E+03  0.50000000000E+03  0.00000000000E+00 0.  1.
        -11    1    1    2    0    0 -0.57574635432E+01 -0.42891556661E+01  0.46173174045E+03  0.46178755438E+03  0.00000000000E+00 0.  1.
         11    1    1    2    0    0 -0.35898546362E+01 -0.77026581366E+01 -0.49069278279E+03  0.49076636506E+03  0.00000000000E+00 0.  1.
        -15    1    1    2    0    0  0.52172100038E+01 -0.87587286392E+01  0.23265715503E+02  0.25463421892E+02  0.17770000000E+01 0. -1.
         15    1    1    2    0    0  0.41301081757E+01  0.20750542442E+02  0.56953268385E+01  0.21982658665E+02  0.17770000000E+01 0.  1.
</event>
<event>
 6    1  0.2045710E-003  0.5197586E+03  0.7546771E-02  0.9356652E-01
        -11   -1    0    0    0    0  0.00000000000E+00  0.00000000000E+00  0.50000000000E+03  0.50000000000E+03  0.00000000000E+00 0. -1.
         11   -1    0    0    0    0 -0.00000000000E+00 -0.00000000000E+00 -0.50000000000E+03  0.50000000000E+03  0.00000000000E+00 0. -1.
        -11    1    1    2    0    0 -0.53091483398E+01  0.42974959039E+01  0.48019285488E+03  0.48024143241E+03  0.00000000000E+00 0. -1.
         11    1    1    2    0    0  0.13518977598E+01  0.74691336168E+01 -0.40461172433E+03  0.40468291667E+03  0.00000000000E+00 0. -1.
        -15    1    1    2    0    0  0.27968277479E+01 -0.10028394801E+02 -0.94938845475E+02  0.95524515476E+02  0.17770000000E+01 0. -1.
         15    1    1    2    0    0  0.11604228321E+01 -0.17382347192E+01  0.19357714920E+02  0.19551135441E+02  0.17770000000E+01 0.  1.
</event>
<event>
 6    1  0.1860328E-003  0.5052273E+03  0.7546771E-02  0.9388189E-01
        -11   -1    0    0    0    0  0.00000000000E+00  0.00000000000E+00  0.50000000000E+03  0.50000000000E+03  0.00000000000E+00 0. -1.
         11   -1    0    0    0    0 -0.00000000000E+00 -0.00000000000E+00 -0.50000000000E+03  0.50000000000E+03  0.00000000000E+00 0. -1.
        -11    1    1    2    0    0 -0.44172105058E+00 -0.62979471213E+01  0.34674130605E+03  0.34679877822E+03  0.00000000000E+00 0. -1.
         11    1    1    2    0    0  0.90440979591E+01 -0.59822861395E+01 -0.49465384160E+03  0.49477268161E+03  0.00000000000E+00 0. -1.
        -15    1    1    2    0    0 -0.28176286443E+01  0.84677639700E+01  0.15053560679E+03  0.15081037332E+03  0.17770000000E+01 0.  1.
         15    1    1    2    0    0 -0.57847482642E+01  0.38124692908E+01 -0.26230712409E+01  0.76181668601E+01  0.17770000000E+01 0. -1.
</event>
<event>
 6    1  0.1860328E-003  0.5092737E+03  0.7546771E-02  0.9379295E-01
        -11   -1    0    0    0    0  0.00000000000E+00  0.00000000000E+00  0.50000000000E+03  0.50000000000E+03  0.00000000000E+00 0. -1.
         11   -1    0    0    0    0 -0.00000000000E+00 -0.00000000000E+00 -0.50000000000E+03  0.50000000000E+03  0.00000000000E+00 0.  1.
        -11    1    1    2    0    0 -0.33582045002E+01  0.12518959535E+02  0.49055510592E+03  0.49072631255E+03  0.00000000000E+00 0. -1.
         11    1    1    2    0    0 -0.54507916677E+01 -0.50991772923E+01 -0.17751543623E+03  0.17767229058E+03  0.00000000000E+00 0.  1.
        -15    1    1    2    0    0 -0.29408851844E+02 -0.12758967077E+01 -0.19136867768E+02  0.35155169125E+02  0.17770000000E+01 0. -1.
         15    1    1    2    0    0  0.38217848012E+02 -0.61438855355E+01 -0.29390280192E+03  0.29644622775E+03  0.17770000000E+01 0.  1.
</event>
<event>
 6    1  0.1860328E-003  0.5001312E+03  0.7546771E-02  0.9399516E-01
        -11   -1    0    0    0    0  0.00000000000E+00  0.00000000000E+00  0.50000000000E+03  0.50000000000E+03  0.00000000000E+00 0.  1.
         11   -1    0    0    0    0 -0.00000000000E+00 -0.00000000000E+00 -0.50000000000E+03  0.50000000000E+03  0.00000000000E+00 0. -1.
        -11    1    1    2    0    0 -0.70125051819E+01  0.76130806953E+00  0.49981904750E+03  0.49986881785E+03  0.00000000000E+00 0.  1.
         11    1    1    2    0    0  0.29593908387E+01  0.24443326789E+01 -0.19723195966E+03  0.19726930493E+03  0.00000000000E+00 0. -1.
        -15    1    1    2    0    0  0.61117460320E+01 -0.55974971650E+01 -0.25336089733E+03  0.25350263794E+03  0.17770000000E+01 0. -1.
         15    1    1    2    0    0 -0.20586316888E+01  0.23918564165E+01 -0.49226190508E+02  0.49359239282E+02  0.17770000000E+01 0.  1.
</event>
<event>
 6    1  0.1860328E-003  0.5062201E+03  0.7546771E-02  0.9385998E-01
        -11   -1    0    0    0    0  0.00000000000E+00  0.00000000000E+00  0.50000000000E+03  0.50000000000E+03  0.00000000000E+00 0. -1.
         11   -1    0    0    0    0 -0.00000000000E+00 -0.00000000000E+00 -0.50000000000E+03  0.50000000000E+03  0.00000000000E+00 0.  1.
        -11    1    1    2    0    0 -0.60478888083E+01  0.54690005043E+01  0.49371258363E+03  0.49377991267E+03  0.00000000000E+00 0. -1.
         11    1    1    2    0    0  0.37974234765E+01 -0.62695824782E+01 -0.47504286943E+03  0.47509941684E+03  0.00000000000E+00 0.  1.
        -15    1    1    2    0    0 -0.60364815426E+00  0.23228868895E+01 -0.24248436536E+02  0.24431631096E+02  0.17770000000E+01 0.  1.
         15    1    1    2    0    0  0.28541134861E+01 -0.15223049156E+01  0.55787223329E+01  0.66890393866E+01  0.17770000000E+01 0. -1.
</event>
<event>
 6    1  0.1860328E-003  0.5058243E+03  0.7546771E-02  0.9386871E-01
        -11   -1    0    0    0    0  0.00000000000E+00  0.00000000000E+00  0.50000000000E+03  0.50000000000E+03  0.00000000000E+00 0.  1.
         11   -1    0    0    0    0 -0.00000000000E+00 -0.00000000000E+00 -0.50000000000E+03  0.50000000000E+03  0.00000000000E+00 0. -1.
        -11    1    1    2    0    0 -0.56378056013E+01  0.12752922574E+02  0.49397895955E+03  0.49417571204E+03  0.00000000000E+00 0.  1.
         11    1    1    2    0    0 -0.42454439868E+00  0.22261829896E+02 -0.32851632929E+03  0.32927002280E+03  0.00000000000E+00 0. -1.
        -15    1    1    2    0    0 -0.23026799476E+01 -0.46561315584E+02 -0.13590652404E+03  0.14369063801E+03  0.17770000000E+01 0.  1.
         15    1    1    2    0    0  0.83650299475E+01  0.11546563115E+02 -0.29556106222E+02  0.32863627156E+02  0.17770000000E+01 0. -1.
</event>
<event>
 6    1  0.1860328E-003  0.5027739E+03  0.7546771E-02  0.9393624E-01
        -11   -1    0    0    0    0  0.00000000000E+00  0.00000000000E+00  0.50000000000E+03  0.50000000000E+03  0.00000000000E+00 0.  1.
         11   -1    0    0    0    0 -0.00000000000E+00 -0.00000000000E+00 -0.50000000000E+03  0.50000000000E+03  0.00000000000E+00 0.  1.
        -11    1    1    2    0    0 -0.69419255657E+00  0.21061797252E+00  0.39288474790E+02  0.39295171644E+02  0.00000000000E+00 0.  1.
         11    1    1    2    0    0  0.11135910754E+02  0.23452463461E+02 -0.49654785850E+03  0.49722610785E+03  0.00000000000E+00 0.  1.
        -15    1    1    2    0    0 -0.13917595234E+02 -0.28934999301E+02  0.80825161736E+02  0.86987344714E+02  0.17770000000E+01 0. -1.
         15    1    1    2    0    0  0.34758770373E+01  0.52719178674E+01  0.37643422197E+03  0.37649137579E+03  0.17770000000E+01 0.  1.
</event>
<event>
 6    1  0.1860328E-003  0.5180645E+03  0.7546771E-02  0.9360272E-01
        -11   -1    0    0    0    0  0.00000000000E+00  0.00000000000E+00  0.50000000000E+03  0.50000000000E+03  0.00000000000E+00 0. -1.
         11   -1    0    0    0    0 -0.00000000000E+00 -0.00000000000E+00 -0.50000000000E+03  0.50000000000E+03  0.00000000000E+00 0.  1.
        -11    1    1    2    0    0 -0.10924267275E+02 -0.23559402522E+01  0.36819521066E+03  0.36836476925E+03  0.00000000000E+00 0. -1.
         11    1    1    2    0    0 -0.23709764587E+02  0.27034420735E+02 -0.48059212717E+03  0.48193547860E+03  0.00000000000E+00 0.  1.
        -15    1    1    2    0    0  0.15200695760E+02 -0.12283491198E+02  0.12279330913E+03  0.12435151710E+03  0.17770000000E+01 0.  1.
         15    1    1    2    0    0  0.19433336103E+02 -0.12394989285E+02 -0.10396392630E+02  0.25348235050E+02  0.17770000000E+01 0. -1.
</event>
<event>
 6    1  0.1860328E-003  0.5127188E+03  0.7546771E-02  0.9371792E-01
        -11   -1    0    0    0    0  0.00000000000E+00  0.00000000000E+00  0.50000000000E+03  0.50000000000E+03  0.00000000000E+00 0.  1.
         11   -1    0    0    0    0 -0.00000000000E+00 -0.00000000000E+00 -0.50000000000E+03  0.50000000000E+03  0.00000000000E+00 0. -1.
        -11    1    1    2    0    0 -0.67672485496E+01 -0.40076508073E+01  0.44501536015E+03  0.44508485448E+03  0.00000000000E+00 0.  1.
         11    1    1    2    0    0  0.75004991385E+01  0.10485553128E+02 -0.48711065975E+03  0.48728123210E+03  0.00000000000E+00 0. -1.
        -15    1    1    2    0    0  0.33332076074E+01 -0.60325081923E+01  0.54235411951E+02  0.54700448504E+02  0.17770000000E+01 0. -1.
         15    1    1    2    0    0 -0.40664581962E+01 -0.44539412801E+00 -0.12140112347E+02  0.12933464926E+02  0.17770000000E+01 0.  1.
</event>
<event>
 6    1  0.1860328E-003  0.5008743E+03  0.7546771E-02  0.9397855E-01
        -11   -1    0    0    0    0  0.00000000000E+00  0.00000000000E+00  0.50000000000E+03  0.50000000000E+03  0.00000000000E+00 0. -1.
         11   -1    0    0    0    0 -0.00000000000E+00 -0.00000000000E+00 -0.50000000000E+03  0.50000000000E+03  0.00000000000E+00 0.  1.
        -11    1    1    2    0    0  0.23658437870E+01 -0.50910452896E+01  0.12284252489E+03  0.12297073587E+03  0.00000000000E+00 0. -1.
         11    1    1    2    0    0 -0.74127740107E+01  0.47623616144E+01 -0.49904791155E+03  0.49912568290E+03  0.00000000000E+00 0.  1.
        -15    1    1    2    0    0  0.39454522197E+01  0.75674962861E+01  0.22675432172E+02  0.24293343665E+02  0.17770000000E+01 0.  1.
         15    1    1    2    0    0  0.11014780041E+01 -0.72388126110E+01  0.35352995449E+03  0.35361023757E+03  0.17770000000E+01 0. -1.
</event>
<event>
 6    1  0.1860328E-003  0.5023296E+03  0.7546771E-02  0.9394612E-01
        -11   -1    0    0    0    0  0.00000000000E+00  0.00000000000E+00  0.50000000000E+03  0.50000000000E+03  0.00000000000E+00 0.  1.
         11   -1    0    0    0    0 -0.00000000000E+00 -0.00000000000E+00 -0.50000000000E+03  0.50000000000E+03  0.00000000000E+00 0. -1.
        -11    1    1    2    0    0  0.41739688842E+01  0.97474992099E+01  0.49755740933E+03  0.49767038423E+03  0.00000000000E+00 0.  1.
         11    1    1    2    0    0  0.64330927169E+01  0.13604935611E+01 -0.40556515518E+03  0.40561845461E+03  0.00000000000E+00 0. -1.
        -15    1    1    2    0    0 -0.16928974817E+01  0.72794114705E+01 -0.13007448836E+02  0.15106527975E+02  0.17770000000E+01 0. -1.
         15    1    1    2    0    0 -0.89141641195E+01 -0.18387404241E+02 -0.78984805317E+02  0.81604633182E+02  0.17770000000E+01 0.  1.
</event>
<event>
 6    1  0.1860328E-003  0.5334469E+03  0.7546771E-02  0.9327931E-01
        -11   -1    0    0    0    0  0.00000000000E+00  0.00000000000E+00  0.50000000000E+03  0.50000000000E+03  0.00000000000E+00 0. -1.
         11   -1    0    0    0    0 -0.00000000000E+00 -0.00000000000E+00 -0.50000000000E+03  0.50000000000E+03  0.00000000000E+00 0. -1.
        -11    1    1    2    0    0  0.16721184670E+02 -0.29195276248E+02  0.14468374117E+03  0.14854409154E+03  0.00000000000E+00 0. -1.
         11    1    1    2    0    0 -0.18566999157E+01  0.19066874417E+02 -0.46615960415E+03  0.46655307263E+03  0.00000000000E+00 0. -1.
        -15    1    1    2    0    0 -0.41274381988E+01 -0.10763866354E+02 -0.30233456682E+02  0.32405496400E+02  0.17770000000E+01 0. -1.
         15    1    1    2    0    0 -0.10737046556E+02  0.20892268185E+02  0.35170931967E+03  0.35249733944E+03  0.17770000000E+01 0.  1.
</event>
<event>
 6    1  0.1860328E-003  0.5061212E+03  0.7546771E-02  0.9386216E-01
        -11   -1    0    0    0    0  0.00000000000E+00  0.00000000000E+00  0.50000000000E+03  0.50000000000E+03  0.00000000000E+00 0. -1.
         11   -1    0    0    0    0 -0.00000000000E+00 -0.00000000000E+00 -0.50000000000E+03  0.50000000000E+03  0.00000000000E+00 0.  1.
        -11    1    1    2    0    0  0.82924561922E+01 -0.14716992040E+00  0.49380919783E+03  0.49387884177E+03  0.00000000000E+00 0. -1.
         11    1    1    2    0    0 -0.87467149242E+00 -0.27247623619E+02 -0.43798679735E+03  0.43883440236E+03  0.00000000000E+00 0.  1.
        -15    1    1    2    0    0 -0.39234299313E+01  0.29968989971E+02 -0.54611926803E+02  0.62443205719E+02  0.17770000000E+01 0.  1.
         15    1    1    2    0    0 -0.34943547684E+01 -0.25741964325E+01 -0.12104736733E+01  0.48435501478E+01  0.17770000000E+01 0. -1.
</event>
<event>
 6    1  0.1860328E-003  0.5002087E+03  0.7546771E-02  0.9399343E-01
        -11   -1    0    0    0    0  0.00000000000E+00  0.00000000000E+00  0.50000000000E+03  0.50000000000E+03  0.00000000000E+00 0. -1.
         11   -1    0    0    0    0 -0.00000000000E+00 -0.00000000000E+00 -0.50000000000E+03  0.50000000000E+03  0.00000000000E+00 0. -1.
        -11    1    1    2    0    0  0.70892838075E+00 -0.68247465396E+01  0.34397927350E+03  0.34404770068E+03  0.00000000000E+00 0. -1.
         11    1    1    2    0    0 -0.45834336329E+01  0.84028576028E+01 -0.49969966641E+03  0.49979132894E+03  0.00000000000E+00 0. -1.
        -15    1    1    2    0    0  0.20095957857E+01 -0.60181171429E+01  0.87711353240E+02  0.87958486943E+02  0.17770000000E+01 0. -1.
         15    1    1    2    0    0  0.18649094665E+01  0.44400060797E+01  0.68009039665E+02  0.68202483433E+02  0.17770000000E+01 0.  1.
</event>
<event>
 6    1  0.1860328E-003  0.5021467E+03  0.7546771E-02  0.9395019E-01
        -11   -1    0    0    0    0  0.00000000000E+00  0.00000000000E+00  0.50000000000E+03  0.50000000000E+03  0.00000000000E+00 0.  1.
         11   -1    0    0    0    0 -0.00000000000E+00 -0.00000000000E+00 -0.50000000000E+03  0.50000000000E+03  0.00000000000E+00 0.  1.
        -11    1    1    2    0    0  0.14545478572E+01  0.97227355678E+01  0.49775622889E+03  0.49785330238E+03  0.00000000000E+00 0.  1.
         11    1    1    2    0    0  0.28469221310E+00  0.77911648537E+01 -0.43481661868E+03  0.43488650839E+03  0.00000000000E+00 0.  1.
        -15    1    1    2    0    0 -0.33783121197E+01 -0.18504905113E+02 -0.40750240699E+02  0.44917528339E+02  0.17770000000E+01 0. -1.
         15    1    1    2    0    0  0.16390720494E+01  0.99100469113E+00 -0.22189369507E+02  0.22342660889E+02  0.17770000000E+01 0.  1.
</event>
<event>
 6    1  0.1860328E-003  0.5539573E+03  0.7546771E-02  0.9286563E-01
        -11   -1    0    0    0    0  0.00000000000E+00  0.00000000000E+00  0.50000000000E+03  0.50000000000E+03  0.00000000000E+00 0. -1.
         11   -1    0    0    0    0 -0.00000000000E+00 -0.00000000000E+00 -0.50000000000E+03  0.50000000000E+03  0.00000000000E+00 0. -1.
        -11    1    1    2    0    0  0.23488586879E+02  0.91087850319E+01  0.44533071033E+03  0.44604273925E+03  0.00000000000E+00 0. -1.
         11    1    1    2    0    0  0.62236196678E+01  0.59194696275E+00 -0.38683666118E+03  0.38688717512E+03  0.00000000000E+00 0. -1.
        -15    1    1    2    0    0 -0.32593950567E+02 -0.24444840130E+02  0.46007193549E+02  0.61479552778E+02  0.17770000000E+01 0. -1.
         15    1    1    2    0    0  0.28817440205E+01  0.14744108135E+02 -0.10450124269E+03  0.10559053285E+03  0.17770000000E+01 0.  1.
</event>
<event>
 6    1  0.1860328E-003  0.5026390E+03  0.7546771E-02  0.9393924E-01
        -11   -1    0    0    0    0  0.00000000000E+00  0.00000000000E+00  0.50000000000E+03  0.50000000000E+03  0.00000000000E+00 0.  1.
         11   -1    0    0    0    0 -0.00000000000E+00 -0.00000000000E+00 -0.50000000000E+03  0.50000000000E+03  0.00000000000E+00 0. -1.
        -11    1    1    2    0    0 -0.11751089482E+02  0.10615681955E+02  0.42280159208E+03  0.42309805846E+03  0.00000000000E+00 0.  1.
         11    1    1    2    0    0 -0.43272381969E+01 -0.71466765760E+01 -0.49729087052E+03  0.49736104580E+03  0.00000000000E+00 0. -1.
        -15    1    1    2    0    0  0.98489992261E+01 -0.82686029235E+01  0.67896185811E+02  0.69126133674E+02  0.17770000000E+01 0.  1.
         15    1    1    2    0    0  0.62293284525E+01  0.47995975442E+01  0.65930926264E+01  0.10414762068E+02  0.17770000000E+01 0. -1.
</event>
<event>
 6    1  0.1860328E-003  0.5074417E+03  0.7546771E-02  0.9383311E-01
        -11   -1    0    0    0    0  0.00000000000E+00  0.00000000000E+00  0.50000000000E+03  0.50000000000E+03  0.00000000000E+00 0.  1.
         11   -1    0    0    0    0 -0.00000000000E+00 -0.00000000000E+00 -0.50000000000E+03  0.50000000000E+03  0.00000000000E+00 0.  1.
        -11    1    1    2    0    0 -0.66590402387E+01  0.19734042771E+02  0.36778427992E+03  0.36837352214E+03  0.00000000000E+00 0.  1.
         11    1    1    2    0    0 -0.91031717194E+01  0.23477200192E+00 -0.49247413028E+03  0.49255831315E+03  0.00000000000E+00 0.  1.
        -15    1    1    2    0    0  0.45971978391E+01 -0.18028868312E+01 -0.52235303587E+01  0.74045680027E+01  0.17770000000E+01 0.  1.
         15    1    1    2    0    0  0.11165014119E+02 -0.18165927942E+02  0.12991338072E+03  0.13166359671E+03  0.17770000000E+01 0.  1.
</event>
<event>
 6    1  0.1860328E-003  0.5054045E+03  0.7546771E-02  0.9387797E-01
        -11   -1    0    0    0    0  0.00000000000E+00  0.00000000000E+00  0.50000000000E+03  0.50000000000E+03  0.00000000000E+00 0. -1.
         11   -1    0    0    0    0 -0.00000000000E+00 -0.00000000000E+00 -0.50000000000E+03  0.50000000000E+03  0.00000000000E+00 0. -1.
        -11    1    1    2    0    0 -0.68915641684E+01 -0.15885734102E+01  0.46939240030E+03  0.46944567596E+03  0.00000000000E+00 0. -1.
         11    1    1    2    0    0  0.10467396522E+02  0.50871926484E+01 -0.49445859339E+03  0.49459553829E+03  0.00000000000E+00 0. -1.
        -15    1    1    2    0    0 -0.13433163224E+02 -0.68605344684E+01  0.15613793133E+02  0.21782219179E+02  0.17770000000E+01 0.  1.
         15    1    1    2    0    0  0.98573308706E+01  0.33619152302E+01  0.94523999553E+01  0.14176566574E+02  0.17770000000E+01 0. -1.
</event>
<event>
 6    1  0.1860328E-003  0.5010008E+03  0.7546771E-02  0.9397573E-01
        -11   -1    0    0    0    0  0.00000000000E+00  0.00000000000E+00  0.50000000000E+03  0.50000000000E+03  0.00000000000E+00 0. -1.
         11   -1    0    0    0    0 -0.00000000000E+00 -0.00000000000E+00 -0.50000000000E+03  0.50000000000E+03  0.00000000000E+00 0. -1.
        -11    1    1    2    0    0  0.68295357921E+00 -0.73185877759E+01  0.49894507891E+03  0.49899921836E+03  0.00000000000E+00 0. -1.
         11    1    1    2    0    0  0.59241123618E+01 -0.17143477450E+01 -0.33705867960E+03  0.33711509546E+03  0.00000000000E+00 0. -1.
        -15    1    1    2    0    0 -0.96296041035E+01  0.36478711213E+01 -0.15008407207E+03  0.15044740828E+03  0.17770000000E+01 0.  1.
         15    1    1    2    0    0  0.30225381625E+01  0.53850643997E+01 -0.11802327243E+02  0.13438277899E+02  0.17770000000E+01 0. -1.
</event>
<event>
 6    1  0.1860328E-003  0.5042938E+03  0.7546771E-02  0.9390253E-01
        -11   -1    0    0    0    0  0.00000000000E+00  0.00000000000E+00  0.50000000000E+03  0.50000000000E+03  0.00000000000E+00 0.  1.
         11   -1    0    0    0    0 -0.00000000000E+00 -0.00000000000E+00 -0.50000000000E+03  0.50000000000E+03  0.00000000000E+00 0.  1.
        -11    1    1    2    0    0  0.30272257480E+00  0.75869517031E+01  0.49564806093E+03  0.49570621721E+03  0.00000000000E+00 0.  1.
         11    1    1    2    0    0  0.10795790918E+02 -0.38739102780E+01 -0.48213275348E+03  0.48226916577E+03  0.00000000000E+00 0.  1.
        -15    1    1    2    0    0 -0.15666128222E+01  0.33199491026E+01 -0.15570057417E+00  0.40814592301E+01  0.17770000000E+01 0.  1.
         15    1    1    2    0    0 -0.95319006703E+01 -0.70329905277E+01 -0.13359606882E+02  0.17943157782E+02  0.17770000000E+01 0. -1.
</event>
<event>
 6    1  0.1860328E-003  0.5145296E+03  0.7546771E-02  0.9367873E-01
        -11   -1    0    0    0    0  0.00000000000E+00  0.00000000000E+00  0.50000000000E+03  0.50000000000E+03  0.00000000000E+00 0.  1.
         11   -1    0    0    0    0 -0.00000000000E+00 -0.00000000000E+00 -0.50000000000E+03  0.50000000000E+03  0.00000000000E+00 0.  1.
        -11    1    1    2    0    0  0.43733563038E+01  0.10837867432E+01  0.16369564794E+03  0.16375764408E+03  0.00000000000E+00 0.  1.
         11    1    1    2    0    0 -0.70256761268E+01  0.26950645769E+02 -0.48467081575E+03  0.48547038743E+03  0.00000000000E+00 0.  1.
        -15    1    1    2    0    0  0.69506967058E+01 -0.28436818630E+02 -0.43186991483E+00  0.29331025879E+02  0.17770000000E+01 0.  1.
         15    1    1    2    0    0 -0.42983768827E+01  0.40238611857E+00  0.32140703772E+03  0.32144094261E+03  0.17770000000E+01 0. -1.
</event>
<event>
 6    1  0.1860328E-003  0.5006245E+03  0.7546771E-02  0.9398413E-01
        -11   -1    0    0    0    0  0.00000000000E+00  0.00000000000E+00  0.50000000000E+03  0.50000000000E+03  0.00000000000E+00 0. -1.
         11   -1    0    0    0    0 -0.00000000000E+00 -0.00000000000E+00 -0.50000000000E+03  0.50000000000E+03  0.00000000000E+00 0.  1.
        -11    1    1    2    0    0  0.52671423145E+01 -0.14883891931E+01  0.33264980753E+03  0.33269483396E+03  0.00000000000E+00 0. -1.
         11    1    1    2    0    0  0.92002900359E+01 -0.35187117141E+01 -0.49927831106E+03  0.49937546852E+03  0.00000000000E+00 0.  1.
        -15    1    1    2    0    0 -0.77694322388E+01 -0.10922128856E+01  0.12639224469E+03  0.12664799348E+03  0.17770000000E+01 0. -1.
         15    1    1    2    0    0 -0.66980001116E+01  0.60993137928E+01  0.40236258834E+02  0.41281704037E+02  0.17770000000E+01 0.  1.
</event>
<event>
 6    1  0.1860328E-003  0.5010896E+03  0.7546771E-02  0.9397375E-01
        -11   -1    0    0    0    0  0.00000000000E+00  0.00000000000E+00  0.50000000000E+03  0.50000000000E+03  0.00000000000E+00 0. -1.
         11   -1    0    0    0    0 -0.00000000000E+00 -0.00000000000E+00 -0.50000000000E+03  0.50000000000E+03  0.00000000000E+00 0. -1.
        -11    1    1    2    0    0  0.30045667129E+01 -0.13301549988E+02  0.49872397546E+03  0.49891037507E+03  0.00000000000E+00 0. -1.
         11    1    1    2    0    0 -0.67172771202E+01 -0.23213257414E+01 -0.43192975083E+03  0.43198821745E+03  0.00000000000E+00 0. -1.
        -15    1    1    2    0    0  0.17917193850E+01  0.11106479045E+02 -0.33087572047E+02  0.34992989128E+02  0.17770000000E+01 0.  1.
         15    1    1    2    0    0  0.19209910224E+01  0.45163966846E+01 -0.33706652581E+02  0.34108418356E+02  0.17770000000E+01 0.  1.
</event>
<event>
 6    1  0.1860328E-003  0.5100082E+03  0.7546771E-02  0.9377690E-01
        -11   -1    0    0    0    0  0.00000000000E+00  0.00000000000E+00  0.50000000000E+03  0.50000000000E+03  0.00000000000E+00 0.  1.
         11   -1    0    0    0    0 -0.00000000000E+00 -0.00000000000E+00 -0.50000000000E+03  0.50000000000E+03  0.00000000000E+00 0. -1.
        -11    1    1    2    0    0 -0.22713632723E+02  0.10442530459E+02  0.48935363237E+03  0.48999176836E+03  0.00000000000E+00 0.  1.
         11    1    1    2    0    0  0.10856222571E+02  0.82012407935E+01 -0.39277898638E+03  0.39301456724E+03  0.00000000000E+00 0. -1.
        -15    1    1    2    0    0  0.17726724990E+02 -0.39592959008E+02 -0.72419542557E+02  0.84436882078E+02  0.17770000000E+01 0.  1.
         15    1    1    2    0    0 -0.58693148381E+01  0.20949187755E+02 -0.24155103427E+02  0.32556782317E+02  0.17770000000E+01 0. -1.
</event>
<event>
 6    1  0.1860328E-003  0.5065529E+03  0.7546771E-02  0.9385265E-01
        -11   -1    0    0    0    0  0.00000000000E+00  0.00000000000E+00  0.50000000000E+03  0.50000000000E+03  0.00000000000E+00 0. -1.
         11   -1    0    0    0    0 -0.00000000000E+00 -0.00000000000E+00 -0.50000000000E+03  0.50000000000E+03  0.00000000000E+00 0.  1.
        -11    1    1    2    0    0 -0.98030169417E+01  0.21167941627E+01  0.49334517626E+03  0.49344710243E+03  0.00000000000E+00 0. -1.
         11    1    1    2    0    0  0.64302463604E+01 -0.56244595437E+01 -0.48710827549E+03  0.48718318389E+03  0.00000000000E+00 0.  1.
        -15    1    1    2    0    0  0.78172494883E+01 -0.19179999753E+01  0.19228062312E+01  0.84642203581E+01  0.17770000000E+01 0. -1.
         15    1    1    2    0    0 -0.44444789070E+01  0.54256653562E+01 -0.81597069967E+01  0.10905493321E+02  0.17770000000E+01 0.  1.
</event>
<event>
 6    1  0.1860328E-003  0.5001354E+03  0.7546771E-02  0.9399507E-01
        -11   -1    0    0    0    0  0.00000000000E+00  0.00000000000E+00  0.50000000000E+03  0.50000000000E+03  0.00000000000E+00 0.  1.
         11   -1    0    0    0    0 -0.00000000000E+00 -0.00000000000E+00 -0.50000000000E+03  0.50000000000E+03  0.00000000000E+00 0. -1.
        -11    1    1    2    0    0 -0.23869335020E+01 -0.35060048783E+01  0.19665421442E+03  0.19669994808E+03  0.00000000000E+00 0.  1.
         11    1    1    2    0    0 -0.39432588606E+01  0.70648900699E+01 -0.49979907842E+03  0.49986456241E+03  0.00000000000E+00 0. -1.
        -15    1    1    2    0    0  0.58513503327E+01 -0.31828300417E+01  0.29485054316E+03  0.29493112627E+03  0.17770000000E+01 0.  1.
         15    1    1    2    0    0  0.47884202994E+00 -0.37605514998E+00  0.82943208339E+01  0.85043632484E+01  0.17770000000E+01 0. -1.
</event>
<event>
 6    1  0.1860328E-003  0.5001476E+03  0.7546771E-02  0.9399479E-01
        -11   -1    0    0    0    0  0.00000000000E+00  0.00000000000E+00  0.50000000000E+03  0.50000000000E+03  0.00000000000E+00 0. -1.
         11   -1    0    0    0    0 -0.00000000000E+00 -0.00000000000E+00 -0.50000000000E+03  0.50000000000E+03  0.00000000000E+00 0. -1.
        -11    1    1    2    0    0  0.62404628443E+00  0.96484164753E+00  0.18129757748E+02  0.18166135229E+02  0.00000000000E+00 0. -1.
         11    1    1    2    0    0 -0.87018881818E+01  0.13763747637E+01 -0.49977472561E+03  0.49985237183E+03  0.00000000000E+00 0. -1.
        -15    1    1    2    0    0  0.12161247302E+02 -0.31603253331E+01  0.28227437031E+03  0.28255948304E+03  0.17770000000E+01 0.  1.
         15    1    1    2    0    0 -0.40834054045E+01  0.81910892186E+00  0.19937059755E+03  0.19942200990E+03  0.17770000000E+01 0. -1.
</event>
<event>
 6    1  0.1860328E-003  0.5007353E+03  0.7546771E-02  0.9398166E-01
        -11   -1    0    0    0    0  0.00000000000E+00  0.00000000000E+00  0.50000000000E+03  0.50000000000E+03  0.00000000000E+00 0. -1.
         11   -1    0    0    0    0 -0.00000000000E+00 -0.00000000000E+00 -0.50000000000E+03  0.50000000000E+03  0.00000000000E+00 0.  1.
        -11    1    1    2    0    0  0.27581366752E+01  0.47062791907E+01  0.39471842542E+03  0.39475611680E+03  0.00000000000E+00 0. -1.
         11    1    1    2    0    0 -0.36744859631E+01 -0.99034136353E+01 -0.49915290814E+03  0.49926466443E+03  0.00000000000E+00 0.  1.
        -15    1    1    2    0    0 -0.33618680912E+01 -0.12709073374E+01  0.83306820896E+02  0.83403246335E+02  0.17770000000E+01 0. -1.
         15    1    1    2    0    0  0.42782173791E+01  0.64680417820E+01  0.21127661821E+02  0.22575972437E+02  0.17770000000E+01 0.  1.
</event>
<event>
 6    1  0.1860328E-003  0.5019614E+03  0.7546771E-02  0.9395432E-01
        -11   -1    0    0    0    0  0.00000000000E+00  0.00000000000E+00  0.50000000000E+03  0.50000000000E+03  0.00000000000E+00 0. -1.
         11   -1    0    0    0    0 -0.00000000000E+00 -0.00000000000E+00 -0.50000000000E+03  0.50000000000E+03  0.00000000000E+00 0.  1.
        -11    1    1    2    0    0  0.38597827357E+01 -0.11345653294E+02  0.47484634305E+03  0.47499754871E+03  0.00000000000E+00 0. -1.
         11    1    1    2    0    0 -0.32418933882E+01  0.58990741710E+01 -0.49799313118E+03  0.49803862064E+03  0.00000000000E+00 0.  1.
        -15    1    1    2    0    0  0.26651934225E+01  0.63402895508E+01  0.21747286180E+02  0.22878039968E+02  0.17770000000E+01 0.  1.
         15    1    1    2    0    0 -0.32830827701E+01 -0.89371042816E+00  0.13995019431E+01  0.40857906815E+01  0.17770000000E+01 0. -1.
</event>
<event>
 6    1  0.1860328E-003  0.5009534E+03  0.7546771E-02  0.9397679E-01
        -11   -1    0    0    0    0  0.00000000000E+00  0.00000000000E+00  0.50000000000E+03  0.50000000000E+03  0.00000000000E+00 0. -1.
         11   -1    0    0    0    0 -0.00000000000E+00 -0.00000000000E+00 -0.50000000000E+03  0.50000000000E+03  0.00000000000E+00 0.  1.
        -11    1    1    2    0    0  0.14443287843E+02 -0.23688697194E+01  0.49883196425E+03  0.49904663977E+03  0.00000000000E+00 0. -1.
         11    1    1    2    0    0 -0.43461350346E+01  0.65064595662E+01 -0.39803141010E+03  0.39810830980E+03  0.00000000000E+00 0.  1.
        -15    1    1    2    0    0 -0.97898622352E+01 -0.10416925529E+01 -0.24546671635E+02  0.26507043277E+02  0.17770000000E+01 0.  1.
         15    1    1    2    0    0 -0.30729057372E+00 -0.30958972939E+01 -0.76253882519E+02  0.76338007150E+02  0.17770000000E+01 0. -1.
</event>
<event>
 6    1  0.1860328E-003  0.5002838E+03  0.7546771E-02  0.9399175E-01
        -11   -1    0    0    0    0  0.00000000000E+00  0.00000000000E+00  0.50000000000E+03  0.50000000000E+03  0.00000000000E+00 0.  1.
         11   -1    0    0    0    0 -0.00000000000E+00 -0.00000000000E+00 -0.50000000000E+03  0.50000000000E+03  0.00000000000E+00 0. -1.
        -11    1    1    2    0    0 -0.10449750157E+02  0.55027400192E+01  0.49957665256E+03  0.49971622868E+03  0.00000000000E+00 0.  1.
         11    1    1    2    0    0 -0.27095177237E+01  0.24147578616E+01 -0.25839834033E+03  0.25842382790E+03  0.00000000000E+00 0. -1.
        -15    1    1    2    0    0  0.63879562594E+00 -0.44468921106E+01 -0.50200651096E+02  0.50432588757E+02  0.17770000000E+01 0.  1.
         15    1    1    2    0    0  0.12520472255E+02 -0.34706057702E+01 -0.19097766113E+03  0.19142735465E+03  0.17770000000E+01 0. -1.
</event>
<event>
 6    1  0.1860328E-003  0.5006326E+03  0.7546771E-02  0.9398395E-01
        -11   -1    0    0    0    0  0.00000000000E+00  0.00000000000E+00  0.50000000000E+03  0.50000000000E+03  0.00000000000E+00 0. -1.
         11   -1    0    0    0    0 -0.00000000000E+00 -0.00000000000E+00 -0.50000000000E+03  0.50000000000E+03  0.00000000000E+00 0. -1.
        -11    1    1    2    0    0  0.20181748548E+01  0.82895406485E+01  0.49929451134E+03  0.49936739838E+03  0.00000000000E+00 0. -1.
         11    1    1    2    0    0  0.72738184343E+01  0.33928716556E+01 -0.30550637999E+03  0.30561179334E+03  0.00000000000E+00 0. -1.
        -15    1    1    2    0    0 -0.57652141334E+01 -0.14327832512E+02 -0.17295556190E+03  0.17365283931E+03  0.17770000000E+01 0. -1.
         15    1    1    2    0    0 -0.35267791556E+01  0.26454202075E+01 -0.20832569446E+02  0.21367968972E+02  0.17770000000E+01 0.  1.
</event>
<event>
 6    1  0.1860328E-003  0.5006834E+03  0.7546771E-02  0.9398282E-01
        -11   -1    0    0    0    0  0.00000000000E+00  0.00000000000E+00  0.50000000000E+03  0.50000000000E+03  0.00000000000E+00 0. -1.
         11   -1    0    0    0    0 -0.00000000000E+00 -0.00000000000E+00 -0.50000000000E+03  0.50000000000E+03  0.00000000000E+00 0. -1.
        -11    1    1    2    0    0 -0.63571150821E+01 -0.45812335463E+01  0.49925514969E+03  0.49931663812E+03  0.00000000000E+00 0. -1.
         11    1    1    2    0    0 -0.37699587689E+01  0.52192083546E+01 -0.44602468693E+03  0.44607115360E+03  0.00000000000E+00 0. -1.
        -15    1    1    2    0    0  0.78879864986E+01 -0.20643521890E+00 -0.47606668141E+02  0.48288875810E+02  0.17770000000E+01 0.  1.
         15    1    1    2    0    0  0.22390873524E+01 -0.43153958938E+00 -0.56237946193E+01  0.63233324687E+01  0.17770000000E+01 0. -1.
</event>
<event>
 6    1  0.1860328E-003  0.5184127E+03  0.7546771E-02  0.9359527E-01
        -11   -1    0    0    0    0  0.00000000000E+00  0.00000000000E+00  0.50000000000E+03  0.50000000000E+03  0.00000000000E+00 0.  1.
         11   -1    0    0    0    0 -0.00000000000E+00 -0.00000000000E+00 -0.50000000000E+03  0.50000000000E+03  0.00000000000E+00 0. -1.
        -11    1    1    2    0    0  0.57942399445E+01 -0.32655576206E+01  0.40053063550E+03  0.40058585479E+03  0.00000000000E+00 0.  1.
         11    1    1    2    0    0 -0.10827926427E+02  0.10198449419E+01 -0.48146452655E+03  0.48158734868E+03  0.00000000000E+00 0. -1.
        -15    1    1    2    0    0 -0.10514784478E+02 -0.30217822207E+02  0.74659669971E+02  0.81245932333E+02  0.17770000000E+01 0. -1.
         15    1    1    2    0    0  0.15548470960E+02  0.32463534885E+02  0.62742210824E+01  0.36580864200E+02  0.17770000000E+01 0.  1.
</event>
<event>
 6    1  0.1860328E-003  0.5020534E+03  0.7546771E-02  0.9395227E-01
        -11   -1    0    0    0    0  0.00000000000E+00  0.00000000000E+00  0.50000000000E+03  0.50000000000E+03  0.00000000000E+00 0.  1.
         11   -1    0    0    0    0 -0.00000000000E+00 -0.00000000000E+00 -0.50000000000E+03  0.50000000000E+03  0.00000000000E+00 0.  1.
        -11    1    1    2    0    0 -0.64390492575E+00 -0.11430300749E+02  0.49781493495E+03  0.49794655923E+03  0.00000000000E+00 0.  1.
         11    1    1    2    0    0 -0.18505518680E+02  0.21689068631E+01 -0.24332010256E+03  0.24403243778E+03  0.00000000000E+00 0.  1.
        -15    1    1    2    0    0  0.14618629591E+02 -0.63262250912E+01 -0.42887166620E+02  0.45784192083E+02  0.17770000000E+01 0. -1.
         15    1    1    2    0    0  0.45307940148E+01  0.15587618977E+02 -0.21160766577E+03  0.21223681090E+03  0.17770000000E+01 0.  1.
</event>
<event>
 6    1  0.1860328E-003  0.5009417E+03  0.7546771E-02  0.9397705E-01
        -11   -1    0    0    0    0  0.00000000000E+00  0.00000000000E+00  0.50000000000E+03  0.50000000000E+03  0.00000000000E+00 0. -1.
         11   -1    0    0    0    0 -0.00000000000E+00 -0.00000000000E+00 -0.50000000000E+03  0.50000000000E+03  0.00000000000E+00 0. -1.
        -11    1    1    2    0    0 -0.33502420332E+01  0.34801476811E+01  0.31549581893E+03  0.31553279910E+03  0.00000000000E+00 0. -1.
         11    1    1    2    0    0  0.75953486198E+01 -0.14186480002E+02 -0.49879882234E+03  0.49905832395E+03  0.00000000000E+00 0. -1.
        -15    1    1    2    0    0 -0.43734761050E-02  0.17482257447E+02  0.15345983314E+03  0.15446264099E+03  0.17770000000E+01 0. -1.
         15    1    1    2    0    0 -0.42407331104E+01 -0.67759251255E+01  0.29843170272E+02  0.30946235951E+02  0.17770000000E+01 0.  1.
</event>
<event>
 6    1  0.1860328E-003  0.4781661E+03  0.7546771E-02  0.9450035E-01
        -11   -1    0    0    0    0  0.00000000000E+00  0.00000000000E+00  0.50000000000E+03  0.50000000000E+03  0.00000000000E+00 0. -1.
         11   -1    0    0    0    0 -0.00000000000E+00 -0.00000000000E+00 -0.50000000000E+03  0.50000000000E+03  0.00000000000E+00 0.  1.
        -11    1    1    2    0    0  0.90434811680E+01 -0.12634956608E+02  0.47330666431E+03  0.47356163819E+03  0.00000000000E+00 0. -1.
         11    1    1    2    0    0  0.43694795475E+01 -0.73645962420E+01 -0.48304749044E+03  0.48312338760E+03  0.00000000000E+00 0.  1.
        -15    1    1    2    0    0 -0.82154214055E+01  0.14054945071E+02  0.22727191523E+02  0.28012811236E+02  0.17770000000E+01 0. -1.
         15    1    1    2    0    0 -0.51975393100E+01  0.59446077791E+01 -0.12986365399E+02  0.15302162978E+02  0.17770000000E+01 0.  1.
</event>
<event>
 6    1  0.1860328E-003  0.5456983E+03  0.7546771E-02  0.9302989E-01
        -11   -1    0    0    0    0  0.00000000000E+00  0.00000000000E+00  0.50000000000E+03  0.50000000000E+03  0.00000000000E+00 0.  1.
         11   -1    0    0    0    0 -0.00000000000E+00 -0.00000000000E+00 -0.50000000000E+03  0.50000000000E+03  0.00000000000E+00 0. -1.
        -11    1    1    2    0    0  0.24915597742E+02 -0.26597737724E+02  0.37932185582E+03  0.38106862501E+03  0.00000000000E+00 0.  1.
         11    1    1    2    0    0  0.26477223004E+01  0.10372753993E+02 -0.45417558020E+03  0.45430173025E+03  0.00000000000E+00 0. -1.
        -15    1    1    2    0    0 -0.39591358296E+01 -0.82222381024E+01 -0.41951037645E+02  0.42968910207E+02  0.17770000000E+01 0.  1.
         15    1    1    2    0    0 -0.23604184213E+02  0.24447221834E+02  0.11680476202E+03  0.12166073453E+03  0.17770000000E+01 0.  1.
</event>
<event>
 6    1  0.1860328E-003  0.5053484E+03  0.7546771E-02  0.9387921E-01
        -11   -1    0    0    0    0  0.00000000000E+00  0.00000000000E+00  0.50000000000E+03  0.50000000000E+03  0.00000000000E+00 0. -1.
         11   -1    0    0    0    0 -0.00000000000E+00 -0.00000000000E+00 -0.50000000000E+03  0.50000000000E+03  0.00000000000E+00 0.  1.
        -11    1    1    2    0    0 -0.43885403597E+02  0.29352700932E+01  0.49269221035E+03  0.49465155271E+03  0.00000000000E+00 0. -1.
         11    1    1    2    0    0 -0.28346104208E+01 -0.35775813177E+01 -0.28551292625E+03  0.28554940931E+03  0.00000000000E+00 0.  1.
        -15    1    1    2    0    0  0.28186663165E+02  0.21303428462E+02 -0.16841014792E+03  0.17208561734E+03  0.17770000000E+01 0. -1.
         15    1    1    2    0    0  0.18533350853E+02 -0.20661117237E+02 -0.38769136183E+02  0.47713420635E+02  0.17770000000E+01 0.  1.
</event>
<event>
 6    1  0.1860328E-003  0.5066933E+03  0.7546771E-02  0.9384956E-01
        -11   -1    0    0    0    0  0.00000000000E+00  0.00000000000E+00  0.50000000000E+03  0.50000000000E+03  0.00000000000E+00 0.  1.
         11   -1    0    0    0    0 -0.00000000000E+00 -0.00000000000E+00 -0.50000000000E+03  0.50000000000E+03  0.00000000000E+00 0.  1.
        -11    1    1    2    0    0 -0.71978520950E+01  0.16412373326E+01  0.49325148166E+03  0.49330672699E+03  0.00000000000E+00 0.  1.
         11    1    1    2    0    0 -0.31952102935E+01  0.52546990712E+01 -0.28509725491E+03  0.28516357760E+03  0.00000000000E+00 0.  1.
        -15    1    1    2    0    0  0.77304030232E+01  0.27694168092E+01 -0.21083395136E+03  0.21100128335E+03  0.17770000000E+01 0.  1.
         15    1    1    2    0    0  0.26626593653E+01 -0.96653532130E+01  0.26797246123E+01  0.10528412066E+02  0.17770000000E+01 0. -1.
</event>
<event>
 6    1  0.1860328E-003  0.5026784E+03  0.7546771E-02  0.9393836E-01
        -11   -1    0    0    0    0  0.00000000000E+00  0.00000000000E+00  0.50000000000E+03  0.50000000000E+03  0.00000000000E+00 0. -1.
         11   -1    0    0    0    0 -0.00000000000E+00 -0.00000000000E+00 -0.50000000000E+03  0.50000000000E+03  0.00000000000E+00 0. -1.
        -11    1    1    2    0    0  0.41520703516E+01 -0.44659009681E+01  0.44942490562E+03  0.44946627210E+03  0.00000000000E+00 0. -1.
         11    1    1    2    0    0  0.41283555429E+01  0.54938812418E+01 -0.49727412095E+03  0.49732160361E+03  0.00000000000E+00 0. -1.
        -15    1    1    2    0    0 -0.62760647537E+01  0.35967807201E+00  0.49393122950E+02  0.49823254418E+02  0.17770000000E+01 0. -1.
         15    1    1    2    0    0 -0.20043611408E+01 -0.13876583456E+01 -0.15439076230E+01  0.33888698729E+01  0.17770000000E+01 0.  1.
</event>
<event>
 6    1  0.1860328E-003  0.5006447E+03  0.7546771E-02  0.9398368E-01
        -11   -1    0    0    0    0  0.00000000000E+00  0.00000000000E+00  0.50000000000E+03  0.50000000000E+03  0.00000000000E+00 0. -1.
         11   -1    0    0    0    0 -0.00000000000E+00 -0.00000000000E+00 -0.50000000000E+03  0.50000000000E+03  0.00000000000E+00 0. -1.
        -11    1    1    2    0    0 -0.28821240828E+01  0.36415910736E+01  0.27761668868E+03  0.27765553058E+03  0.00000000000E+00 0. -1.
         11    1    1    2    0    0  0.14076459276E+02 -0.16354572757E+01 -0.49915413413E+03  0.49935525535E+03  0.00000000000E+00 0. -1.
        -15    1    1    2    0    0 -0.41811148679E+00 -0.45722016433E+01  0.99189810510E+01  0.11073561269E+02  0.17770000000E+01 0.  1.
         15    1    1    2    0    0 -0.10776223706E+02  0.25660678455E+01  0.21161846440E+03  0.21191565281E+03  0.17770000000E+01 0. -1.
</event>
<event>
 6    1  0.1860328E-003  0.5018407E+03  0.7546771E-02  0.9395700E-01
        -11   -1    0    0    0    0  0.00000000000E+00  0.00000000000E+00  0.50000000000E+03  0.50000000000E+03  0.00000000000E+00 0.  1.
         11   -1    0    0    0    0 -0.00000000000E+00 -0.00000000000E+00 -0.50000000000E+03  0.50000000000E+03  0.00000000000E+00 0. -1.
        -11    1    1    2    0    0 -0.41402409347E+01  0.76577346145E+01  0.49808325424E+03  0.49815932256E+03  0.00000000000E+00 0.  1.
         11    1    1    2    0    0 -0.88351371326E+01  0.35174192698E+01 -0.43998111525E+03  0.44008387117E+03  0.00000000000E+00 0. -1.
        -15    1    1    2    0    0  0.96618680993E+01 -0.12693548641E+02 -0.52074992031E+02  0.54492571937E+02  0.17770000000E+01 0.  1.
         15    1    1    2    0    0  0.33135099680E+01  0.15183947563E+01 -0.60271469602E+01  0.72642343316E+01  0.17770000000E+01 0. -1.
</event>
<event>
 6    1  0.1860328E-003  0.5608158E+03  0.7546771E-02  0.9273152E-01
        -11   -1    0    0    0    0  0.00000000000E+00  0.00000000000E+00  0.50000000000E+03  0.50000000000E+03  0.00000000000E+00 0. -1.
         11   -1    0    0    0    0 -0.00000000000E+00 -0.00000000000E+00 -0.50000000000E+03  0.50000000000E+03  0.00000000000E+00 0.  1.
        -11    1    1    2    0    0 -0.33196309705E+01  0.23214604694E+01  0.17356869922E+03  0.17361596262E+03  0.00000000000E+00 0. -1.
         11    1    1    2    0    0  0.17936536862E+01  0.72135648637E+02 -0.43321585186E+03  0.43918417925E+03  0.00000000000E+00 0.  1.
        -15    1    1    2    0    0  0.54611520561E+01 -0.68182503118E+02 -0.45362564406E+02  0.82095054002E+02  0.17770000000E+01 0.  1.
         15    1    1    2    0    0 -0.39351747719E+01 -0.62746059883E+01  0.30500971705E+03  0.30510480413E+03  0.17770000000E+01 0. -1.
</event>
<event>
 6    1  0.1860328E-003  0.5077609E+03  0.7546771E-02  0.9382610E-01
        -11   -1    0    0    0    0  0.00000000000E+00  0.00000000000E+00  0.50000000000E+03  0.50000000000E+03  0.00000000000E+00 0.  1.
         11   -1    0    0    0    0 -0.00000000000E+00 -0.00000000000E+00 -0.50000000000E+03  0.50000000000E+03  0.00000000000E+00 0.  1.
        -11    1    1    2    0    0  0.23345763156E+02  0.19026724749E+02  0.40503158508E+03  0.40614975787E+03  0.00000000000E+00 0.  1.
         11    1    1    2    0    0  0.95883024917E+01 -0.80212542923E+01 -0.49208033748E+03  0.49223910307E+03  0.00000000000E+00 0.  1.
        -15    1    1    2    0    0 -0.16342895731E+02 -0.10636223363E+02  0.81806517745E+02  0.84117082468E+02  0.17770000000E+01 0.  1.
         15    1    1    2    0    0 -0.16591169916E+02 -0.36924709318E+00  0.52422346531E+01  0.17494056584E+02  0.17770000000E+01 0. -1.
</event>
<event>
 6    1  0.1860328E-003  0.5108463E+03  0.7546771E-02  0.9375862E-01
        -11   -1    0    0    0    0  0.00000000000E+00  0.00000000000E+00  0.50000000000E+03  0.50000000000E+03  0.00000000000E+00 0.  1.
         11   -1    0    0    0    0 -0.00000000000E+00 -0.00000000000E+00 -0.50000000000E+03  0.50000000000E+03  0.00000000000E+00 0.  1.
        -11    1    1    2    0    0 -0.33028338666E+02  0.44527014538E+02  0.48600184818E+03  0.48915367996E+03  0.00000000000E+00 0.  1.
         11    1    1    2    0    0 -0.24824054081E+00 -0.37309993342E+01 -0.23097648610E+03  0.23100675123E+03  0.00000000000E+00 0.  1.
        -15    1    1    2    0    0  0.38564815819E+02 -0.34473086222E+02 -0.42018755163E+02  0.66666124886E+02  0.17770000000E+01 0. -1.
         15    1    1    2    0    0 -0.52882366128E+01 -0.63229289815E+01 -0.21300660692E+03  0.21317344393E+03  0.17770000000E+01 0.  1.
</event>
<event>
 6    1  0.1860328E-003  0.5530760E+03  0.7546771E-02  0.9288301E-01
        -11   -1    0    0    0    0  0.00000000000E+00  0.00000000000E+00  0.50000000000E+03  0.50000000000E+03  0.00000000000E+00 0.  1.
         11   -1    0    0    0    0 -0.00000000000E+00 -0.00000000000E+00 -0.50000000000E+03  0.50000000000E+03  0.00000000000E+00 0.  1.
        -11    1    1    2    0    0 -0.25262830574E+02  0.33779927249E+01  0.38804927902E+03  0.38888541293E+03  0.00000000000E+00 0.  1.
         11    1    1    2    0    0 -0.94276352523E+00  0.14405809405E+02 -0.44669076444E+03  0.44692399263E+03  0.00000000000E+00 0.  1.
        -15    1    1    2    0    0  0.32252242943E+02  0.92746951495E+01  0.10494334157E+03  0.11019296626E+03  0.17770000000E+01 0. -1.
         15    1    1    2    0    0 -0.60466488432E+01 -0.27058497279E+02 -0.46301856147E+02  0.53997628179E+02  0.17770000000E+01 0.  1.
</event>
<event>
 6    1  0.1860328E-003  0.5007488E+03  0.7546771E-02  0.9398136E-01
        -11   -1    0    0    0    0  0.00000000000E+00  0.00000000000E+00  0.50000000000E+03  0.50000000000E+03  0.00000000000E+00 0.  1.
         11   -1    0    0    0    0 -0.00000000000E+00 -0.00000000000E+00 -0.50000000000E+03  0.50000000000E+03  0.00000000000E+00 0. -1.
        -11    1    1    2    0    0  0.48478060681E+01 -0.84488923918E+00  0.31158411457E+03  0.31162297013E+03  0.00000000000E+00 0.  1.
         11    1    1    2    0    0  0.34780791983E-01  0.96774399325E+01 -0.49915742307E+03  0.49925122640E+03  0.00000000000E+00 0. -1.
        -15    1    1    2    0    0 -0.26085332116E+01 -0.46780647450E+01  0.10015430162E+02  0.11495882115E+02  0.17770000000E+01 0. -1.
         15    1    1    2    0    0 -0.22740536485E+01 -0.41544859483E+01  0.17755787833E+03  0.17762992136E+03  0.17770000000E+01 0.  1.
</event>
<event>
 6    1  0.1860328E-003  0.5030861E+03  0.7546771E-02  0.9392931E-01
        -11   -1    0    0    0    0  0.00000000000E+00  0.00000000000E+00  0.50000000000E+03  0.50000000000E+03  0.00000000000E+00 0. -1.
         11   -1    0    0    0    0 -0.00000000000E+00 -0.00000000000E+00 -0.50000000000E+03  0.50000000000E+03  0.00000000000E+00 0. -1.
        -11    1    1    2    0    0  0.30061465018E+01 -0.13801528803E+02  0.29763594505E+03  0.29797092962E+03  0.00000000000E+00 0. -1.
         11    1    1    2    0    0  0.63482213255E+01  0.37445621185E+01 -0.49685926944E+03  0.49691393146E+03  0.00000000000E+00 0. -1.
        -15    1    1    2    0    0  0.15663185928E+02  0.15804145312E+02  0.11070182486E+03  0.11292988160E+03  0.17770000000E+01 0. -1.
         15    1    1    2    0    0 -0.25017553755E+02 -0.57471786269E+01  0.88521499523E+02  0.92185257307E+02  0.17770000000E+01 0.  1.
</event>
<event>
 6    1  0.1860328E-003  0.5188428E+03  0.7546771E-02  0.9358607E-01
        -11   -1    0    0    0    0  0.00000000000E+00  0.00000000000E+00  0.50000000000E+03  0.50000000000E+03  0.00000000000E+00 0. -1.
         11   -1    0    0    0    0 -0.00000000000E+00 -0.00000000000E+00 -0.50000000000E+03  0.50000000000E+03  0.00000000000E+00 0.  1.
        -11    1    1    2    0    0 -0.15403850238E+02  0.30070136477E+01  0.48090118760E+03  0.48115722271E+03  0.00000000000E+00 0. -1.
         11    1    1    2    0    0 -0.12647130371E+02  0.30710210330E+02 -0.39418221452E+03  0.39557892407E+03  0.00000000000E+00 0.  1.
        -15    1    1    2    0    0  0.10108129383E+01 -0.25953795265E+02  0.56920505579E+01  0.26649172595E+02  0.17770000000E+01 0. -1.
         15    1    1    2    0    0  0.27040167671E+02 -0.77634287126E+01 -0.92411023639E+02  0.96614680623E+02  0.17770000000E+01 0.  1.
</event>
<event>
 6    1  0.1860328E-003  0.4962313E+03  0.7546771E-02  0.9408282E-01
        -11   -1    0    0    0    0  0.00000000000E+00  0.00000000000E+00  0.50000000000E+03  0.50000000000E+03  0.00000000000E+00 0.  1.
         11   -1    0    0    0    0 -0.00000000000E+00 -0.00000000000E+00 -0.50000000000E+03  0.50000000000E+03  0.00000000000E+00 0.  1.
        -11    1    1    2    0    0 -0.42743395299E+01  0.11365172833E+02  0.49787368946E+03  0.49802173425E+03  0.00000000000E+00 0.  1.
         11    1    1    2    0    0  0.32402812805E+01 -0.57916152402E+01 -0.47514983817E+01  0.81620442745E+01  0.00000000000E+00 0.  1.
        -15    1    1    2    0    0 -0.12115024957E+01 -0.13575312442E+02 -0.16109577945E+03  0.16168105866E+03  0.17770000000E+01 0. -1.
         15    1    1    2    0    0  0.22455607451E+01  0.80017548498E+01 -0.33202641163E+03  0.33213516281E+03  0.17770000000E+01 0.  1.
</event>
<event>
 6    1  0.1860328E-003  0.4841377E+03  0.7546771E-02  0.9436020E-01
        -11   -1    0    0    0    0  0.00000000000E+00  0.00000000000E+00  0.50000000000E+03  0.50000000000E+03  0.00000000000E+00 0. -1.
         11   -1    0    0    0    0 -0.00000000000E+00 -0.00000000000E+00 -0.50000000000E+03  0.50000000000E+03  0.00000000000E+00 0.  1.
        -11    1    1    2    0    0  0.62649700608E+01  0.13959888747E+02  0.48496043285E+03  0.48520176192E+03  0.00000000000E+00 0. -1.
         11    1    1    2    0    0  0.90306392389E+00  0.12168895501E+02 -0.48329996971E+03  0.48345398774E+03  0.00000000000E+00 0.  1.
        -15    1    1    2    0    0 -0.11899484053E+01 -0.14058674003E+01 -0.50118758173E+01  0.56275277488E+01  0.17770000000E+01 0.  1.
         15    1    1    2    0    0 -0.59780855795E+01 -0.24722916848E+02  0.33514126815E+01  0.25716722587E+02  0.17770000000E+01 0. -1.
</event>
<event>
 6    1  0.1860328E-003  0.5006329E+03  0.7546771E-02  0.9398395E-01
        -11   -1    0    0    0    0  0.00000000000E+00  0.00000000000E+00  0.50000000000E+03  0.50000000000E+03  0.00000000000E+00 0. -1.
         11   -1    0    0    0    0 -0.00000000000E+00 -0.00000000000E+00 -0.50000000000E+03  0.50000000000E+03  0.00000000000E+00 0. -1.
        -11    1    1    2    0    0 -0.97419164972E+01 -0.57945457732E+01  0.49923843398E+03  0.49936709509E+03  0.00000000000E+00 0. -1.
         11    1    1    2    0    0 -0.21425921802E+01  0.40662639399E+01 -0.27557773213E+03  0.27561605840E+03  0.00000000000E+00 0. -1.
        -15    1    1    2    0    0  0.26104262454E+01  0.10318152770E+02 -0.69997899681E+02  0.70824729371E+02  0.17770000000E+01 0.  1.
         15    1    1    2    0    0  0.92740824320E+01 -0.85898709365E+01 -0.15366280217E+03  0.15419211714E+03  0.17770000000E+01 0. -1.
</event>
<event>
 6    1  0.1860328E-003  0.5005108E+03  0.7546771E-02  0.9398667E-01
        -11   -1    0    0    0    0  0.00000000000E+00  0.00000000000E+00  0.50000000000E+03  0.50000000000E+03  0.00000000000E+00 0.  1.
         11   -1    0    0    0    0 -0.00000000000E+00 -0.00000000000E+00 -0.50000000000E+03  0.50000000000E+03  0.00000000000E+00 0. -1.
        -11    1    1    2    0    0  0.22093516784E+01  0.33701289368E+00  0.14373128527E+03  0.14374865975E+03  0.00000000000E+00 0.  1.
         11    1    1    2    0    0 -0.77447794337E+01 -0.23597712084E+01 -0.49942356768E+03  0.49948918915E+03  0.00000000000E+00 0. -1.
        -15    1    1    2    0    0  0.75257641736E+01 -0.11007048845E+02  0.13470315518E+03  0.13537315094E+03  0.17770000000E+01 0. -1.
         15    1    1    2    0    0 -0.19903364183E+01  0.13029807160E+02  0.22098912722E+03  0.22138900016E+03  0.17770000000E+01 0.  1.
</event>
<event>
 6    1  0.1860328E-003  0.5037644E+03  0.7546771E-02  0.9391426E-01
        -11   -1    0    0    0    0  0.00000000000E+00  0.00000000000E+00  0.50000000000E+03  0.50000000000E+03  0.00000000000E+00 0. -1.
         11   -1    0    0    0    0 -0.00000000000E+00 -0.00000000000E+00 -0.50000000000E+03  0.50000000000E+03  0.00000000000E+00 0. -1.
        -11    1    1    2    0    0 -0.92052711849E+01  0.87175331358E+01  0.49607361724E+03  0.49623559538E+03  0.00000000000E+00 0. -1.
         11    1    1    2    0    0  0.70617045788E+01  0.36027874265E+01 -0.47025117739E+03  0.47031799623E+03  0.00000000000E+00 0. -1.
        -15    1    1    2    0    0 -0.23943920050E+01 -0.10419806404E+02 -0.49256268473E+01  0.11904831263E+02  0.17770000000E+01 0.  1.
         15    1    1    2    0    0  0.45379586111E+01 -0.19005141588E+01 -0.20896813002E+02  0.21541577126E+02  0.17770000000E+01 0. -1.
</event>
<event>
 6    1  0.1860328E-003  0.5082500E+03  0.7546771E-02  0.9381537E-01
        -11   -1    0    0    0    0  0.00000000000E+00  0.00000000000E+00  0.50000000000E+03  0.50000000000E+03  0.00000000000E+00 0.  1.
         11   -1    0    0    0    0 -0.00000000000E+00 -0.00000000000E+00 -0.50000000000E+03  0.50000000000E+03  0.00000000000E+00 0. -1.
        -11    1    1    2    0    0  0.28576205541E+01  0.10120937982E+02  0.49163751193E+03  0.49174997968E+03  0.00000000000E+00 0.  1.
         11    1    1    2    0    0 -0.12181062929E+02  0.33444384737E+01 -0.47913102096E+03  0.47929750553E+03  0.00000000000E+00 0. -1.
        -15    1    1    2    0    0  0.11030614729E+02 -0.14911057373E+02 -0.15915541830E+02  0.24504617809E+02  0.17770000000E+01 0.  1.
         15    1    1    2    0    0 -0.17071723535E+01  0.14456809168E+01  0.34090508639E+01  0.44478969807E+01  0.17770000000E+01 0. -1.
</event>
<event>
 6    1  0.1860328E-003  0.5049624E+03  0.7546771E-02  0.9388774E-01
        -11   -1    0    0    0    0  0.00000000000E+00  0.00000000000E+00  0.50000000000E+03  0.50000000000E+03  0.00000000000E+00 0. -1.
         11   -1    0    0    0    0 -0.00000000000E+00 -0.00000000000E+00 -0.50000000000E+03  0.50000000000E+03  0.00000000000E+00 0.  1.
        -11    1    1    2    0    0  0.14470589069E+01  0.12851408260E+01  0.83875785765E+02  0.83898110849E+02  0.00000000000E+00 0. -1.
         11    1    1    2    0    0  0.55490474270E+02  0.28720218296E+01 -0.49190930700E+03  0.49503758196E+03  0.00000000000E+00 0.  1.
        -15    1    1    2    0    0 -0.52451049530E+02  0.14737581149E+01  0.10002526669E+03  0.11296679275E+03  0.17770000000E+01 0. -1.
         15    1    1    2    0    0 -0.44864836461E+01 -0.56309207705E+01  0.30800825455E+03  0.30809751444E+03  0.17770000000E+01 0. -1.
</event>
<event>
 6    1  0.1860328E-003  0.5061903E+03  0.7546771E-02  0.9386064E-01
        -11   -1    0    0    0    0  0.00000000000E+00  0.00000000000E+00  0.50000000000E+03  0.50000000000E+03  0.00000000000E+00 0.  1.
         11   -1    0    0    0    0 -0.00000000000E+00 -0.00000000000E+00 -0.50000000000E+03  0.50000000000E+03  0.00000000000E+00 0. -1.
        -11    1    1    2    0    0  0.64084964310E+01 -0.24869464218E+01  0.49376187353E+03  0.49380972194E+03  0.00000000000E+00 0.  1.
         11    1    1    2    0    0  0.53279001746E+01  0.20746755973E+02 -0.38425712915E+03  0.38485368091E+03  0.00000000000E+00 0. -1.
        -15    1    1    2    0    0 -0.49955317413E+01 -0.41807275034E+00  0.37279976326E+01  0.64950610121E+01  0.17770000000E+01 0. -1.
         15    1    1    2    0    0 -0.67408648644E+01 -0.17841736801E+02 -0.11323274201E+03  0.11484153614E+03  0.17770000000E+01 0.  1.
</event>
<event>
 6    1  0.1860328E-003  0.4813984E+03  0.7546771E-02  0.9442422E-01
        -11   -1    0    0    0    0  0.00000000000E+00  0.00000000000E+00  0.50000000000E+03  0.50000000000E+03  0.00000000000E+00 0.  1.
         11   -1    0    0    0    0 -0.00000000000E+00 -0.00000000000E+00 -0.50000000000E+03  0.50000000000E+03  0.00000000000E+00 0. -1.
        -11    1    1    2    0    0 -0.49289457245E+01  0.68823558387E+01  0.47979064069E+03  0.47986531467E+03  0.00000000000E+00 0.  1.
         11    1    1    2    0    0  0.14042223585E+02  0.17028573055E+02 -0.48277178170E+03  0.48327605936E+03  0.00000000000E+00 0. -1.
        -15    1    1    2    0    0  0.58072919021E+01 -0.43868107159E+01  0.87867591583E+01  0.11547017494E+02  0.17770000000E+01 0.  1.
         15    1    1    2    0    0 -0.14920569763E+02 -0.19524118178E+02 -0.58056181477E+01  0.25311608478E+02  0.17770000000E+01 0. -1.
</event>
<event>
 6    1  0.1860328E-003  0.5033165E+03  0.7546771E-02  0.9392419E-01
        -11   -1    0    0    0    0  0.00000000000E+00  0.00000000000E+00  0.50000000000E+03  0.50000000000E+03  0.00000000000E+00 0. -1.
         11   -1    0    0    0    0 -0.00000000000E+00 -0.00000000000E+00 -0.50000000000E+03  0.50000000000E+03  0.00000000000E+00 0.  1.
        -11    1    1    2    0    0 -0.19734640975E+01 -0.81347638056E+01  0.49661300539E+03  0.49668354720E+03  0.00000000000E+00 0. -1.
         11    1    1    2    0    0  0.52874702044E+01 -0.43847124061E+01 -0.41877668287E+03  0.41883301346E+03  0.00000000000E+00 0.  1.
        -15    1    1    2    0    0 -0.77257900104E+00  0.21019156761E+02 -0.67613465119E+02  0.70831774111E+02  0.17770000000E+01 0.  1.
         15    1    1    2    0    0 -0.25414271059E+01 -0.84996805495E+01 -0.10222857398E+02  0.13651665230E+02  0.17770000000E+01 0. -1.
</event>
<event>
 6    1  0.1860328E-003  0.5008832E+03  0.7546771E-02  0.9397836E-01
        -11   -1    0    0    0    0  0.00000000000E+00  0.00000000000E+00  0.50000000000E+03  0.50000000000E+03  0.00000000000E+00 0.  1.
         11   -1    0    0    0    0 -0.00000000000E+00 -0.00000000000E+00 -0.50000000000E+03  0.50000000000E+03  0.00000000000E+00 0. -1.
        -11    1    1    2    0    0  0.28044104228E+01 -0.16941953991E+02  0.49882132014E+03  0.49911682395E+03  0.00000000000E+00 0.  1.
         11    1    1    2    0    0 -0.39702212050E+01 -0.83805908659E+00 -0.26304335006E+03  0.26307464532E+03  0.00000000000E+00 0. -1.
        -15    1    1    2    0    0  0.11230127893E+02  0.14386751708E+01 -0.73134341292E+02  0.74026854343E+02  0.17770000000E+01 0.  1.
         15    1    1    2    0    0 -0.10064317111E+02  0.16341337907E+02 -0.16264362879E+03  0.16378167638E+03  0.17770000000E+01 0. -1.
</event>
<event>
 6    1  0.1860328E-003  0.4763789E+03  0.7546771E-02  0.9454272E-01
        -11   -1    0    0    0    0  0.00000000000E+00  0.00000000000E+00  0.50000000000E+03  0.50000000000E+03  0.00000000000E+00 0. -1.
         11   -1    0    0    0    0 -0.00000000000E+00 -0.00000000000E+00 -0.50000000000E+03  0.50000000000E+03  0.00000000000E+00 0.  1.
        -11    1    1    2    0    0 -0.11412440264E+02  0.14809859907E+02  0.47161387061E+03  0.47198434158E+03  0.00000000000E+00 0. -1.
         11    1    1    2    0    0 -0.59084909660E+01  0.21417439943E+02 -0.48115442116E+03  0.48166709873E+03  0.00000000000E+00 0.  1.
        -15    1    1    2    0    0 -0.42590009960E+01 -0.80347138009E+01 -0.87230171150E+00  0.93066833309E+01  0.17770000000E+01 0. -1.
         15    1    1    2    0    0  0.21579932226E+02 -0.28192586049E+02  0.10412852266E+02  0.37041876360E+02  0.17770000000E+01 0.  1.
</event>
<event>
 6    1  0.1860328E-003  0.5012270E+03  0.7546771E-02  0.9397068E-01
        -11   -1    0    0    0    0  0.00000000000E+00  0.00000000000E+00  0.50000000000E+03  0.50000000000E+03  0.00000000000E+00 0. -1.
         11   -1    0    0    0    0 -0.00000000000E+00 -0.00000000000E+00 -0.50000000000E+03  0.50000000000E+03  0.00000000000E+00 0. -1.
        -11    1    1    2    0    0 -0.10198710236E+02  0.78804161426E+01  0.49860643949E+03  0.49877299060E+03  0.00000000000E+00 0. -1.
         11    1    1    2    0    0 -0.38694368924E+01 -0.54756775663E+01 -0.23972316829E+03  0.23981691558E+03  0.00000000000E+00 0. -1.
        -15    1    1    2    0    0 -0.87131922480E+00  0.11223014105E+01 -0.22015870902E+00  0.22858163760E+01  0.17770000000E+01 0.  1.
         15    1    1    2    0    0  0.14939466353E+02 -0.35270399868E+01 -0.25866311249E+03  0.25912427744E+03  0.17770000000E+01 0. -1.
</event>
<event>
 6    1  0.1860328E-003  0.5003639E+03  0.7546771E-02  0.9398996E-01
        -11   -1    0    0    0    0  0.00000000000E+00  0.00000000000E+00  0.50000000000E+03  0.50000000000E+03  0.00000000000E+00 0.  1.
         11   -1    0    0    0    0 -0.00000000000E+00 -0.00000000000E+00 -0.50000000000E+03  0.50000000000E+03  0.00000000000E+00 0.  1.
        -11    1    1    2    0    0 -0.18432166053E+01  0.80371841255E+01  0.49956805021E+03  0.49963609814E+03  0.00000000000E+00 0.  1.
         11    1    1    2    0    0 -0.40378276938E+01 -0.98775153212E+00 -0.27593723484E+03  0.27596854400E+03  0.00000000000E+00 0.  1.
        -15    1    1    2    0    0  0.29354119248E+00  0.38910267055E+01 -0.11097336983E+03  0.11105616956E+03  0.17770000000E+01 0. -1.
         15    1    1    2    0    0  0.55875031066E+01 -0.10940459299E+02 -0.11265744554E+03  0.11333918830E+03  0.17770000000E+01 0. -1.
</event>
<event>
 6    1  0.1860328E-003  0.5013832E+03  0.7546771E-02  0.9396720E-01
        -11   -1    0    0    0    0  0.00000000000E+00  0.00000000000E+00  0.50000000000E+03  0.50000000000E+03  0.00000000000E+00 0. -1.
         11   -1    0    0    0    0 -0.00000000000E+00 -0.00000000000E+00 -0.50000000000E+03  0.50000000000E+03  0.00000000000E+00 0.  1.
        -11    1    1    2    0    0 -0.13301964390E+02 -0.60073834187E+01  0.49840312348E+03  0.49861679114E+03  0.00000000000E+00 0. -1.
         11    1    1    2    0    0  0.16419015888E+02  0.12304793730E+02 -0.43961244441E+03  0.44009100572E+03  0.00000000000E+00 0.  1.
        -15    1    1    2    0    0  0.32769238632E+01 -0.59517652862E+01 -0.11060783760E+02  0.13101923768E+02  0.17770000000E+01 0. -1.
         15    1    1    2    0    0 -0.63939753609E+01 -0.34564502462E+00 -0.47729895307E+02  0.48190279377E+02  0.17770000000E+01 0.  1.
</event>
<event>
 6    1  0.1860328E-003  0.5034967E+03  0.7546771E-02  0.9392019E-01
        -11   -1    0    0    0    0  0.00000000000E+00  0.00000000000E+00  0.50000000000E+03  0.50000000000E+03  0.00000000000E+00 0. -1.
         11   -1    0    0    0    0 -0.00000000000E+00 -0.00000000000E+00 -0.50000000000E+03  0.50000000000E+03  0.00000000000E+00 0.  1.
        -11    1    1    2    0    0  0.53311123620E+01 -0.13923598791E+02  0.49627938471E+03  0.49650328806E+03  0.00000000000E+00 0. -1.
         11    1    1    2    0    0  0.90942231383E+01  0.51661364216E+01 -0.45819729241E+03  0.45831665105E+03  0.00000000000E+00 0.  1.
        -15    1    1    2    0    0 -0.11471043684E+02  0.86962925148E+01 -0.11869758785E+02  0.18741911570E+02  0.17770000000E+01 0. -1.
         15    1    1    2    0    0 -0.29542918159E+01  0.61169855049E-01 -0.26212333518E+02  0.26438149317E+02  0.17770000000E+01 0.  1.
</event>
<event>
 6    1  0.1860328E-003  0.4822370E+03  0.7546771E-02  0.9440457E-01
        -11   -1    0    0    0    0  0.00000000000E+00  0.00000000000E+00  0.50000000000E+03  0.50000000000E+03  0.00000000000E+00 0. -1.
         11   -1    0    0    0    0 -0.00000000000E+00 -0.00000000000E+00 -0.50000000000E+03  0.50000000000E+03  0.00000000000E+00 0.  1.
        -11    1    1    2    0    0 -0.51155584096E+01  0.23289656558E+02  0.47835647525E+03  0.47895040918E+03  0.00000000000E+00 0. -1.
         11    1    1    2    0    0  0.21774523345E+02 -0.22978523109E+01 -0.48542817801E+03  0.48592172826E+03  0.00000000000E+00 0.  1.
        -15    1    1    2    0    0 -0.10071638503E+02 -0.80822500136E+01 -0.70456971660E+01  0.14817565420E+02  0.17770000000E+01 0. -1.
         15    1    1    2    0    0 -0.65873264331E+01 -0.12909554234E+02  0.14117399926E+02  0.20310297136E+02  0.17770000000E+01 0.  1.
</event>
<event>
 6    1  0.1860328E-003  0.5048270E+03  0.7546771E-02  0.9389073E-01
        -11   -1    0    0    0    0  0.00000000000E+00  0.00000000000E+00  0.50000000000E+03  0.50000000000E+03  0.00000000000E+00 0.  1.
         11   -1    0    0    0    0 -0.00000000000E+00 -0.00000000000E+00 -0.50000000000E+03  0.50000000000E+03  0.00000000000E+00 0. -1.
        -11    1    1    2    0    0  0.97050763250E+01 -0.11677218001E+02  0.49494017069E+03  0.49517301874E+03  0.00000000000E+00 0.  1.
         11    1    1    2    0    0 -0.41983773133E+01 -0.73830286418E+01 -0.37378572405E+03  0.37388220470E+03  0.00000000000E+00 0. -1.
        -15    1    1    2    0    0  0.85961152046E+01 -0.20020184553E+01 -0.91291133832E+02  0.91734018335E+02  0.17770000000E+01 0. -1.
         15    1    1    2    0    0 -0.14102814216E+02  0.21062265098E+02 -0.29863312808E+02  0.39210758227E+02  0.17770000000E+01 0.  1.
</event>
<event>
 6    1  0.1860328E-003  0.5084317E+03  0.7546771E-02  0.9381138E-01
        -11   -1    0    0    0    0  0.00000000000E+00  0.00000000000E+00  0.50000000000E+03  0.50000000000E+03  0.00000000000E+00 0.  1.
         11   -1    0    0    0    0 -0.00000000000E+00 -0.00000000000E+00 -0.50000000000E+03  0.50000000000E+03  0.00000000000E+00 0.  1.
        -11    1    1    2    0    0 -0.14256506277E+02  0.13811660997E+02  0.39468960236E+03  0.39518842614E+03  0.00000000000E+00 0.  1.
         11    1    1    2    0    0  0.57709753979E+01  0.87413462019E+01 -0.49145672676E+03  0.49156833662E+03  0.00000000000E+00 0.  1.
        -15    1    1    2    0    0 -0.10456164760E+02 -0.34418530161E+02  0.53193452533E+02  0.64239144774E+02  0.17770000000E+01 0.  1.
         15    1    1    2    0    0  0.18941695639E+02  0.11865522962E+02  0.43573671870E+02  0.49004092463E+02  0.17770000000E+01 0. -1.
</event>
<event>
 6    1  0.1860328E-003  0.5068408E+03  0.7546771E-02  0.9384632E-01
        -11   -1    0    0    0    0  0.00000000000E+00  0.00000000000E+00  0.50000000000E+03  0.50000000000E+03  0.00000000000E+00 0.  1.
         11   -1    0    0    0    0 -0.00000000000E+00 -0.00000000000E+00 -0.50000000000E+03  0.50000000000E+03  0.00000000000E+00 0.  1.
        -11    1    1    2    0    0  0.11630862715E+02  0.31537521100E+01  0.45485008126E+03  0.45500969170E+03  0.00000000000E+00 0.  1.
         11    1    1    2    0    0 -0.70806389231E+01 -0.26435859071E+01 -0.49310130606E+03  0.49315922584E+03  0.00000000000E+00 0.  1.
        -15    1    1    2    0    0 -0.43970594954E+01  0.83735803885E+01  0.41194814765E+02  0.42303917942E+02  0.17770000000E+01 0. -1.
         15    1    1    2    0    0 -0.15316429633E+00 -0.88837465914E+01 -0.29435899694E+01  0.95271645157E+01  0.17770000000E+01 0.  1.
</event>
<event>
 6    1  0.1860328E-003  0.5028278E+03  0.7546771E-02  0.9393504E-01
        -11   -1    0    0    0    0  0.00000000000E+00  0.00000000000E+00  0.50000000000E+03  0.50000000000E+03  0.00000000000E+00 0. -1.
         11   -1    0    0    0    0 -0.00000000000E+00 -0.00000000000E+00 -0.50000000000E+03  0.50000000000E+03  0.00000000000E+00 0. -1.
        -11    1    1    2    0    0  0.41584848631E+01 -0.27259022758E+01  0.25475819541E+03  0.25480671433E+03  0.00000000000E+00 0. -1.
         11    1    1    2    0    0 -0.11597411692E+02 -0.28597532712E+02 -0.49621349634E+03  0.49717215608E+03  0.00000000000E+00 0. -1.
        -15    1    1    2    0    0  0.29350301876E+01  0.78361067690E+01  0.41511954349E+01  0.95083712609E+01  0.17770000000E+01 0. -1.
         15    1    1    2    0    0  0.45038966413E+01  0.23487328219E+02  0.23730410550E+03  0.23851275833E+03  0.17770000000E+01 0.  1.
</event>
<event>
 6    1  0.1860328E-003  0.5052204E+03  0.7546771E-02  0.9388204E-01
        -11   -1    0    0    0    0  0.00000000000E+00  0.00000000000E+00  0.50000000000E+03  0.50000000000E+03  0.00000000000E+00 0. -1.
         11   -1    0    0    0    0 -0.00000000000E+00 -0.00000000000E+00 -0.50000000000E+03  0.50000000000E+03  0.00000000000E+00 0. -1.
        -11    1    1    2    0    0  0.38376267157E+01  0.61909954355E+01  0.47845342496E+03  0.47850886686E+03  0.00000000000E+00 0. -1.
         11    1    1    2    0    0  0.66784305899E+01 -0.24867089400E+00 -0.49473451243E+03  0.49477964900E+03  0.00000000000E+00 0. -1.
        -15    1    1    2    0    0  0.28952423689E+01  0.19450151658E+00 -0.13462398620E+01  0.36592827139E+01  0.17770000000E+01 0. -1.
         15    1    1    2    0    0 -0.13411299674E+02 -0.61368260581E+01  0.17627327331E+02  0.23052201432E+02  0.17770000000E+01 0.  1.
</event>
<event>
 6    1  0.1860328E-003  0.5008913E+03  0.7546771E-02  0.9397818E-01
        -11   -1    0    0    0    0  0.00000000000E+00  0.00000000000E+00  0.50000000000E+03  0.50000000000E+03  0.00000000000E+00 0. -1.
         11   -1    0    0    0    0 -0.00000000000E+00 -0.00000000000E+00 -0.50000000000E+03  0.50000000000E+03  0.00000000000E+00 0. -1.
        -11    1    1    2    0    0 -0.26102268456E+01 -0.46409679001E+01  0.38883561268E+03  0.38887206837E+03  0.00000000000E+00 0. -1.
         11    1    1    2    0    0 -0.61694454998E+01 -0.54717889201E+01 -0.49904059993E+03  0.49910872854E+03  0.00000000000E+00 0. -1.
        -15    1    1    2    0    0  0.10948749997E+02  0.35683599816E+01  0.86096173309E+02  0.86881051484E+02  0.17770000000E+01 0. -1.
         15    1    1    2    0    0 -0.21690776513E+01  0.65443968387E+01  0.24108813933E+02  0.25138151605E+02  0.17770000000E+01 0.  1.
</event>
<event>
 6    1  0.1860328E-003  0.5086473E+03  0.7546771E-02  0.9380666E-01
        -11   -1    0    0    0    0  0.00000000000E+00  0.00000000000E+00  0.50000000000E+03  0.50000000000E+03  0.00000000000E+00 0.  1.
         11   -1    0    0    0    0 -0.00000000000E+00 -0.00000000000E+00 -0.50000000000E+03  0.50000000000E+03  0.00000000000E+00 0.  1.
        -11    1    1    2    0    0 -0.17877515186E+02 -0.10097714246E+02  0.39629461321E+03  0.39682614561E+03  0.00000000000E+00 0.  1.
         11    1    1    2    0    0  0.20692031945E+02  0.26128450387E+01 -0.49090985976E+03  0.49135270179E+03  0.00000000000E+00 0.  1.
        -15    1    1    2    0    0 -0.76185913491E+01  0.76900725904E+01 -0.50130668230E+01  0.12061041355E+02  0.17770000000E+01 0. -1.
         15    1    1    2    0    0  0.48040745906E+01 -0.20520338280E+00  0.99628313372E+02  0.99760111244E+02  0.17770000000E+01 0.  1.
</event>
<event>
 6    1  0.1860328E-003  0.5045950E+03  0.7546771E-02  0.9389586E-01
        -11   -1    0    0    0    0  0.00000000000E+00  0.00000000000E+00  0.50000000000E+03  0.50000000000E+03  0.00000000000E+00 0. -1.
         11   -1    0    0    0    0 -0.00000000000E+00 -0.00000000000E+00 -0.50000000000E+03  0.50000000000E+03  0.00000000000E+00 0.  1.
        -11    1    1    2    0    0  0.83254501572E+01  0.21253965899E+00  0.49533501598E+03  0.49540502253E+03  0.00000000000E+00 0. -1.
         11    1    1    2    0    0 -0.87804222233E+01 -0.40934084979E+01 -0.47927606388E+03  0.47937396385E+03  0.00000000000E+00 0.  1.
        -15    1    1    2    0    0  0.63383618627E+01  0.91644943004E+01 -0.83686439575E+01  0.14048299455E+02  0.17770000000E+01 0.  1.
         15    1    1    2    0    0 -0.58833897966E+01 -0.52836254615E+01 -0.76903081403E+01  0.11172714165E+02  0.17770000000E+01 0. -1.
</event>
<event>
 6    1  0.1860328E-003  0.5014322E+03  0.7546771E-02  0.9396611E-01
        -11   -1    0    0    0    0  0.00000000000E+00  0.00000000000E+00  0.50000000000E+03  0.50000000000E+03  0.00000000000E+00 0.  1.
         11   -1    0    0    0    0 -0.00000000000E+00 -0.00000000000E+00 -0.50000000000E+03  0.50000000000E+03  0.00000000000E+00 0.  1.
        -11    1    1    2    0    0 -0.94640264719E+01  0.22178695889E+01  0.49847307324E+03  0.49856784041E+03  0.00000000000E+00 0.  1.
         11    1    1    2    0    0  0.11986690708E+02 -0.26126566944E+01 -0.40484381603E+03  0.40502965584E+03  0.00000000000E+00 0.  1.
        -15    1    1    2    0    0 -0.95409116884E+01  0.39242136917E+01 -0.79104011668E+02  0.79793676691E+02  0.17770000000E+01 0.  1.
         15    1    1    2    0    0  0.70182474522E+01 -0.35294265862E+01 -0.14525245544E+02  0.16608827064E+02  0.17770000000E+01 0. -1.
</event>
<event>
 6    1  0.1860328E-003  0.4878476E+03  0.7546771E-02  0.9427420E-01
        -11   -1    0    0    0    0  0.00000000000E+00  0.00000000000E+00  0.50000000000E+03  0.50000000000E+03  0.00000000000E+00 0.  1.
         11   -1    0    0    0    0 -0.00000000000E+00 -0.00000000000E+00 -0.50000000000E+03  0.50000000000E+03  0.00000000000E+00 0. -1.
        -11    1    1    2    0    0 -0.51083014892E+01  0.87870114140E+01  0.49163755293E+03  0.49174260520E+03  0.00000000000E+00 0.  1.
         11    1    1    2    0    0 -0.78171490017E+01  0.32700316241E+01 -0.48406786507E+03  0.48414202350E+03  0.00000000000E+00 0. -1.
        -15    1    1    2    0    0  0.31404265898E+01  0.11632295822E+01 -0.65158918826E+01  0.75385647342E+01  0.17770000000E+01 0.  1.
         15    1    1    2    0    0  0.97850239011E+01 -0.13220272620E+02 -0.10537959749E+01  0.16576806564E+02  0.17770000000E+01 0. -1.
</event>
<event>
 6    1  0.1860328E-003  0.5113189E+03  0.7546771E-02  0.9374833E-01
        -11   -1    0    0    0    0  0.00000000000E+00  0.00000000000E+00  0.50000000000E+03  0.50000000000E+03  0.00000000000E+00 0.  1.
         11   -1    0    0    0    0 -0.00000000000E+00 -0.00000000000E+00 -0.50000000000E+03  0.50000000000E+03  0.00000000000E+00 0. -1.
        -11    1    1    2    0    0  0.42962119756E+02  0.51254932393E+01  0.35955237094E+03  0.36214627137E+03  0.00000000000E+00 0.  1.
         11    1    1    2    0    0  0.15356163033E+02 -0.26147883144E+02 -0.48773934148E+03  0.48868107060E+03  0.00000000000E+00 0. -1.
        -15    1    1    2    0    0 -0.22999093629E+02  0.55221964770E+01  0.96054161733E+02  0.98939439441E+02  0.17770000000E+01 0.  1.
         15    1    1    2    0    0 -0.35319189160E+02  0.15500193427E+02  0.32132808805E+02  0.50233218589E+02  0.17770000000E+01 0. -1.
</event>
<event>
 6    1  0.1860328E-003  0.2906296E+03  0.7546771E-02  0.1004957E+00
        -11   -1    0    0    0    0  0.00000000000E+00  0.00000000000E+00  0.50000000000E+03  0.50000000000E+03  0.00000000000E+00 0.  1.
         11   -1    0    0    0    0 -0.00000000000E+00 -0.00000000000E+00 -0.50000000000E+03  0.50000000000E+03  0.00000000000E+00 0.  1.
        -11    1    1    2    0    0 -0.36762842842E+01  0.83908720359E+01  0.20188920485E+03  0.20209693920E+03  0.00000000000E+00 0.  1.
         11    1    1    2    0    0  0.97434778980E+02  0.11433006959E+02 -0.36719267515E+03  0.38007198066E+03  0.00000000000E+00 0.  1.
        -15    1    1    2    0    0 -0.15789719073E+03 -0.50199358126E+02 -0.64125417132E+02  0.17767027114E+03  0.17770000000E+01 0. -1.
         15    1    1    2    0    0  0.64138696034E+02  0.30375479131E+02  0.22942888743E+03  0.24016080900E+03  0.17770000000E+01 0.  1.
</event>
<event>
 6    1  0.1860328E-003  0.4877187E+03  0.7546771E-02  0.9427717E-01
        -11   -1    0    0    0    0  0.00000000000E+00  0.00000000000E+00  0.50000000000E+03  0.50000000000E+03  0.00000000000E+00 0.  1.
         11   -1    0    0    0    0 -0.00000000000E+00 -0.00000000000E+00 -0.50000000000E+03  0.50000000000E+03  0.00000000000E+00 0.  1.
        -11    1    1    2    0    0  0.75708151451E+01 -0.37079911464E+01  0.48447640407E+03  0.48454974207E+03  0.00000000000E+00 0.  1.
         11    1    1    2    0    0  0.10002302968E+02 -0.29884816284E+01 -0.49097962258E+03  0.49109058928E+03  0.00000000000E+00 0.  1.
        -15    1    1    2    0    0 -0.16531337172E+02  0.17429661189E+00  0.49020117604E+01  0.17335020516E+02  0.17770000000E+01 0. -1.
         15    1    1    2    0    0 -0.10417809406E+01  0.65221761630E+01  0.16012067519E+01  0.70246481400E+01  0.17770000000E+01 0.  1.
</event>
<event>
 6    1  0.1860328E-003  0.5036811E+03  0.7546771E-02  0.9391611E-01
        -11   -1    0    0    0    0  0.00000000000E+00  0.00000000000E+00  0.50000000000E+03  0.50000000000E+03  0.00000000000E+00 0.  1.
         11   -1    0    0    0    0 -0.00000000000E+00 -0.00000000000E+00 -0.50000000000E+03  0.50000000000E+03  0.00000000000E+00 0.  1.
        -11    1    1    2    0    0  0.28904611806E+01 -0.78873546491E+01  0.40329332455E+03  0.40338080118E+03  0.00000000000E+00 0.  1.
         11    1    1    2    0    0  0.13578648743E+02  0.11080700020E+02 -0.49600940430E+03  0.49631894057E+03  0.00000000000E+00 0.  1.
        -15    1    1    2    0    0  0.11805276361E+01  0.49954184496E+01  0.70525250757E+02  0.70734125953E+02  0.17770000000E+01 0. -1.
         15    1    1    2    0    0 -0.17649637560E+02 -0.81887638209E+01  0.22190828990E+02  0.29566132300E+02  0.17770000000E+01 0.  1.
</event>
<event>
 6    1  0.1860328E-003  0.5116481E+03  0.7546771E-02  0.9374117E-01
        -11   -1    0    0    0    0  0.00000000000E+00  0.00000000000E+00  0.50000000000E+03  0.50000000000E+03  0.00000000000E+00 0. -1.
         11   -1    0    0    0    0 -0.00000000000E+00 -0.00000000000E+00 -0.50000000000E+03  0.50000000000E+03  0.00000000000E+00 0.  1.
        -11    1    1    2    0    0  0.12876911641E+02 -0.66692039648E+01  0.48813658037E+03  0.48835193685E+03  0.00000000000E+00 0. -1.
         11    1    1    2    0    0  0.51115059312E+01 -0.36518172432E+01 -0.27977556408E+03  0.27984608184E+03  0.00000000000E+00 0.  1.
        -15    1    1    2    0    0 -0.23856706083E+01  0.82323418881E+01 -0.21459806081E+03  0.21477650782E+03  0.17770000000E+01 0.  1.
         15    1    1    2    0    0 -0.15602746964E+02  0.20886793199E+01  0.62370445257E+01  0.17025473490E+02  0.17770000000E+01 0. -1.
</event>
<event>
 6    1  0.1860328E-003  0.5272249E+03  0.7546771E-02  0.9340871E-01
        -11   -1    0    0    0    0  0.00000000000E+00  0.00000000000E+00  0.50000000000E+03  0.50000000000E+03  0.00000000000E+00 0. -1.
         11   -1    0    0    0    0 -0.00000000000E+00 -0.00000000000E+00 -0.50000000000E+03  0.50000000000E+03  0.00000000000E+00 0.  1.
        -11    1    1    2    0    0  0.11682865948E+02 -0.84077046169E+01  0.47255594081E+03  0.47277510092E+03  0.00000000000E+00 0. -1.
         11    1    1    2    0    0 -0.91642743957E+01  0.15245861240E+02 -0.45275996740E+03  0.45310926749E+03  0.00000000000E+00 0.  1.
        -15    1    1    2    0    0  0.28692074930E+01 -0.11831832901E+02 -0.45598328395E+02  0.47229121344E+02  0.17770000000E+01 0. -1.
         15    1    1    2    0    0 -0.53877990448E+01  0.49936762776E+01  0.25802354982E+02  0.26886510241E+02  0.17770000000E+01 0.  1.
</event>
<event>
 6    1  0.1860328E-003  0.5210652E+03  0.7546771E-02  0.9353870E-01
        -11   -1    0    0    0    0  0.00000000000E+00  0.00000000000E+00  0.50000000000E+03  0.50000000000E+03  0.00000000000E+00 0. -1.
         11   -1    0    0    0    0 -0.00000000000E+00 -0.00000000000E+00 -0.50000000000E+03  0.50000000000E+03  0.00000000000E+00 0. -1.
        -11    1    1    2    0    0  0.69170579362E+01  0.37465583508E+01  0.46879681600E+03  0.46886281264E+03  0.00000000000E+00 0. -1.
         11    1    1    2    0    0 -0.18537081731E+02 -0.81980952175E+01 -0.47850566299E+03  0.47893475722E+03  0.00000000000E+00 0. -1.
        -15    1    1    2    0    0 -0.38003972969E+01  0.17508384471E+02 -0.12657695691E+02  0.22008215185E+02  0.17770000000E+01 0.  1.
         15    1    1    2    0    0  0.15420421092E+02 -0.13056847604E+02  0.22366542679E+02  0.30194214950E+02  0.17770000000E+01 0. -1.
</event>
<event>
 6    1  0.1860328E-003  0.5011807E+03  0.7546771E-02  0.9397172E-01
        -11   -1    0    0    0    0  0.00000000000E+00  0.00000000000E+00  0.50000000000E+03  0.50000000000E+03  0.00000000000E+00 0.  1.
         11   -1    0    0    0    0 -0.00000000000E+00 -0.00000000000E+00 -0.50000000000E+03  0.50000000000E+03  0.00000000000E+00 0.  1.
        -11    1    1    2    0    0  0.10946352201E+02  0.93992220961E+01  0.34375925563E+03  0.34406190407E+03  0.00000000000E+00 0.  1.
         11    1    1    2    0    0 -0.74177553754E+01 -0.86198761564E+01 -0.49868961870E+03  0.49881926703E+03  0.00000000000E+00 0.  1.
        -15    1    1    2    0    0  0.29163273695E+01 -0.72652685760E+01  0.13362940835E+03  0.13387033128E+03  0.17770000000E+01 0. -1.
         15    1    1    2    0    0 -0.64449241948E+01  0.64859226363E+01  0.21300954730E+02  0.23248497623E+02  0.17770000000E+01 0.  1.
</event>
<event>
 6    1  0.1860328E-003  0.5048973E+03  0.7546771E-02  0.9388918E-01
        -11   -1    0    0    0    0  0.00000000000E+00  0.00000000000E+00  0.50000000000E+03  0.50000000000E+03  0.00000000000E+00 0. -1.
         11   -1    0    0    0    0 -0.00000000000E+00 -0.00000000000E+00 -0.50000000000E+03  0.50000000000E+03  0.00000000000E+00 0.  1.
        -11    1    1    2    0    0 -0.75941418569E+01  0.13948730237E+01  0.49504252524E+03  0.49510273526E+03  0.00000000000E+00 0. -1.
         11    1    1    2    0    0 -0.67274365770E+01 -0.39449866699E+01 -0.48498565642E+03  0.48504835661E+03  0.00000000000E+00 0.  1.
        -15    1    1    2    0    0  0.10843731178E+02  0.53482951001E+01 -0.62946651215E+01  0.13746683394E+02  0.17770000000E+01 0.  1.
         15    1    1    2    0    0  0.34778472562E+01 -0.27981814539E+01 -0.37622037045E+01  0.61022247337E+01  0.17770000000E+01 0. -1.
</event>
<event>
 6    1  0.1860328E-003  0.5117567E+03  0.7546771E-02  0.9373881E-01
        -11   -1    0    0    0    0  0.00000000000E+00  0.00000000000E+00  0.50000000000E+03  0.50000000000E+03  0.00000000000E+00 0. -1.
         11   -1    0    0    0    0 -0.00000000000E+00 -0.00000000000E+00 -0.50000000000E+03  0.50000000000E+03  0.00000000000E+00 0. -1.
        -11    1    1    2    0    0 -0.29885860310E+01  0.45199603296E+02  0.48166091164E+03  0.48378628504E+03  0.00000000000E+00 0. -1.
         11    1    1    2    0    0 -0.10718985002E+01 -0.16338432029E+01 -0.82578888355E+01  0.84859376634E+01  0.00000000000E+00 0. -1.
        -15    1    1    2    0    0 -0.23234595485E+02  0.24806649418E+02 -0.40745440585E+03  0.40887341178E+03  0.17770000000E+01 0. -1.
         15    1    1    2    0    0  0.27295080016E+02 -0.68372409512E+02 -0.65948616959E+02  0.98854365525E+02  0.17770000000E+01 0.  1.
</event>
<event>
 6    1  0.1860328E-003  0.5151724E+03  0.7546771E-02  0.9366486E-01
        -11   -1    0    0    0    0  0.00000000000E+00  0.00000000000E+00  0.50000000000E+03  0.50000000000E+03  0.00000000000E+00 0.  1.
         11   -1    0    0    0    0 -0.00000000000E+00 -0.00000000000E+00 -0.50000000000E+03  0.50000000000E+03  0.00000000000E+00 0.  1.
        -11    1    1    2    0    0  0.58167675418E+01 -0.30321108576E+01  0.45583377439E+03  0.45588096950E+03  0.00000000000E+00 0.  1.
         11    1    1    2    0    0 -0.19688169168E+02 -0.94192678251E+01 -0.48433614486E+03  0.48482764755E+03  0.00000000000E+00 0.  1.
        -15    1    1    2    0    0 -0.52529911417E+01  0.19965028134E+01  0.35766258552E+02  0.36248626446E+02  0.17770000000E+01 0.  1.
         15    1    1    2    0    0  0.19124392768E+02  0.10454875869E+02 -0.72638880746E+01  0.23042756500E+02  0.17770000000E+01 0. -1.
</event>
<event>
 6    1  0.1860328E-003  0.5090405E+03  0.7546771E-02  0.9379805E-01
        -11   -1    0    0    0    0  0.00000000000E+00  0.00000000000E+00  0.50000000000E+03  0.50000000000E+03  0.00000000000E+00 0. -1.
         11   -1    0    0    0    0 -0.00000000000E+00 -0.00000000000E+00 -0.50000000000E+03  0.50000000000E+03  0.00000000000E+00 0. -1.
        -11    1    1    2    0    0 -0.24048363475E+01 -0.83901897172E+01  0.48058067993E+03  0.48065993014E+03  0.00000000000E+00 0. -1.
         11    1    1    2    0    0 -0.29450944918E+01  0.81567054571E+01 -0.49088294409E+03  0.49095954032E+03  0.00000000000E+00 0. -1.
        -15    1    1    2    0    0 -0.65409696264E+00 -0.92092706567E+01 -0.39289958177E+01  0.10189859960E+02  0.17770000000E+01 0. -1.
         15    1    1    2    0    0  0.60040278020E+01  0.94427549169E+01  0.14231259977E+02  0.18190669581E+02  0.17770000000E+01 0.  1.
</event>
<event>
 6    1  0.1860328E-003  0.5030406E+03  0.7546771E-02  0.9393032E-01
        -11   -1    0    0    0    0  0.00000000000E+00  0.00000000000E+00  0.50000000000E+03  0.50000000000E+03  0.00000000000E+00 0.  1.
         11   -1    0    0    0    0 -0.00000000000E+00 -0.00000000000E+00 -0.50000000000E+03  0.50000000000E+03  0.00000000000E+00 0. -1.
        -11    1    1    2    0    0  0.23658861387E+02  0.20518079925E+01  0.49639164261E+03  0.49695936905E+03  0.00000000000E+00 0.  1.
         11    1    1    2    0    0 -0.20927699904E+02  0.34233347251E+01 -0.43580566731E+03  0.43632128930E+03  0.00000000000E+00 0. -1.
        -15    1    1    2    0    0 -0.13725853956E+02 -0.60333346762E+01 -0.45634391636E+02  0.48067199035E+02  0.17770000000E+01 0. -1.
         15    1    1    2    0    0  0.10994692472E+02  0.55819195868E+00 -0.14951583666E+02  0.18652142610E+02  0.17770000000E+01 0.  1.
</event>
<event>
 6    1  0.1860328E-003  0.5060580E+03  0.7546771E-02  0.9386356E-01
        -11   -1    0    0    0    0  0.00000000000E+00  0.00000000000E+00  0.50000000000E+03  0.50000000000E+03  0.00000000000E+00 0.  1.
         11   -1    0    0    0    0 -0.00000000000E+00 -0.00000000000E+00 -0.50000000000E+03  0.50000000000E+03  0.00000000000E+00 0. -1.
        -11    1    1    2    0    0 -0.13598928156E+02 -0.18655148897E+00  0.49375470453E+03  0.49394197422E+03  0.00000000000E+00 0.  1.
         11    1    1    2    0    0  0.15689487888E+02 -0.71857396552E+01 -0.43422194202E+03  0.43456471303E+03  0.00000000000E+00 0. -1.
        -15    1    1    2    0    0 -0.88662442470E+01  0.14558912107E+02 -0.59005131060E+02  0.61443758261E+02  0.17770000000E+01 0.  1.
         15    1    1    2    0    0  0.67756845152E+01 -0.71866209632E+01 -0.52763145272E+00  0.10049554491E+02  0.17770000000E+01 0. -1.
</event>
<event>
 6    1  0.1860328E-003  0.5008044E+03  0.7546771E-02  0.9398012E-01
        -11   -1    0    0    0    0  0.00000000000E+00  0.00000000000E+00  0.50000000000E+03  0.50000000000E+03  0.00000000000E+00 0. -1.
         11   -1    0    0    0    0 -0.00000000000E+00 -0.00000000000E+00 -0.50000000000E+03  0.50000000000E+03  0.00000000000E+00 0.  1.
        -11    1    1    2    0    0  0.13130294886E+02 -0.67070626289E+01  0.49897777809E+03  0.49919556525E+03  0.00000000000E+00 0. -1.
         11    1    1    2    0    0 -0.30611927112E+01  0.30102990356E+01 -0.14497348629E+03  0.14503704537E+03  0.00000000000E+00 0.  1.
        -15    1    1    2    0    0 -0.11859059607E+02 -0.21845173028E+01 -0.42917470032E+02  0.44614755111E+02  0.17770000000E+01 0. -1.
         15    1    1    2    0    0  0.17899574322E+01  0.58812808961E+01 -0.31108682176E+03  0.31115263428E+03  0.17770000000E+01 0.  1.
</event>
<event>
 6    1  0.1860328E-003  0.5013679E+03  0.7546771E-02  0.9396754E-01
        -11   -1    0    0    0    0  0.00000000000E+00  0.00000000000E+00  0.50000000000E+03  0.50000000000E+03  0.00000000000E+00 0. -1.
         11   -1    0    0    0    0 -0.00000000000E+00 -0.00000000000E+00 -0.50000000000E+03  0.50000000000E+03  0.00000000000E+00 0.  1.
        -11    1    1    2    0    0  0.88557130519E+01 -0.78944725771E+01  0.49849090661E+03  0.49863205906E+03  0.00000000000E+00 0. -1.
         11    1    1    2    0    0 -0.23113451595E+01  0.34993067254E+01 -0.28069395694E+03  0.28072528373E+03  0.00000000000E+00 0.  1.
        -15    1    1    2    0    0  0.11287251760E+01  0.17851071589E+02 -0.81606621627E+02  0.83562750073E+02  0.17770000000E+01 0. -1.
         15    1    1    2    0    0 -0.76730930684E+01 -0.13455905737E+02 -0.13619032805E+03  0.13707990713E+03  0.17770000000E+01 0.  1.
</event>
<event>
 6    1  0.1860328E-003  0.5041844E+03  0.7546771E-02  0.9390495E-01
        -11   -1    0    0    0    0  0.00000000000E+00  0.00000000000E+00  0.50000000000E+03  0.50000000000E+03  0.00000000000E+00 0.  1.
         11   -1    0    0    0    0 -0.00000000000E+00 -0.00000000000E+00 -0.50000000000E+03  0.50000000000E+03  0.00000000000E+00 0. -1.
        -11    1    1    2    0    0 -0.61514399786E+01  0.82831811355E+01  0.49570820850E+03  0.49581556982E+03  0.00000000000E+00 0.  1.
         11    1    1    2    0    0 -0.33687983864E+01  0.22651028644E+01 -0.25661660093E+03  0.25664870810E+03  0.00000000000E+00 0. -1.
        -15    1    1    2    0    0 -0.21671191544E+02 -0.74847898132E+01 -0.41318676197E+02  0.47286925816E+02  0.17770000000E+01 0.  1.
         15    1    1    2    0    0  0.31191429909E+02 -0.30634941867E+01 -0.19777293137E+03  0.20024879627E+03  0.17770000000E+01 0. -1.
</event>
<event>
 6    1  0.1860328E-003  0.5028317E+03  0.7546771E-02  0.9393496E-01
        -11   -1    0    0    0    0  0.00000000000E+00  0.00000000000E+00  0.50000000000E+03  0.50000000000E+03  0.00000000000E+00 0.  1.
         11   -1    0    0    0    0 -0.00000000000E+00 -0.00000000000E+00 -0.50000000000E+03  0.50000000000E+03  0.00000000000E+00 0. -1.
        -11    1    1    2    0    0  0.35659577860E+02 -0.18984685614E+02  0.49552428615E+03  0.49716832355E+03  0.00000000000E+00 0.  1.
         11    1    1    2    0    0 -0.44603344771E+00 -0.78598457475E+00 -0.58755847178E+02  0.58762796864E+02  0.00000000000E+00 0. -1.
        -15    1    1    2    0    0  0.65533950030E+01 -0.20564554914E+02 -0.14046791738E+03  0.14212755344E+03  0.17770000000E+01 0.  1.
         15    1    1    2    0    0 -0.41766939415E+02  0.40335225103E+02 -0.29630052159E+03  0.30194132615E+03  0.17770000000E+01 0. -1.
</event>
<event>
 6    1  0.1860328E-003  0.5121288E+03  0.7546771E-02  0.9373072E-01
        -11   -1    0    0    0    0  0.00000000000E+00  0.00000000000E+00  0.50000000000E+03  0.50000000000E+03  0.00000000000E+00 0.  1.
         11   -1    0    0    0    0 -0.00000000000E+00 -0.00000000000E+00 -0.50000000000E+03  0.50000000000E+03  0.00000000000E+00 0.  1.
        -11    1    1    2    0    0 -0.27886515987E+02  0.13528788417E+02  0.37050663962E+03  0.37180082826E+03  0.00000000000E+00 0.  1.
         11    1    1    2    0    0  0.11885969567E+02 -0.12347580973E+02 -0.48757010883E+03  0.48787124332E+03  0.00000000000E+00 0.  1.
        -15    1    1    2    0    0  0.15021654964E+02  0.48246034701E+00  0.12809640283E+03  0.12898732120E+03  0.17770000000E+01 0.  1.
         15    1    1    2    0    0  0.97889145568E+00 -0.16636677910E+01 -0.11032933614E+02  0.11340607221E+02  0.17770000000E+01 0. -1.
</event>
<event>
 6    1  0.1860328E-003  0.5002574E+03  0.7546771E-02  0.9399234E-01
        -11   -1    0    0    0    0  0.00000000000E+00  0.00000000000E+00  0.50000000000E+03  0.50000000000E+03  0.00000000000E+00 0.  1.
         11   -1    0    0    0    0 -0.00000000000E+00 -0.00000000000E+00 -0.50000000000E+03  0.50000000000E+03  0.00000000000E+00 0.  1.
        -11    1    1    2    0    0  0.46831445613E+01  0.55227726570E+01  0.49969008980E+03  0.49974255242E+03  0.00000000000E+00 0.  1.
         11    1    1    2    0    0 -0.94467765952E+00  0.36579736065E+00 -0.33765153771E+02  0.33780346842E+02  0.00000000000E+00 0.  1.
        -15    1    1    2    0    0  0.11583381465E+01 -0.98613811233E+01 -0.10293398427E+03  0.10342703434E+03  0.17770000000E+01 0. -1.
         15    1    1    2    0    0 -0.48968050483E+01  0.39728111056E+01 -0.36299095175E+03  0.36305006640E+03  0.17770000000E+01 0.  1.
</event>
<event>
 6    1  0.1860328E-003  0.5042227E+03  0.7546771E-02  0.9390410E-01
        -11   -1    0    0    0    0  0.00000000000E+00  0.00000000000E+00  0.50000000000E+03  0.50000000000E+03  0.00000000000E+00 0.  1.
         11   -1    0    0    0    0 -0.00000000000E+00 -0.00000000000E+00 -0.50000000000E+03  0.50000000000E+03  0.00000000000E+00 0.  1.
        -11    1    1    2    0    0 -0.10838981689E+02 -0.74228130784E+01  0.44052301643E+03  0.44071885560E+03  0.00000000000E+00 0.  1.
         11    1    1    2    0    0 -0.62869305264E+01  0.60259439625E+01 -0.49570081620E+03  0.49577730553E+03  0.00000000000E+00 0.  1.
        -15    1    1    2    0    0  0.11152473061E+02 -0.37185440210E+00  0.55858521562E+02  0.56989894640E+02  0.17770000000E+01 0. -1.
         15    1    1    2    0    0  0.59734391548E+01  0.17687235180E+01 -0.68072178712E+00  0.65139442253E+01  0.17770000000E+01 0.  1.
</event>
<event>
 6    1  0.1860328E-003  0.5002231E+03  0.7546771E-02  0.9399311E-01
        -11   -1    0    0    0    0  0.00000000000E+00  0.00000000000E+00  0.50000000000E+03  0.50000000000E+03  0.00000000000E+00 0. -1.
         11   -1    0    0    0    0 -0.00000000000E+00 -0.00000000000E+00 -0.50000000000E+03  0.50000000000E+03  0.00000000000E+00 0. -1.
        -11    1    1    2    0    0 -0.27639181666E+01 -0.73173108343E+01  0.14114208606E+03  0.14135865994E+03  0.00000000000E+00 0. -1.
         11    1    1    2    0    0  0.59487575355E+01  0.55776110582E+01 -0.49971041660E+03  0.49977694816E+03  0.00000000000E+00 0. -1.
        -15    1    1    2    0    0 -0.51688858214E+01 -0.49496095256E+01  0.18057204366E+03  0.18072254064E+03  0.17770000000E+01 0.  1.
         15    1    1    2    0    0  0.19840464525E+01  0.66893093016E+01  0.17799628688E+03  0.17814185126E+03  0.17770000000E+01 0.  1.
</event>
<event>
 6    1  0.1860328E-003  0.5108803E+03  0.7546771E-02  0.9375788E-01
        -11   -1    0    0    0    0  0.00000000000E+00  0.00000000000E+00  0.50000000000E+03  0.50000000000E+03  0.00000000000E+00 0. -1.
         11   -1    0    0    0    0 -0.00000000000E+00 -0.00000000000E+00 -0.50000000000E+03  0.50000000000E+03  0.00000000000E+00 0.  1.
        -11    1    1    2    0    0 -0.88230930152E+01 -0.71619549668E+00  0.48903959548E+03  0.48911970503E+03  0.00000000000E+00 0. -1.
         11    1    1    2    0    0 -0.54189807138E+01 -0.80452286978E+01 -0.46997973868E+03  0.47007982920E+03  0.00000000000E+00 0.  1.
        -15    1    1    2    0    0  0.73528634373E+01 -0.41991309887E+01  0.68054569181E+01  0.11007691613E+02  0.17770000000E+01 0. -1.
         15    1    1    2    0    0  0.68892102917E+01  0.12960555183E+02 -0.25865313717E+02  0.29792774154E+02  0.17770000000E+01 0.  1.
</event>
<event>
 6    1  0.1860328E-003  0.5028255E+03  0.7546771E-02  0.9393510E-01
        -11   -1    0    0    0    0  0.00000000000E+00  0.00000000000E+00  0.50000000000E+03  0.50000000000E+03  0.00000000000E+00 0. -1.
         11   -1    0    0    0    0 -0.00000000000E+00 -0.00000000000E+00 -0.50000000000E+03  0.50000000000E+03  0.00000000000E+00 0.  1.
        -11    1    1    2    0    0  0.51740259220E+00 -0.10373275150E+02  0.38795352688E+03  0.38809252964E+03  0.00000000000E+00 0. -1.
         11    1    1    2    0    0  0.55212161784E+01  0.11288922141E+02 -0.49701567116E+03  0.49717451762E+03  0.00000000000E+00 0.  1.
        -15    1    1    2    0    0  0.62662805216E+01 -0.14097545556E+02  0.31999823863E+02  0.35568996592E+02  0.17770000000E+01 0.  1.
         15    1    1    2    0    0 -0.12304899292E+02  0.13181898566E+02  0.77062320416E+02  0.79163956150E+02  0.17770000000E+01 0. -1.
</event>
<event>
 6    1  0.1860328E-003  0.5027732E+03  0.7546771E-02  0.9393626E-01
        -11   -1    0    0    0    0  0.00000000000E+00  0.00000000000E+00  0.50000000000E+03  0.50000000000E+03  0.00000000000E+00 0.  1.
         11   -1    0    0    0    0 -0.00000000000E+00 -0.00000000000E+00 -0.50000000000E+03  0.50000000000E+03  0.00000000000E+00 0. -1.
        -11    1    1    2    0    0  0.19867658372E+02  0.39751614073E+01  0.49681378535E+03  0.49722677228E+03  0.00000000000E+00 0.  1.
         11    1    1    2    0    0  0.13462042257E+02 -0.13322256194E+02 -0.23352010333E+03  0.23428689198E+03  0.00000000000E+00 0. -1.
        -15    1    1    2    0    0 -0.12152462967E+02 -0.10105962933E+02 -0.17248756709E+03  0.17321931582E+03  0.17770000000E+01 0. -1.
         15    1    1    2    0    0 -0.21177237662E+02  0.19453057719E+02 -0.90806114925E+02  0.95267019931E+02  0.17770000000E+01 0.  1.
</event>
<event>
 6    1  0.1860328E-003  0.5108798E+03  0.7546771E-02  0.9375789E-01
        -11   -1    0    0    0    0  0.00000000000E+00  0.00000000000E+00  0.50000000000E+03  0.50000000000E+03  0.00000000000E+00 0.  1.
         11   -1    0    0    0    0 -0.00000000000E+00 -0.00000000000E+00 -0.50000000000E+03  0.50000000000E+03  0.00000000000E+00 0. -1.
        -11    1    1    2    0    0 -0.42295147545E+01  0.99566147763E+01  0.42688563053E+03  0.42702267449E+03  0.00000000000E+00 0.  1.
         11    1    1    2    0    0 -0.72023839130E+01 -0.17891069299E+01 -0.48906387964E+03  0.48912018320E+03  0.00000000000E+00 0. -1.
        -15    1    1    2    0    0  0.53975840514E+01 -0.15783259936E+02  0.69541981176E+02  0.71536634549E+02  0.17770000000E+01 0. -1.
         15    1    1    2    0    0  0.60343146161E+01  0.76157520899E+01 -0.73637320612E+01  0.12320507768E+02  0.17770000000E+01 0. -1.
</event>
<event>
 6    1  0.2065328E-003  0.5013155E+03  0.7546771E-02  0.9396871E-01
        -11   -1    0    0    0    0  0.00000000000E+00  0.00000000000E+00  0.50000000000E+03  0.50000000000E+03  0.00000000000E+00 0.  1.
         11   -1    0    0    0    0 -0.00000000000E+00 -0.00000000000E+00 -0.50000000000E+03  0.50000000000E+03  0.00000000000E+00 0.  1.
        -11    1    1    2    0    0 -0.99149057981E+01  0.66424823586E+01  0.49854166187E+03  0.49868448597E+03  0.00000000000E+00 0.  1.
         11    1    1    2    0    0 -0.13699559410E+01  0.20781041581E+01 -0.16617243871E+03  0.16619107883E+03  0.00000000000E+00 0.  1.
        -15    1    1    2    0    0  0.67459696105E+00  0.37527946238E+01 -0.28393028715E+03  0.28396144851E+03  0.17770000000E+01 0.  1.
         15    1    1    2    0    0  0.10610264778E+02 -0.12473381140E+02 -0.48438936011E+02  0.51162986686E+02  0.17770000000E+01 0. -1.
</event>
<event>
 6    1  0.1860328E-003  0.5203141E+03  0.7546771E-02  0.9355468E-01
        -11   -1    0    0    0    0  0.00000000000E+00  0.00000000000E+00  0.50000000000E+03  0.50000000000E+03  0.00000000000E+00 0. -1.
         11   -1    0    0    0    0 -0.00000000000E+00 -0.00000000000E+00 -0.50000000000E+03  0.50000000000E+03  0.00000000000E+00 0. -1.
        -11    1    1    2    0    0  0.70807276414E+00  0.91597314418E+01  0.47959788028E+03  0.47968586473E+03  0.00000000000E+00 0. -1.
         11    1    1    2    0    0 -0.26706735548E+02  0.19265186416E+02 -0.40262116903E+03  0.40396559616E+03  0.00000000000E+00 0. -1.
        -15    1    1    2    0    0 -0.83092261020E+01 -0.63743753527E+01 -0.74712715904E+02  0.75464054664E+02  0.17770000000E+01 0.  1.
         15    1    1    2    0    0  0.34307888886E+02 -0.22050542505E+02 -0.22639953509E+01  0.40884484448E+02  0.17770000000E+01 0. -1.
</event>
<event>
 6    1  0.1860328E-003  0.4988676E+03  0.7546771E-02  0.9402347E-01
        -11   -1    0    0    0    0  0.00000000000E+00  0.00000000000E+00  0.50000000000E+03  0.50000000000E+03  0.00000000000E+00 0.  1.
         11   -1    0    0    0    0 -0.00000000000E+00 -0.00000000000E+00 -0.50000000000E+03  0.50000000000E+03  0.00000000000E+00 0.  1.
        -11    1    1    2    0    0 -0.53166330084E+00  0.48258281066E+00  0.22585675826E+01  0.23699534931E+01  0.00000000000E+00 0.  1.
         11    1    1    2    0    0 -0.26548633864E+02  0.27086612645E+02 -0.49841831795E+03  0.49985931442E+03  0.00000000000E+00 0.  1.
        -15    1    1    2    0    0  0.24099135018E+01 -0.26604855186E+00  0.51366903956E+02  0.51454786132E+02  0.17770000000E+01 0. -1.
         15    1    1    2    0    0  0.24670383663E+02 -0.27303146904E+02  0.44479284641E+03  0.44631594595E+03  0.17770000000E+01 0.  1.
</event>
<event>
 6    1  0.2697997E-003  0.5499334E+03  0.7546771E-02  0.9294528E-01
        -11   -1    0    0    0    0  0.00000000000E+00  0.00000000000E+00  0.50000000000E+03  0.50000000000E+03  0.00000000000E+00 0.  1.
         11   -1    0    0    0    0 -0.00000000000E+00 -0.00000000000E+00 -0.50000000000E+03  0.50000000000E+03  0.00000000000E+00 0. -1.
        -11    1    1    2    0    0 -0.10184538340E+02  0.69374911683E+01  0.39443180256E+03  0.39462425227E+03  0.00000000000E+00 0.  1.
         11    1    1    2    0    0  0.25011341774E+02 -0.36973167433E+01 -0.44935589873E+03  0.45006661850E+03  0.00000000000E+00 0. -1.
        -15    1    1    2    0    0 -0.25085062981E+02  0.61721478631E+01 -0.46336278676E+02  0.53080733270E+02  0.17770000000E+01 0.  1.
         15    1    1    2    0    0  0.10258259547E+02 -0.94123222881E+01  0.10126037484E+03  0.10222839597E+03  0.17770000000E+01 0. -1.
</event>
<event>
 6    1  0.1860328E-003  0.5031141E+03  0.7546771E-02  0.9392869E-01
        -11   -1    0    0    0    0  0.00000000000E+00  0.00000000000E+00  0.50000000000E+03  0.50000000000E+03  0.00000000000E+00 0. -1.
         11   -1    0    0    0    0 -0.00000000000E+00 -0.00000000000E+00 -0.50000000000E+03  0.50000000000E+03  0.00000000000E+00 0.  1.
        -11    1    1    2    0    0  0.29181549918E+01 -0.46151090104E+01  0.35701125283E+03  0.35705300658E+03  0.00000000000E+00 0. -1.
         11    1    1    2    0    0  0.92790817579E+01 -0.14308185671E+02 -0.49659318853E+03  0.49688592295E+03  0.00000000000E+00 0.  1.
        -15    1    1    2    0    0 -0.18494028649E+02  0.17286082271E+02  0.48573844272E+02  0.54803410591E+02  0.17770000000E+01 0. -1.
         15    1    1    2    0    0  0.62967918996E+01  0.16372124098E+01  0.91008091427E+02  0.91257659881E+02  0.17770000000E+01 0.  1.
</event>
<event>
 6    1  0.1860328E-003  0.5190063E+03  0.7546771E-02  0.9358258E-01
        -11   -1    0    0    0    0  0.00000000000E+00  0.00000000000E+00  0.50000000000E+03  0.50000000000E+03  0.00000000000E+00 0. -1.
         11   -1    0    0    0    0 -0.00000000000E+00 -0.00000000000E+00 -0.50000000000E+03  0.50000000000E+03  0.00000000000E+00 0.  1.
        -11    1    1    2    0    0  0.46806725397E+01 -0.13559097221E+02  0.40094939701E+03  0.40120590322E+03  0.00000000000E+00 0. -1.
         11    1    1    2    0    0 -0.74595613704E+01 -0.71791418047E+00 -0.48093532047E+03  0.48099370363E+03  0.00000000000E+00 0.  1.
        -15    1    1    2    0    0  0.55597072679E+01  0.15208505236E+02 -0.15361887232E+02  0.22390942024E+02  0.17770000000E+01 0.  1.
         15    1    1    2    0    0 -0.27808184371E+01 -0.93149383434E+00  0.95347810688E+02  0.95409451125E+02  0.17770000000E+01 0. -1.
</event>
<event>
 6    1  0.1860328E-003  0.5022412E+03  0.7546771E-02  0.9394809E-01
        -11   -1    0    0    0    0  0.00000000000E+00  0.00000000000E+00  0.50000000000E+03  0.50000000000E+03  0.00000000000E+00 0. -1.
         11   -1    0    0    0    0 -0.00000000000E+00 -0.00000000000E+00 -0.50000000000E+03  0.50000000000E+03  0.00000000000E+00 0.  1.
        -11    1    1    2    0    0  0.23948655705E+01  0.15403458331E+02  0.49751463668E+03  0.49775879261E+03  0.00000000000E+00 0. -1.
         11    1    1    2    0    0  0.75976387885E+01 -0.34223617725E+01 -0.37117878445E+03  0.37127230802E+03  0.00000000000E+00 0.  1.
        -15    1    1    2    0    0 -0.93626128171E+01 -0.21172551089E+02 -0.10682545962E+03  0.10931958649E+03  0.17770000000E+01 0. -1.
         15    1    1    2    0    0 -0.62989154184E+00  0.91914545304E+01 -0.19510392601E+02  0.21649312880E+02  0.17770000000E+01 0.  1.
</event>
<event>
 6    1  0.1860328E-003  0.5038595E+03  0.7546771E-02  0.9391215E-01
        -11   -1    0    0    0    0  0.00000000000E+00  0.00000000000E+00  0.50000000000E+03  0.50000000000E+03  0.00000000000E+00 0.  1.
         11   -1    0    0    0    0 -0.00000000000E+00 -0.00000000000E+00 -0.50000000000E+03  0.50000000000E+03  0.00000000000E+00 0.  1.
        -11    1    1    2    0    0  0.17304657445E+01 -0.14709921113E+02  0.85475097154E+02  0.86748881977E+02  0.00000000000E+00 0.  1.
         11    1    1    2    0    0  0.19509109697E+02  0.14496706966E+02 -0.49554479258E+03  0.49614050563E+03  0.00000000000E+00 0.  1.
        -15    1    1    2    0    0 -0.90689571618E+01 -0.27326090405E+02  0.70066251762E+02  0.75772017036E+02  0.17770000000E+01 0. -1.
         15    1    1    2    0    0 -0.12170618280E+02  0.27539304553E+02  0.34000344367E+03  0.34133859535E+03  0.17770000000E+01 0.  1.
</event>
<event>
 6    1  0.1860328E-003  0.5098958E+03  0.7546771E-02  0.9377935E-01
        -11   -1    0    0    0    0  0.00000000000E+00  0.00000000000E+00  0.50000000000E+03  0.50000000000E+03  0.00000000000E+00 0.  1.
         11   -1    0    0    0    0 -0.00000000000E+00 -0.00000000000E+00 -0.50000000000E+03  0.50000000000E+03  0.00000000000E+00 0.  1.
        -11    1    1    2    0    0 -0.33022596679E+01  0.84139773244E+01  0.38854506650E+03  0.38865018800E+03  0.00000000000E+00 0.  1.
         11    1    1    2    0    0  0.13319703446E+02 -0.36027464392E+01 -0.48990987718E+03  0.49010415428E+03  0.00000000000E+00 0.  1.
        -15    1    1    2    0    0 -0.12601045310E+02  0.54928711712E+01 -0.46997051709E+01  0.14635673346E+02  0.17770000000E+01 0.  1.
         15    1    1    2    0    0  0.25836015320E+01 -0.10304102056E+02  0.10606451585E+03  0.10660998437E+03  0.17770000000E+01 0.  1.
</event>
<event>
 6    1  0.2480804E-003  0.5227195E+03  0.7546771E-02  0.9350361E-01
        -11   -1    0    0    0    0  0.00000000000E+00  0.00000000000E+00  0.50000000000E+03  0.50000000000E+03  0.00000000000E+00 0.  1.
         11   -1    0    0    0    0 -0.00000000000E+00 -0.00000000000E+00 -0.50000000000E+03  0.50000000000E+03  0.00000000000E+00 0.  1.
        -11    1    1    2    0    0  0.54496756075E+01 -0.19856845322E+01  0.42202019877E+03  0.42206005506E+03  0.00000000000E+00 0.  1.
         11    1    1    2    0    0  0.20934195430E+02 -0.19211696328E+02 -0.47643396172E+03  0.47728047278E+03  0.00000000000E+00 0.  1.
        -15    1    1    2    0    0 -0.23547026082E+02  0.12179113358E+02 -0.15047780478E+02  0.30535007218E+02  0.17770000000E+01 0. -1.
         15    1    1    2    0    0 -0.28368449549E+01  0.90182675025E+01  0.69461543437E+02  0.70124464944E+02  0.17770000000E+01 0.  1.
</event>
<event>
 6    1  0.1860328E-003  0.5585788E+03  0.7546771E-02  0.9277504E-01
        -11   -1    0    0    0    0  0.00000000000E+00  0.00000000000E+00  0.50000000000E+03  0.50000000000E+03  0.00000000000E+00 0. -1.
         11   -1    0    0    0    0 -0.00000000000E+00 -0.00000000000E+00 -0.50000000000E+03  0.50000000000E+03  0.00000000000E+00 0.  1.
        -11    1    1    2    0    0 -0.22530740826E+02 -0.34584309947E+02  0.33664429660E+03  0.33916528597E+03  0.00000000000E+00 0. -1.
         11    1    1    2    0    0  0.16010797300E+01 -0.82382445451E+01 -0.44134141746E+03  0.44142120349E+03  0.00000000000E+00 0.  1.
        -15    1    1    2    0    0 -0.54826869602E+01 -0.24934976734E+02  0.13732276429E+03  0.13968719427E+03  0.17770000000E+01 0. -1.
         15    1    1    2    0    0  0.26412348057E+02  0.67757531225E+02 -0.32625643432E+02  0.79726316270E+02  0.17770000000E+01 0.  1.
</event>
<event>
 6    1  0.1860328E-003  0.5080511E+03  0.7546771E-02  0.9381973E-01
        -11   -1    0    0    0    0  0.00000000000E+00  0.00000000000E+00  0.50000000000E+03  0.50000000000E+03  0.00000000000E+00 0. -1.
         11   -1    0    0    0    0 -0.00000000000E+00 -0.00000000000E+00 -0.50000000000E+03  0.50000000000E+03  0.00000000000E+00 0. -1.
        -11    1    1    2    0    0  0.50790149111E+01 -0.92297899870E+01  0.49183605336E+03  0.49194886808E+03  0.00000000000E+00 0. -1.
         11    1    1    2    0    0  0.25497596836E+02 -0.28527445840E+01 -0.34154933908E+03  0.34251162991E+03  0.00000000000E+00 0. -1.
        -15    1    1    2    0    0 -0.35531707262E+02  0.14083760239E+02 -0.40897867127E+02  0.56005783522E+02  0.17770000000E+01 0.  1.
         15    1    1    2    0    0  0.49550955142E+01 -0.20012256682E+01 -0.10938884715E+03  0.10953371849E+03  0.17770000000E+01 0. -1.
</event>
<event>
 6    1  0.1860328E-003  0.5115807E+03  0.7546771E-02  0.9374264E-01
        -11   -1    0    0    0    0  0.00000000000E+00  0.00000000000E+00  0.50000000000E+03  0.50000000000E+03  0.00000000000E+00 0.  1.
         11   -1    0    0    0    0 -0.00000000000E+00 -0.00000000000E+00 -0.50000000000E+03  0.50000000000E+03  0.00000000000E+00 0.  1.
        -11    1    1    2    0    0 -0.12777677035E+01  0.78650052656E+01  0.48835432708E+03  0.48841932781E+03  0.00000000000E+00 0.  1.
         11    1    1    2    0    0 -0.27390148401E+01  0.14157038366E+02 -0.46123423550E+03  0.46145957996E+03  0.00000000000E+00 0.  1.
        -15    1    1    2    0    0 -0.23836867620E+01 -0.18303104617E+02 -0.34721685104E+02  0.39362910800E+02  0.17770000000E+01 0. -1.
         15    1    1    2    0    0  0.64004693057E+01 -0.37189390143E+01  0.76015935170E+01  0.10758181432E+02  0.17770000000E+01 0.  1.
</event>
<event>
 6    1  0.1860328E-003  0.5042834E+03  0.7546771E-02  0.9390276E-01
        -11   -1    0    0    0    0  0.00000000000E+00  0.00000000000E+00  0.50000000000E+03  0.50000000000E+03  0.00000000000E+00 0. -1.
         11   -1    0    0    0    0 -0.00000000000E+00 -0.00000000000E+00 -0.50000000000E+03  0.50000000000E+03  0.00000000000E+00 0. -1.
        -11    1    1    2    0    0 -0.18277776126E+02 -0.16251839059E+01  0.49537682194E+03  0.49571656624E+03  0.00000000000E+00 0. -1.
         11    1    1    2    0    0 -0.83872002614E+01  0.43209473515E+01 -0.39424726253E+03  0.39436013962E+03  0.00000000000E+00 0. -1.
        -15    1    1    2    0    0  0.88977660098E+01  0.13999834570E+01 -0.23738471429E+01  0.94827776998E+01  0.17770000000E+01 0. -1.
         15    1    1    2    0    0  0.17767210378E+02 -0.40957469025E+01 -0.98755712273E+02  0.10044051644E+03  0.17770000000E+01 0.  1.
</event>
<event>
 6    1  0.1860328E-003  0.5122557E+03  0.7546771E-02  0.9372797E-01
        -11   -1    0    0    0    0  0.00000000000E+00  0.00000000000E+00  0.50000000000E+03  0.50000000000E+03  0.00000000000E+00 0. -1.
         11   -1    0    0    0    0 -0.00000000000E+00 -0.00000000000E+00 -0.50000000000E+03  0.50000000000E+03  0.00000000000E+00 0.  1.
        -11    1    1    2    0    0  0.15756644625E+02 -0.82392404767E+00  0.48748906922E+03  0.48774434216E+03  0.00000000000E+00 0. -1.
         11    1    1    2    0    0  0.11254497570E+02  0.20460143129E+01 -0.43098225526E+03  0.43113403280E+03  0.00000000000E+00 0.  1.
        -15    1    1    2    0    0 -0.21044548151E+02  0.64201281297E+00  0.29293020575E+01  0.21331285167E+02  0.17770000000E+01 0. -1.
         15    1    1    2    0    0 -0.59665940442E+01 -0.18641030782E+01 -0.59436116018E+02  0.59790339864E+02  0.17770000000E+01 0.  1.
</event>
<event>
 6    1  0.1860328E-003  0.3612340E+03  0.7546771E-02  0.9778430E-01
        -11   -1    0    0    0    0  0.00000000000E+00  0.00000000000E+00  0.50000000000E+03  0.50000000000E+03  0.00000000000E+00 0.  1.
         11   -1    0    0    0    0 -0.00000000000E+00 -0.00000000000E+00 -0.50000000000E+03  0.50000000000E+03  0.00000000000E+00 0.  1.
        -11    1    1    2    0    0 -0.84986504463E+02 -0.78572162318E+02  0.34039961032E+03  0.35953885095E+03  0.00000000000E+00 0.  1.
         11    1    1    2    0    0 -0.52026169719E+01 -0.60150763253E+00 -0.37354182408E+03  0.37357853708E+03  0.00000000000E+00 0.  1.
        -15    1    1    2    0    0 -0.92521357649E+01 -0.46085686863E+02 -0.64244358860E+02  0.79624041119E+02  0.17770000000E+01 0.  1.
         15    1    1    2    0    0  0.99441257200E+02  0.12525935681E+03  0.97386572615E+02  0.18725857085E+03  0.17770000000E+01 0. -1.
</event>
<event>
 6    1  0.1860328E-003  0.5041119E+03  0.7546771E-02  0.9390656E-01
        -11   -1    0    0    0    0  0.00000000000E+00  0.00000000000E+00  0.50000000000E+03  0.50000000000E+03  0.00000000000E+00 0.  1.
         11   -1    0    0    0    0 -0.00000000000E+00 -0.00000000000E+00 -0.50000000000E+03  0.50000000000E+03  0.00000000000E+00 0.  1.
        -11    1    1    2    0    0 -0.50057204451E+01  0.65053216219E+01  0.49582018013E+03  0.49588811991E+03  0.00000000000E+00 0.  1.
         11    1    1    2    0    0  0.67911370018E+00 -0.39961337432E+01 -0.22705616449E+03  0.22709234270E+03  0.00000000000E+00 0.  1.
        -15    1    1    2    0    0 -0.14424495545E+02 -0.53555914664E+01 -0.24931573266E+03  0.24979639851E+03  0.17770000000E+01 0.  1.
         15    1    1    2    0    0  0.18751102290E+02  0.28464035877E+01 -0.19448282983E+02  0.27223138880E+02  0.17770000000E+01 0. -1.
</event>
<event>
 6    1  0.1860328E-003  0.5124486E+03  0.7546771E-02  0.9372378E-01
        -11   -1    0    0    0    0  0.00000000000E+00  0.00000000000E+00  0.50000000000E+03  0.50000000000E+03  0.00000000000E+00 0. -1.
         11   -1    0    0    0    0 -0.00000000000E+00 -0.00000000000E+00 -0.50000000000E+03  0.50000000000E+03  0.00000000000E+00 0.  1.
        -11    1    1    2    0    0 -0.54699902182E+01 -0.39439964296E+01  0.48750474179E+03  0.48755138106E+03  0.00000000000E+00 0. -1.
         11    1    1    2    0    0  0.80044448569E+01 -0.17440552517E+02 -0.46672362235E+03  0.46711795478E+03  0.00000000000E+00 0.  1.
        -15    1    1    2    0    0  0.64701051742E+01 -0.19198374428E+01  0.56041128476E+01  0.89505221401E+01  0.17770000000E+01 0.  1.
         15    1    1    2    0    0 -0.90045598130E+01  0.23304386389E+02 -0.26385232283E+02  0.36380142029E+02  0.17770000000E+01 0. -1.
</event>
<event>
 6    1  0.1860328E-003  0.5051553E+03  0.7546771E-02  0.9388348E-01
        -11   -1    0    0    0    0  0.00000000000E+00  0.00000000000E+00  0.50000000000E+03  0.50000000000E+03  0.00000000000E+00 0. -1.
         11   -1    0    0    0    0 -0.00000000000E+00 -0.00000000000E+00 -0.50000000000E+03  0.50000000000E+03  0.00000000000E+00 0.  1.
        -11    1    1    2    0    0  0.54371207550E+01  0.42791661293E+01  0.40841971239E+03  0.40847831646E+03  0.00000000000E+00 0. -1.
         11    1    1    2    0    0  0.15973999680E+02 -0.24849082815E+01 -0.49458060224E+03  0.49484473883E+03  0.00000000000E+00 0.  1.
        -15    1    1    2    0    0 -0.92958523736E+01 -0.14171026792E+01  0.83619632612E+02  0.84165442662E+02  0.17770000000E+01 0.  1.
         15    1    1    2    0    0 -0.12115268061E+02 -0.37715516863E+00  0.25412572398E+01  0.12511502051E+02  0.17770000000E+01 0. -1.
</event>
<event>
 6    1  0.1860328E-003  0.5000999E+03  0.7546771E-02  0.9399586E-01
        -11   -1    0    0    0    0  0.00000000000E+00  0.00000000000E+00  0.50000000000E+03  0.50000000000E+03  0.00000000000E+00 0. -1.
         11   -1    0    0    0    0 -0.00000000000E+00 -0.00000000000E+00 -0.50000000000E+03  0.50000000000E+03  0.00000000000E+00 0. -1.
        -11    1    1    2    0    0 -0.15263673418E+01 -0.26803939345E+01  0.88371985927E+02  0.88425800565E+02  0.00000000000E+00 0. -1.
         11    1    1    2    0    0 -0.60521430123E+01 -0.31108835477E+01 -0.49985374101E+03  0.49990005845E+03  0.00000000000E+00 0. -1.
        -15    1    1    2    0    0  0.50199957395E+01  0.61203677733E+01  0.36335342540E+03  0.36344398294E+03  0.17770000000E+01 0. -1.
         15    1    1    2    0    0  0.25585146146E+01 -0.32909029112E+00  0.48128329690E+02  0.48230158047E+02  0.17770000000E+01 0.  1.
</event>
<event>
 6    1  0.1860328E-003  0.5012172E+03  0.7546771E-02  0.9397090E-01
        -11   -1    0    0    0    0  0.00000000000E+00  0.00000000000E+00  0.50000000000E+03  0.50000000000E+03  0.00000000000E+00 0.  1.
         11   -1    0    0    0    0 -0.00000000000E+00 -0.00000000000E+00 -0.50000000000E+03  0.50000000000E+03  0.00000000000E+00 0. -1.
        -11    1    1    2    0    0  0.22647404668E+01 -0.49914478360E+01  0.24247827607E+03  0.24254021927E+03  0.00000000000E+00 0.  1.
         11    1    1    2    0    0  0.15923529631E+02  0.16329490064E+02 -0.49826101511E+03  0.49878276857E+03  0.00000000000E+00 0. -1.
        -15    1    1    2    0    0 -0.20656851428E+02 -0.12712776431E+02  0.10204707308E+03  0.10490511450E+03  0.17770000000E+01 0. -1.
         15    1    1    2    0    0  0.24685813297E+01  0.13747342032E+01  0.15373566597E+03  0.15377189765E+03  0.17770000000E+01 0.  1.
</event>
<event>
 6    1  0.1860328E-003  0.5286464E+03  0.7546771E-02  0.9337898E-01
        -11   -1    0    0    0    0  0.00000000000E+00  0.00000000000E+00  0.50000000000E+03  0.50000000000E+03  0.00000000000E+00 0.  1.
         11   -1    0    0    0    0 -0.00000000000E+00 -0.00000000000E+00 -0.50000000000E+03  0.50000000000E+03  0.00000000000E+00 0.  1.
        -11    1    1    2    0    0 -0.65645184051E+00 -0.35501559386E+02  0.39411828432E+03  0.39571456087E+03  0.00000000000E+00 0.  1.
         11    1    1    2    0    0 -0.55278813163E+01 -0.15455894009E+02 -0.47106768280E+03  0.47135358693E+03  0.00000000000E+00 0.  1.
        -15    1    1    2    0    0 -0.36516690920E+02 -0.60791379756E+01  0.28470679948E+02  0.46735018776E+02  0.17770000000E+01 0.  1.
         15    1    1    2    0    0  0.42701024077E+02  0.57036591370E+02  0.48478718532E+02  0.86196833421E+02  0.17770000000E+01 0. -1.
</event>
<event>
 6    1  0.1860328E-003  0.5008756E+03  0.7546771E-02  0.9397853E-01
        -11   -1    0    0    0    0  0.00000000000E+00  0.00000000000E+00  0.50000000000E+03  0.50000000000E+03  0.00000000000E+00 0.  1.
         11   -1    0    0    0    0 -0.00000000000E+00 -0.00000000000E+00 -0.50000000000E+03  0.50000000000E+03  0.00000000000E+00 0.  1.
        -11    1    1    2    0    0 -0.12549524341E+01  0.80084433196E+01  0.36422203402E+03  0.36431222892E+03  0.00000000000E+00 0.  1.
         11    1    1    2    0    0  0.70393923425E+01 -0.69661854182E+01 -0.49902616491E+03  0.49912442742E+03  0.00000000000E+00 0.  1.
        -15    1    1    2    0    0 -0.99520973876E+01  0.71570415767E+01  0.82974545993E+02  0.83893983684E+02  0.17770000000E+01 0. -1.
         15    1    1    2    0    0  0.41676574792E+01 -0.81992994781E+01  0.51829584895E+02  0.52669359975E+02  0.17770000000E+01 0. -1.
</event>
<event>
 6    1  0.1860328E-003  0.5004094E+03  0.7546771E-02  0.9398894E-01
        -11   -1    0    0    0    0  0.00000000000E+00  0.00000000000E+00  0.50000000000E+03  0.50000000000E+03  0.00000000000E+00 0.  1.
         11   -1    0    0    0    0 -0.00000000000E+00 -0.00000000000E+00 -0.50000000000E+03  0.50000000000E+03  0.00000000000E+00 0.  1.
        -11    1    1    2    0    0 -0.39414058243E+01 -0.42464820888E+01  0.12171782079E+03  0.12185563256E+03  0.00000000000E+00 0.  1.
         11    1    1    2    0    0 -0.45062998959E+01  0.78480287213E+01 -0.49950866842E+03  0.49959064055E+03  0.00000000000E+00 0.  1.
        -15    1    1    2    0    0  0.47649979889E+01 -0.74133329589E+01  0.35403077959E+03  0.35414490444E+03  0.17770000000E+01 0. -1.
         15    1    1    2    0    0  0.36827077313E+01  0.38117863263E+01  0.23760068039E+02  0.24408822451E+02  0.17770000000E+01 0. -1.
</event>
<event>
 6    1  0.1860328E-003  0.5080159E+03  0.7546771E-02  0.9382050E-01
        -11   -1    0    0    0    0  0.00000000000E+00  0.00000000000E+00  0.50000000000E+03  0.50000000000E+03  0.00000000000E+00 0.  1.
         11   -1    0    0    0    0 -0.00000000000E+00 -0.00000000000E+00 -0.50000000000E+03  0.50000000000E+03  0.00000000000E+00 0. -1.
        -11    1    1    2    0    0 -0.18507793755E+02  0.82793945092E+01  0.42627558829E+03  0.42675750019E+03  0.00000000000E+00 0.  1.
         11    1    1    2    0    0  0.75855410359E+01 -0.42733863996E+01 -0.49190708272E+03  0.49198412606E+03  0.00000000000E+00 0. -1.
        -15    1    1    2    0    0 -0.65074463429E+01  0.49543583520E+01 -0.37272915878E+01  0.91620388652E+01  0.17770000000E+01 0. -1.
         15    1    1    2    0    0  0.17429699062E+02 -0.89603664617E+01  0.69358786020E+02  0.72096334884E+02  0.17770000000E+01 0.  1.
</event>
<event>
 6    1  0.1860328E-003  0.5002017E+03  0.7546771E-02  0.9399359E-01
        -11   -1    0    0    0    0  0.00000000000E+00  0.00000000000E+00  0.50000000000E+03  0.50000000000E+03  0.00000000000E+00 0. -1.
         11   -1    0    0    0    0 -0.00000000000E+00 -0.00000000000E+00 -0.50000000000E+03  0.50000000000E+03  0.00000000000E+00 0. -1.
        -11    1    1    2    0    0 -0.21876456864E+01  0.44750837055E+01  0.24102073470E+03  0.24107220230E+03  0.00000000000E+00 0. -1.
         11    1    1    2    0    0 -0.65656568205E+01 -0.40159512113E+01 -0.49973908007E+03  0.49979834320E+03  0.00000000000E+00 0. -1.
        -15    1    1    2    0    0  0.46761825851E+01  0.53025908368E+01  0.13662963304E+03  0.13682396905E+03  0.17770000000E+01 0.  1.
         15    1    1    2    0    0  0.40771199219E+01 -0.57617233310E+01  0.12208871233E+03  0.12230548545E+03  0.17770000000E+01 0. -1.
</event>
<event>
 6    1  0.1860328E-003  0.5058855E+03  0.7546771E-02  0.9386736E-01
        -11   -1    0    0    0    0  0.00000000000E+00  0.00000000000E+00  0.50000000000E+03  0.50000000000E+03  0.00000000000E+00 0.  1.
         11   -1    0    0    0    0 -0.00000000000E+00 -0.00000000000E+00 -0.50000000000E+03  0.50000000000E+03  0.00000000000E+00 0.  1.
        -11    1    1    2    0    0 -0.95226209301E+01  0.17646421581E+01  0.49401960586E+03  0.49411452645E+03  0.00000000000E+00 0.  1.
         11    1    1    2    0    0  0.44472032085E+01  0.72993733383E+01 -0.48099310981E+03  0.48106904926E+03  0.00000000000E+00 0.  1.
        -15    1    1    2    0    0  0.10429500848E+02 -0.82144513823E+01 -0.37214056869E+01  0.13901736897E+02  0.17770000000E+01 0. -1.
         15    1    1    2    0    0 -0.53540831268E+01 -0.84956411406E+00 -0.93050903624E+01  0.10914687397E+02  0.17770000000E+01 0.  1.
</event>
<event>
 6    1  0.1860328E-003  0.5115904E+03  0.7546771E-02  0.9374242E-01
        -11   -1    0    0    0    0  0.00000000000E+00  0.00000000000E+00  0.50000000000E+03  0.50000000000E+03  0.00000000000E+00 0.  1.
         11   -1    0    0    0    0 -0.00000000000E+00 -0.00000000000E+00 -0.50000000000E+03  0.50000000000E+03  0.00000000000E+00 0. -1.
        -11    1    1    2    0    0  0.12945396703E+02  0.10254810171E+02  0.47978323964E+03  0.48006739263E+03  0.00000000000E+00 0.  1.
         11    1    1    2    0    0 -0.10562687788E+02 -0.50765047267E+01 -0.48826897440E+03  0.48840959515E+03  0.00000000000E+00 0. -1.
        -15    1    1    2    0    0  0.53639200722E+01  0.98711736219E+01 -0.19774689232E+01  0.11544687937E+02  0.17770000000E+01 0. -1.
         15    1    1    2    0    0 -0.77466289874E+01 -0.15049479066E+02  0.10463203682E+02  0.19978324282E+02  0.17770000000E+01 0.  1.
</event>
<event>
 6    1  0.1860328E-003  0.5029272E+03  0.7546771E-02  0.9393283E-01
        -11   -1    0    0    0    0  0.00000000000E+00  0.00000000000E+00  0.50000000000E+03  0.50000000000E+03  0.00000000000E+00 0. -1.
         11   -1    0    0    0    0 -0.00000000000E+00 -0.00000000000E+00 -0.50000000000E+03  0.50000000000E+03  0.00000000000E+00 0. -1.
        -11    1    1    2    0    0 -0.57472059515E+01  0.56732732265E+01  0.49700714642E+03  0.49707275121E+03  0.00000000000E+00 0. -1.
         11    1    1    2    0    0 -0.19980100275E+01 -0.60773639314E+00 -0.44781750786E+02  0.44830420375E+02  0.00000000000E+00 0. -1.
        -15    1    1    2    0    0 -0.18113276773E+02  0.75495135485E+01 -0.37735090403E+03  0.37786498707E+03  0.17770000000E+01 0. -1.
         15    1    1    2    0    0  0.25858492752E+02 -0.12615050382E+02 -0.74874491602E+02  0.80231841342E+02  0.17770000000E+01 0. -1.
</event>
<event>
 6    1  0.1860328E-003  0.5008914E+03  0.7546771E-02  0.9397817E-01
        -11   -1    0    0    0    0  0.00000000000E+00  0.00000000000E+00  0.50000000000E+03  0.50000000000E+03  0.00000000000E+00 0. -1.
         11   -1    0    0    0    0 -0.00000000000E+00 -0.00000000000E+00 -0.50000000000E+03  0.50000000000E+03  0.00000000000E+00 0. -1.
        -11    1    1    2    0    0  0.10070356220E+02  0.37954632900E+01  0.49899261198E+03  0.49910864993E+03  0.00000000000E+00 0. -1.
         11    1    1    2    0    0  0.33575469894E+01 -0.85937572627E+01 -0.37163743106E+03  0.37175194142E+03  0.00000000000E+00 0. -1.
        -15    1    1    2    0    0 -0.13897533077E+02  0.90947364586E+01 -0.97406161175E+02  0.98828000186E+02  0.17770000000E+01 0.  1.
         15    1    1    2    0    0  0.46962986772E+00 -0.42964424859E+01 -0.29949019754E+02  0.30311408471E+02  0.17770000000E+01 0. -1.
</event>
<event>
 6    1  0.1860328E-003  0.5005604E+03  0.7546771E-02  0.9398557E-01
        -11   -1    0    0    0    0  0.00000000000E+00  0.00000000000E+00  0.50000000000E+03  0.50000000000E+03  0.00000000000E+00 0. -1.
         11   -1    0    0    0    0 -0.00000000000E+00 -0.00000000000E+00 -0.50000000000E+03  0.50000000000E+03  0.00000000000E+00 0.  1.
        -11    1    1    2    0    0  0.76391421084E+01 -0.97113739371E+01  0.49928677856E+03  0.49943964051E+03  0.00000000000E+00 0. -1.
         11    1    1    2    0    0  0.37768494524E+01  0.46242267880E+01 -0.31537687286E+03  0.31543338441E+03  0.00000000000E+00 0.  1.
        -15    1    1    2    0    0 -0.96487454408E+00 -0.98993682128E+00 -0.27437946039E+01  0.35492387387E+01  0.17770000000E+01 0.  1.
         15    1    1    2    0    0 -0.10451117017E+02  0.60770839704E+01 -0.18116611110E+03  0.18157773634E+03  0.17770000000E+01 0.  1.
</event>
<event>
 6    1  0.1860328E-003  0.5069799E+03  0.7546771E-02  0.9384326E-01
        -11   -1    0    0    0    0  0.00000000000E+00  0.00000000000E+00  0.50000000000E+03  0.50000000000E+03  0.00000000000E+00 0.  1.
         11   -1    0    0    0    0 -0.00000000000E+00 -0.00000000000E+00 -0.50000000000E+03  0.50000000000E+03  0.00000000000E+00 0. -1.
        -11    1    1    2    0    0 -0.30912828895E+01 -0.15137175782E+02  0.49277798632E+03  0.49302011513E+03  0.00000000000E+00 0.  1.
         11    1    1    2    0    0  0.25759479115E+01  0.31324156769E+01 -0.98394407516E+02  0.98477951675E+02  0.00000000000E+00 0. -1.
        -15    1    1    2    0    0 -0.82799241874E+01 -0.97521099488E+01 -0.38140947047E+03  0.38162809473E+03  0.17770000000E+01 0. -1.
         15    1    1    2    0    0  0.87952591654E+01  0.21756870054E+02 -0.12974108333E+02  0.26873838475E+02  0.17770000000E+01 0.  1.
</event>
<event>
 6    1  0.1860328E-003  0.5104027E+03  0.7546771E-02  0.9376829E-01
        -11   -1    0    0    0    0  0.00000000000E+00  0.00000000000E+00  0.50000000000E+03  0.50000000000E+03  0.00000000000E+00 0. -1.
         11   -1    0    0    0    0 -0.00000000000E+00 -0.00000000000E+00 -0.50000000000E+03  0.50000000000E+03  0.00000000000E+00 0. -1.
        -11    1    1    2    0    0 -0.17024442625E+02 -0.97695841204E+00  0.11623028306E+03  0.11747452828E+03  0.00000000000E+00 0. -1.
         11    1    1    2    0    0  0.35352422076E+02 -0.96646401828E+00 -0.48831830047E+03  0.48959727366E+03  0.00000000000E+00 0. -1.
        -15    1    1    2    0    0  0.18822449935E+02 -0.50505549902E+01  0.66321492303E+00  0.19580355213E+02  0.17770000000E+01 0.  1.
         15    1    1    2    0    0 -0.37150429385E+02  0.69939774205E+01  0.37142480249E+03  0.37334784284E+03  0.17770000000E+01 0. -1.
</event>
<event>
 6    1  0.1860328E-003  0.4969411E+03  0.7546771E-02  0.9406680E-01
        -11   -1    0    0    0    0  0.00000000000E+00  0.00000000000E+00  0.50000000000E+03  0.50000000000E+03  0.00000000000E+00 0. -1.
         11   -1    0    0    0    0 -0.00000000000E+00 -0.00000000000E+00 -0.50000000000E+03  0.50000000000E+03  0.00000000000E+00 0. -1.
        -11    1    1    2    0    0  0.30714787254E+00 -0.46818594256E+00  0.62140487220E+01  0.62392258664E+01  0.00000000000E+00 0. -1.
         11    1    1    2    0    0 -0.98013754389E+01 -0.11887664690E+02 -0.49967473739E+03  0.49991221901E+03  0.00000000000E+00 0. -1.
        -15    1    1    2    0    0  0.61376649061E+01  0.11710436640E+02  0.24868330985E+03  0.24904086328E+03  0.17770000000E+01 0. -1.
         15    1    1    2    0    0  0.33565626603E+01  0.64541399203E+00  0.24477737882E+03  0.24480769183E+03  0.17770000000E+01 0.  1.
</event>
<event>
 6    1  0.1860328E-003  0.5003524E+03  0.7546771E-02  0.9399021E-01
        -11   -1    0    0    0    0  0.00000000000E+00  0.00000000000E+00  0.50000000000E+03  0.50000000000E+03  0.00000000000E+00 0. -1.
         11   -1    0    0    0    0 -0.00000000000E+00 -0.00000000000E+00 -0.50000000000E+03  0.50000000000E+03  0.00000000000E+00 0. -1.
        -11    1    1    2    0    0 -0.11165888151E+02 -0.59898400819E+01  0.49948688295E+03  0.49964757728E+03  0.00000000000E+00 0. -1.
         11    1    1    2    0    0  0.46963309395E+01 -0.67141059896E+00 -0.79893264701E+02  0.80033993160E+02  0.00000000000E+00 0. -1.
        -15    1    1    2    0    0  0.91030919762E+01  0.22525319943E+01 -0.39568213626E+03  0.39579723454E+03  0.17770000000E+01 0. -1.
         15    1    1    2    0    0 -0.26335347649E+01  0.44087186866E+01 -0.23911481981E+02  0.24521195023E+02  0.17770000000E+01 0.  1.
</event>
<event>
 6    1  0.1860328E-003  0.5307360E+03  0.7546771E-02  0.9333546E-01
        -11   -1    0    0    0    0  0.00000000000E+00  0.00000000000E+00  0.50000000000E+03  0.50000000000E+03  0.00000000000E+00 0. -1.
         11   -1    0    0    0    0 -0.00000000000E+00 -0.00000000000E+00 -0.50000000000E+03  0.50000000000E+03  0.00000000000E+00 0. -1.
        -11    1    1    2    0    0  0.49142113563E+01 -0.40610217557E+01  0.46922071862E+03  0.46926402393E+03  0.00000000000E+00 0. -1.
         11    1    1    2    0    0 -0.14150017250E+02 -0.19521727705E+00 -0.35035550116E+03  0.35064118169E+03  0.00000000000E+00 0. -1.
        -15    1    1    2    0    0 -0.66508487069E+01  0.32123476596E+01  0.29706214039E+02  0.30662189216E+02  0.17770000000E+01 0.  1.
         15    1    1    2    0    0  0.15886654601E+02  0.10438913731E+01 -0.14857143149E+03  0.14943260517E+03  0.17770000000E+01 0. -1.
</event>
<event>
 6    1  0.1860328E-003  0.5015054E+03  0.7546771E-02  0.9396447E-01
        -11   -1    0    0    0    0  0.00000000000E+00  0.00000000000E+00  0.50000000000E+03  0.50000000000E+03  0.00000000000E+00 0.  1.
         11   -1    0    0    0    0 -0.00000000000E+00 -0.00000000000E+00 -0.50000000000E+03  0.50000000000E+03  0.00000000000E+00 0. -1.
        -11    1    1    2    0    0  0.10067281265E+02 -0.94895588567E+01  0.49830254468E+03  0.49849456157E+03  0.00000000000E+00 0.  1.
         11    1    1    2    0    0  0.97039504320E+01  0.33599889967E+01 -0.36338382595E+03  0.36352890001E+03  0.00000000000E+00 0. -1.
        -15    1    1    2    0    0  0.75529821602E+00  0.65021915333E+01 -0.56101704560E+02  0.56510246449E+02  0.17770000000E+01 0. -1.
         15    1    1    2    0    0 -0.20526529913E+02 -0.37262167328E+00 -0.78817014165E+02  0.81466291974E+02  0.17770000000E+01 0.  1.
</event>
<event>
 6    1  0.1860328E-003  0.5022882E+03  0.7546771E-02  0.9394704E-01
        -11   -1    0    0    0    0  0.00000000000E+00  0.00000000000E+00  0.50000000000E+03  0.50000000000E+03  0.00000000000E+00 0.  1.
         11   -1    0    0    0    0 -0.00000000000E+00 -0.00000000000E+00 -0.50000000000E+03  0.50000000000E+03  0.00000000000E+00 0.  1.
        -11    1    1    2    0    0  0.93197657368E+01 -0.23427601368E+01  0.30018884414E+03  0.30034261887E+03  0.00000000000E+00 0.  1.
         11    1    1    2    0    0 -0.10315293572E+02  0.71524156727E+01 -0.49755349165E+03  0.49771180354E+03  0.00000000000E+00 0.  1.
        -15    1    1    2    0    0  0.21396616615E+02  0.11757478148E+00  0.89027416111E+02  0.91579842622E+02  0.17770000000E+01 0.  1.
         15    1    1    2    0    0 -0.20401088780E+02 -0.49272303174E+01  0.10833723139E+03  0.11036573497E+03  0.17770000000E+01 0. -1.
</event>
<event>
 6    1  0.1860328E-003  0.5016102E+03  0.7546771E-02  0.9396214E-01
        -11   -1    0    0    0    0  0.00000000000E+00  0.00000000000E+00  0.50000000000E+03  0.50000000000E+03  0.00000000000E+00 0.  1.
         11   -1    0    0    0    0 -0.00000000000E+00 -0.00000000000E+00 -0.50000000000E+03  0.50000000000E+03  0.00000000000E+00 0. -1.
        -11    1    1    2    0    0 -0.52281115527E+01  0.65397697397E+01  0.49831950054E+03  0.49838983372E+03  0.00000000000E+00 0.  1.
         11    1    1    2    0    0 -0.37288088094E+01  0.14666844342E+02 -0.38216887084E+03  0.38246838585E+03  0.00000000000E+00 0. -1.
        -15    1    1    2    0    0 -0.61210588136E+00 -0.60118507440E+01 -0.13249614766E+02  0.14670618372E+02  0.17770000000E+01 0. -1.
         15    1    1    2    0    0  0.95690262435E+01 -0.15194763338E+02 -0.10290101494E+03  0.10447116205E+03  0.17770000000E+01 0. -1.
</event>
<event>
 6    1  0.1860328E-003  0.4937722E+03  0.7546771E-02  0.9413854E-01
        -11   -1    0    0    0    0  0.00000000000E+00  0.00000000000E+00  0.50000000000E+03  0.50000000000E+03  0.00000000000E+00 0.  1.
         11   -1    0    0    0    0 -0.00000000000E+00 -0.00000000000E+00 -0.50000000000E+03  0.50000000000E+03  0.00000000000E+00 0.  1.
        -11    1    1    2    0    0 -0.65431229218E+01  0.18311477398E+01  0.49547916933E+03  0.49552575393E+03  0.00000000000E+00 0.  1.
         11    1    1    2    0    0  0.50120809360E+01  0.59939123412E+01 -0.49199494614E+03  0.49205698346E+03  0.00000000000E+00 0.  1.
        -15    1    1    2    0    0  0.29477126079E+01 -0.35378153791E+01  0.17900622461E+01  0.52504475162E+01  0.17770000000E+01 0. -1.
         15    1    1    2    0    0 -0.14166706221E+01 -0.42872447019E+01 -0.52742854385E+01  0.71668150996E+01  0.17770000000E+01 0.  1.
</event>
<event>
 6    1  0.1860328E-003  0.5133067E+03  0.7546771E-02  0.9370518E-01
        -11   -1    0    0    0    0  0.00000000000E+00  0.00000000000E+00  0.50000000000E+03  0.50000000000E+03  0.00000000000E+00 0.  1.
         11   -1    0    0    0    0 -0.00000000000E+00 -0.00000000000E+00 -0.50000000000E+03  0.50000000000E+03  0.00000000000E+00 0.  1.
        -11    1    1    2    0    0 -0.28966537294E+02  0.21503990367E+02  0.42224428830E+03  0.42378263401E+03  0.00000000000E+00 0.  1.
         11    1    1    2    0    0  0.95584437173E+01  0.25974552849E+02 -0.48590571136E+03  0.48669333422E+03  0.00000000000E+00 0.  1.
        -15    1    1    2    0    0  0.29328483669E+02 -0.39410971893E+02  0.43827829975E+02  0.65859100124E+02  0.17770000000E+01 0. -1.
         15    1    1    2    0    0 -0.99203900926E+01 -0.80675713232E+01  0.19833593080E+02  0.23664931652E+02  0.17770000000E+01 0.  1.
</event>
<event>
 6    1  0.1860328E-003  0.5032451E+03  0.7546771E-02  0.9392578E-01
        -11   -1    0    0    0    0  0.00000000000E+00  0.00000000000E+00  0.50000000000E+03  0.50000000000E+03  0.00000000000E+00 0.  1.
         11   -1    0    0    0    0 -0.00000000000E+00 -0.00000000000E+00 -0.50000000000E+03  0.50000000000E+03  0.00000000000E+00 0. -1.
        -11    1    1    2    0    0 -0.46235112956E+01 -0.57802920908E+01  0.14402144985E+03  0.14421153439E+03  0.00000000000E+00 0.  1.
         11    1    1    2    0    0 -0.36972940417E+01 -0.76616288685E+01 -0.49668202811E+03  0.49675487677E+03  0.00000000000E+00 0. -1.
        -15    1    1    2    0    0 -0.20771651445E+02  0.23937362930E+01  0.43408356080E+02  0.48214464466E+02  0.17770000000E+01 0.  1.
         15    1    1    2    0    0  0.29092456783E+02  0.11048184666E+02  0.30925222218E+03  0.31081912438E+03  0.17770000000E+01 0. -1.
</event>
<event>
 6    1  0.1860328E-003  0.5355404E+03  0.7546771E-02  0.9323619E-01
        -11   -1    0    0    0    0  0.00000000000E+00  0.00000000000E+00  0.50000000000E+03  0.50000000000E+03  0.00000000000E+00 0. -1.
         11   -1    0    0    0    0 -0.00000000000E+00 -0.00000000000E+00 -0.50000000000E+03  0.50000000000E+03  0.00000000000E+00 0.  1.
        -11    1    1    2    0    0 -0.17366656555E+02 -0.12375227307E+02  0.31859595923E+03  0.31930883522E+03  0.00000000000E+00 0. -1.
         11    1    1    2    0    0  0.13832862272E+02 -0.74940231289E+00 -0.46425297438E+03  0.46445961493E+03  0.00000000000E+00 0.  1.
        -15    1    1    2    0    0  0.57732022416E+01  0.65640391947E+01 -0.34651390042E+02  0.35781182701E+02  0.17770000000E+01 0.  1.
         15    1    1    2    0    0 -0.22394079592E+01  0.65605904251E+01  0.18030840518E+03  0.18045036715E+03  0.17770000000E+01 0. -1.
</event>
<event>
 6    1  0.1860328E-003  0.5002811E+03  0.7546771E-02  0.9399181E-01
        -11   -1    0    0    0    0  0.00000000000E+00  0.00000000000E+00  0.50000000000E+03  0.50000000000E+03  0.00000000000E+00 0.  1.
         11   -1    0    0    0    0 -0.00000000000E+00 -0.00000000000E+00 -0.50000000000E+03  0.50000000000E+03  0.00000000000E+00 0.  1.
        -11    1    1    2    0    0  0.46382673469E+01 -0.23031058865E+01  0.22572924254E+03  0.22578863735E+03  0.00000000000E+00 0.  1.
         11    1    1    2    0    0  0.39414330150E+00  0.21386707264E+02 -0.49926084567E+03  0.49971885958E+03  0.00000000000E+00 0.  1.
        -15    1    1    2    0    0 -0.43378115908E+01 -0.14211441393E+02  0.24682084750E+03  0.24727407904E+03  0.17770000000E+01 0.  1.
         15    1    1    2    0    0 -0.69459905767E+00 -0.48721599843E+01  0.26710755636E+02  0.27218424025E+02  0.17770000000E+01 0. -1.
</event>
<event>
 6    1  0.1860328E-003  0.5032136E+03  0.7546771E-02  0.9392648E-01
        -11   -1    0    0    0    0  0.00000000000E+00  0.00000000000E+00  0.50000000000E+03  0.50000000000E+03  0.00000000000E+00 0.  1.
         11   -1    0    0    0    0 -0.00000000000E+00 -0.00000000000E+00 -0.50000000000E+03  0.50000000000E+03  0.00000000000E+00 0. -1.
        -11    1    1    2    0    0 -0.52263499402E+01  0.35173692779E+01  0.44971592217E+03  0.44976004411E+03  0.00000000000E+00 0.  1.
         11    1    1    2    0    0  0.49352743970E+01  0.59824953968E+01 -0.49672590513E+03  0.49678644507E+03  0.00000000000E+00 0. -1.
        -15    1    1    2    0    0  0.44203805169E+01 -0.18506771033E+01  0.43678147634E+02  0.43976164901E+02  0.17770000000E+01 0.  1.
         15    1    1    2    0    0 -0.41293049737E+01 -0.76491875715E+01  0.33318353172E+01  0.94773459180E+01  0.17770000000E+01 0. -1.
</event>
<event>
 6    1  0.1860328E-003  0.5023722E+03  0.7546771E-02  0.9394517E-01
        -11   -1    0    0    0    0  0.00000000000E+00  0.00000000000E+00  0.50000000000E+03  0.50000000000E+03  0.00000000000E+00 0.  1.
         11   -1    0    0    0    0 -0.00000000000E+00 -0.00000000000E+00 -0.50000000000E+03  0.50000000000E+03  0.00000000000E+00 0.  1.
        -11    1    1    2    0    0 -0.22504653322E+01  0.78756892867E+01  0.49756038925E+03  0.49762780472E+03  0.00000000000E+00 0.  1.
         11    1    1    2    0    0 -0.48966263964E+01  0.43841897340E+01 -0.42292255060E+03  0.42297361841E+03  0.00000000000E+00 0.  1.
        -15    1    1    2    0    0  0.53502259791E+01 -0.94523711440E+01 -0.10702203431E+02  0.15351453532E+02  0.17770000000E+01 0. -1.
         15    1    1    2    0    0  0.17968657496E+01 -0.28075078766E+01 -0.63935635226E+02  0.64047123337E+02  0.17770000000E+01 0.  1.
</event>
<event>
 6    1  0.1860328E-003  0.4881906E+03  0.7546771E-02  0.9426629E-01
        -11   -1    0    0    0    0  0.00000000000E+00  0.00000000000E+00  0.50000000000E+03  0.50000000000E+03  0.00000000000E+00 0. -1.
         11   -1    0    0    0    0 -0.00000000000E+00 -0.00000000000E+00 -0.50000000000E+03  0.50000000000E+03  0.00000000000E+00 0.  1.
        -11    1    1    2    0    0 -0.87969800606E+01  0.67551772040E+00  0.48878162338E+03  0.48886124671E+03  0.00000000000E+00 0. -1.
         11    1    1    2    0    0  0.91513241176E+01 -0.29899694627E+01 -0.48742870406E+03  0.48752377193E+03  0.00000000000E+00 0.  1.
        -15    1    1    2    0    0 -0.99464058877E+01  0.35152210439E+01  0.51058436075E+01  0.11853908090E+02  0.17770000000E+01 0. -1.
         15    1    1    2    0    0  0.95920618308E+01 -0.12007693015E+01 -0.64587629183E+01  0.11761073272E+02  0.17770000000E+01 0.  1.
</event>
<event>
 6    1  0.1860328E-003  0.5079594E+03  0.7546771E-02  0.9382174E-01
        -11   -1    0    0    0    0  0.00000000000E+00  0.00000000000E+00  0.50000000000E+03  0.50000000000E+03  0.00000000000E+00 0.  1.
         11   -1    0    0    0    0 -0.00000000000E+00 -0.00000000000E+00 -0.50000000000E+03  0.50000000000E+03  0.00000000000E+00 0. -1.
        -11    1    1    2    0    0  0.12221418792E+02 -0.17648267719E+01  0.27501964052E+03  0.27529671332E+03  0.00000000000E+00 0.  1.
         11    1    1    2    0    0  0.22228572838E+02  0.37056112666E+02 -0.49013944586E+03  0.49204058910E+03  0.00000000000E+00 0. -1.
        -15    1    1    2    0    0 -0.22229228189E+02  0.20583731429E+02  0.58244922705E+02  0.65676916305E+02  0.17770000000E+01 0.  1.
         15    1    1    2    0    0 -0.12220763440E+02 -0.55875017323E+02  0.15687488263E+03  0.16698578128E+03  0.17770000000E+01 0. -1.
</event>
<event>
 6    1  0.1860328E-003  0.5019122E+03  0.7546771E-02  0.9395541E-01
        -11   -1    0    0    0    0  0.00000000000E+00  0.00000000000E+00  0.50000000000E+03  0.50000000000E+03  0.00000000000E+00 0. -1.
         11   -1    0    0    0    0 -0.00000000000E+00 -0.00000000000E+00 -0.50000000000E+03  0.50000000000E+03  0.00000000000E+00 0.  1.
        -11    1    1    2    0    0 -0.12973528548E+02  0.26133902193E+01  0.49791196502E+03  0.49808781070E+03  0.00000000000E+00 0. -1.
         11    1    1    2    0    0 -0.60158683308E+01  0.35219938788E+01 -0.38867203917E+03  0.38873454844E+03  0.00000000000E+00 0.  1.
        -15    1    1    2    0    0  0.17379154819E+02 -0.39129165697E+01 -0.39574387283E+02  0.43435420985E+02  0.17770000000E+01 0.  1.
         15    1    1    2    0    0  0.16102420599E+01 -0.22224675283E+01 -0.69665538567E+02  0.69742219883E+02  0.17770000000E+01 0. -1.
</event>
<event>
 6    1  0.1860328E-003  0.5008731E+03  0.7546771E-02  0.9397858E-01
        -11   -1    0    0    0    0  0.00000000000E+00  0.00000000000E+00  0.50000000000E+03  0.50000000000E+03  0.00000000000E+00 0.  1.
         11   -1    0    0    0    0 -0.00000000000E+00 -0.00000000000E+00 -0.50000000000E+03  0.50000000000E+03  0.00000000000E+00 0. -1.
        -11    1    1    2    0    0 -0.12901404943E+01  0.10961657692E+02  0.10947625737E+03  0.11003123798E+03  0.00000000000E+00 0.  1.
         11    1    1    2    0    0  0.39881744035E+01  0.58994787678E+01 -0.49907613410E+03  0.49912693477E+03  0.00000000000E+00 0. -1.
        -15    1    1    2    0    0  0.45443029664E+01 -0.17745223582E+02  0.35300534489E+03  0.35348475907E+03  0.17770000000E+01 0.  1.
         15    1    1    2    0    0 -0.72423368756E+01  0.88408712250E+00  0.36594531839E+02  0.37357068180E+02  0.17770000000E+01 0. -1.
</event>
<event>
 6    1  0.1860328E-003  0.5040267E+03  0.7546771E-02  0.9390845E-01
        -11   -1    0    0    0    0  0.00000000000E+00  0.00000000000E+00  0.50000000000E+03  0.50000000000E+03  0.00000000000E+00 0.  1.
         11   -1    0    0    0    0 -0.00000000000E+00 -0.00000000000E+00 -0.50000000000E+03  0.50000000000E+03  0.00000000000E+00 0. -1.
        -11    1    1    2    0    0 -0.48379451622E+01  0.49521507588E+01  0.28703967618E+03  0.28712315339E+03  0.00000000000E+00 0.  1.
         11    1    1    2    0    0 -0.47416495169E+01 -0.53133045392E+01 -0.49592220830E+03  0.49597333712E+03  0.00000000000E+00 0. -1.
        -15    1    1    2    0    0 -0.11389460194E+01 -0.76992815644E+01  0.20117554847E+03  0.20133388976E+03  0.17770000000E+01 0.  1.
         15    1    1    2    0    0  0.10718540699E+02  0.80604353448E+01  0.77069836506E+01  0.15569619733E+02  0.17770000000E+01 0. -1.
</event>
<event>
 6    1  0.1860328E-003  0.5510931E+03  0.7546771E-02  0.9292225E-01
        -11   -1    0    0    0    0  0.00000000000E+00  0.00000000000E+00  0.50000000000E+03  0.50000000000E+03  0.00000000000E+00 0. -1.
         11   -1    0    0    0    0 -0.00000000000E+00 -0.00000000000E+00 -0.50000000000E+03  0.50000000000E+03  0.00000000000E+00 0.  1.
        -11    1    1    2    0    0  0.67553707409E+02 -0.52203220407E+02  0.44071388852E+03  0.44890690698E+03  0.00000000000E+00 0. -1.
         11    1    1    2    0    0  0.24202881152E+01  0.45202311823E+01 -0.37696327877E+03  0.37699814831E+03  0.00000000000E+00 0.  1.
        -15    1    1    2    0    0 -0.52568182545E+02  0.48108011172E+02  0.31008351154E+02  0.77733326992E+02  0.17770000000E+01 0. -1.
         15    1    1    2    0    0 -0.17405812979E+02 -0.42502194776E+00 -0.94758960901E+02  0.96361617717E+02  0.17770000000E+01 0.  1.
</event>
<event>
 6    1  0.1860328E-003  0.5346916E+03  0.7546771E-02  0.9325364E-01
        -11   -1    0    0    0    0  0.00000000000E+00  0.00000000000E+00  0.50000000000E+03  0.50000000000E+03  0.00000000000E+00 0. -1.
         11   -1    0    0    0    0 -0.00000000000E+00 -0.00000000000E+00 -0.50000000000E+03  0.50000000000E+03  0.00000000000E+00 0.  1.
        -11    1    1    2    0    0  0.65080820199E+01  0.32780225003E+02  0.46410669461E+03  0.46530841628E+03  0.00000000000E+00 0. -1.
         11    1    1    2    0    0 -0.38852467590E+02 -0.16694158146E+02 -0.27476137234E+03  0.27799644041E+03  0.00000000000E+00 0.  1.
        -15    1    1    2    0    0  0.12608588340E+02 -0.42176718459E+02  0.17401156072E+02  0.47368872074E+02  0.17770000000E+01 0. -1.
         15    1    1    2    0    0  0.19735797231E+02  0.26090651602E+02 -0.20674647834E+03  0.20932627123E+03  0.17770000000E+01 0.  1.
</event>
<event>
 6    1  0.1860328E-003  0.5121899E+03  0.7546771E-02  0.9372940E-01
        -11   -1    0    0    0    0  0.00000000000E+00  0.00000000000E+00  0.50000000000E+03  0.50000000000E+03  0.00000000000E+00 0.  1.
         11   -1    0    0    0    0 -0.00000000000E+00 -0.00000000000E+00 -0.50000000000E+03  0.50000000000E+03  0.00000000000E+00 0. -1.
        -11    1    1    2    0    0  0.87165664049E+01  0.58257943425E+01  0.48769745423E+03  0.48781013240E+03  0.00000000000E+00 0.  1.
         11    1    1    2    0    0  0.92140942639E+00 -0.87101754848E+01 -0.47111295096E+03  0.47119436405E+03  0.00000000000E+00 0. -1.
        -15    1    1    2    0    0 -0.20123114884E+02 -0.72590751526E+01 -0.44168782539E+01  0.21915758422E+02  0.17770000000E+01 0. -1.
         15    1    1    2    0    0  0.10485139053E+02  0.10143456295E+02 -0.12167625017E+02  0.19079745127E+02  0.17770000000E+01 0.  1.
</event>
<event>
 6    1  0.1860328E-003  0.5064653E+03  0.7546771E-02  0.9385458E-01
        -11   -1    0    0    0    0  0.00000000000E+00  0.00000000000E+00  0.50000000000E+03  0.50000000000E+03  0.00000000000E+00 0. -1.
         11   -1    0    0    0    0 -0.00000000000E+00 -0.00000000000E+00 -0.50000000000E+03  0.50000000000E+03  0.00000000000E+00 0. -1.
        -11    1    1    2    0    0  0.13462511218E+01  0.16930997604E+02  0.24301681837E+03  0.24360961616E+03  0.00000000000E+00 0. -1.
         11    1    1    2    0    0 -0.12536538262E+02 -0.63631828714E+01 -0.49333441401E+03  0.49353469881E+03  0.00000000000E+00 0. -1.
        -15    1    1    2    0    0  0.11960743894E+02 -0.18776471068E+02  0.25301656244E+03  0.25400030287E+03  0.17770000000E+01 0. -1.
         15    1    1    2    0    0 -0.77045675328E+00  0.82086563360E+01 -0.26989668007E+01  0.88553821624E+01  0.17770000000E+01 0.  1.
</event>
<event>
 6    1  0.1860328E-003  0.5207167E+03  0.7546771E-02  0.9354611E-01
        -11   -1    0    0    0    0  0.00000000000E+00  0.00000000000E+00  0.50000000000E+03  0.50000000000E+03  0.00000000000E+00 0.  1.
         11   -1    0    0    0    0 -0.00000000000E+00 -0.00000000000E+00 -0.50000000000E+03  0.50000000000E+03  0.00000000000E+00 0.  1.
        -11    1    1    2    0    0 -0.30697388937E+01 -0.61100810334E+01  0.47377470153E+03  0.47382404350E+03  0.00000000000E+00 0.  1.
         11    1    1    2    0    0  0.88955799614E+01  0.13066390946E+02 -0.47902253109E+03  0.47928326406E+03  0.00000000000E+00 0.  1.
        -15    1    1    2    0    0 -0.53300565071E+00  0.13337499805E+02  0.17850710160E+02  0.22360200766E+02  0.17770000000E+01 0.  1.
         15    1    1    2    0    0 -0.52928354170E+01 -0.20293809718E+02 -0.12602880595E+02  0.24532491677E+02  0.17770000000E+01 0. -1.
</event>
<event>
 6    1  0.1860328E-003  0.5021457E+03  0.7546771E-02  0.9395021E-01
        -11   -1    0    0    0    0  0.00000000000E+00  0.00000000000E+00  0.50000000000E+03  0.50000000000E+03  0.00000000000E+00 0.  1.
         11   -1    0    0    0    0 -0.00000000000E+00 -0.00000000000E+00 -0.50000000000E+03  0.50000000000E+03  0.00000000000E+00 0.  1.
        -11    1    1    2    0    0  0.86409778534E+00  0.47795331442E+01  0.16376555257E+03  0.16383756227E+03  0.00000000000E+00 0.  1.
         11    1    1    2    0    0 -0.15768867802E+02  0.77819232861E+00 -0.49760385816E+03  0.49785425822E+03  0.00000000000E+00 0.  1.
        -15    1    1    2    0    0  0.88135693991E+01 -0.90562024001E+01  0.16366246013E+02  0.20753446581E+02  0.17770000000E+01 0. -1.
         15    1    1    2    0    0  0.60912006180E+01  0.34984769273E+01  0.31747205957E+03  0.31755473292E+03  0.17770000000E+01 0.  1.
</event>
<event>
 6    1  0.1860328E-003  0.5010552E+03  0.7546771E-02  0.9397452E-01
        -11   -1    0    0    0    0  0.00000000000E+00  0.00000000000E+00  0.50000000000E+03  0.50000000000E+03  0.00000000000E+00 0.  1.
         11   -1    0    0    0    0 -0.00000000000E+00 -0.00000000000E+00 -0.50000000000E+03  0.50000000000E+03  0.00000000000E+00 0.  1.
        -11    1    1    2    0    0  0.91126987704E+01  0.85888446237E+00  0.38698836296E+03  0.38709659263E+03  0.00000000000E+00 0.  1.
         11    1    1    2    0    0  0.34830339689E+01 -0.10507649890E+02 -0.49882200991E+03  0.49894482641E+03  0.00000000000E+00 0.  1.
        -15    1    1    2    0    0  0.78146594852E+00 -0.24809003737E+01  0.28430727333E+02  0.28604711874E+02  0.17770000000E+01 0.  1.
         15    1    1    2    0    0 -0.13377198688E+02  0.12129665801E+02  0.83402919622E+02  0.85353869084E+02  0.17770000000E+01 0.  1.
</event>
<event>
 6    1  0.1860328E-003  0.5033875E+03  0.7546771E-02  0.9392262E-01
        -11   -1    0    0    0    0  0.00000000000E+00  0.00000000000E+00  0.50000000000E+03  0.50000000000E+03  0.00000000000E+00 0. -1.
         11   -1    0    0    0    0 -0.00000000000E+00 -0.00000000000E+00 -0.50000000000E+03  0.50000000000E+03  0.00000000000E+00 0. -1.
        -11    1    1    2    0    0  0.74727441553E+01  0.40229217857E+01  0.49653993696E+03  0.49661245937E+03  0.00000000000E+00 0. -1.
         11    1    1    2    0    0  0.36272955522E+00  0.56794605073E+01 -0.40164617657E+03  0.40168649342E+03  0.00000000000E+00 0. -1.
        -15    1    1    2    0    0 -0.87720177200E+01 -0.21754003877E+02 -0.72084854246E+02  0.75825911932E+02  0.17770000000E+01 0. -1.
         15    1    1    2    0    0  0.93654400942E+00  0.12051621584E+02 -0.22808906143E+02  0.25875135284E+02  0.17770000000E+01 0.  1.
</event>
<event>
 6    1  0.1860328E-003  0.5026601E+03  0.7546771E-02  0.9393877E-01
        -11   -1    0    0    0    0  0.00000000000E+00  0.00000000000E+00  0.50000000000E+03  0.50000000000E+03  0.00000000000E+00 0.  1.
         11   -1    0    0    0    0 -0.00000000000E+00 -0.00000000000E+00 -0.50000000000E+03  0.50000000000E+03  0.00000000000E+00 0.  1.
        -11    1    1    2    0    0 -0.14642919112E+02 -0.13695409941E+01  0.49712240086E+03  0.49733989600E+03  0.00000000000E+00 0.  1.
         11    1    1    2    0    0  0.87082260332E+01 -0.11285266814E+02 -0.38575809279E+03  0.38602136806E+03  0.00000000000E+00 0.  1.
        -15    1    1    2    0    0  0.98564468526E+01  0.36362884520E+01 -0.94690178627E+01  0.14254548977E+02  0.17770000000E+01 0.  1.
         15    1    1    2    0    0 -0.39217537743E+01  0.90185193565E+01 -0.10189529021E+03  0.10238418696E+03  0.17770000000E+01 0. -1.
</event>
<event>
 6    1  0.1860328E-003  0.5017331E+03  0.7546771E-02  0.9395940E-01
        -11   -1    0    0    0    0  0.00000000000E+00  0.00000000000E+00  0.50000000000E+03  0.50000000000E+03  0.00000000000E+00 0. -1.
         11   -1    0    0    0    0 -0.00000000000E+00 -0.00000000000E+00 -0.50000000000E+03  0.50000000000E+03  0.00000000000E+00 0.  1.
        -11    1    1    2    0    0 -0.20137332569E+02  0.85294810628E+01  0.37705769217E+03  0.37769136532E+03  0.00000000000E+00 0. -1.
         11    1    1    2    0    0  0.29001024847E+01  0.62371613372E+01 -0.49821947003E+03  0.49826694963E+03  0.00000000000E+00 0.  1.
        -15    1    1    2    0    0  0.64236492330E+01 -0.10840413194E+02  0.38118810692E+02  0.40186804865E+02  0.17770000000E+01 0. -1.
         15    1    1    2    0    0  0.10813580851E+02 -0.39262292062E+01  0.83042967166E+02  0.83854880188E+02  0.17770000000E+01 0.  1.
</event>
<event>
 6    1  0.1860328E-003  0.4899625E+03  0.7546771E-02  0.9422554E-01
        -11   -1    0    0    0    0  0.00000000000E+00  0.00000000000E+00  0.50000000000E+03  0.50000000000E+03  0.00000000000E+00 0. -1.
         11   -1    0    0    0    0 -0.00000000000E+00 -0.00000000000E+00 -0.50000000000E+03  0.50000000000E+03  0.00000000000E+00 0. -1.
        -11    1    1    2    0    0 -0.12446655004E+02 -0.12294741088E+02  0.48989979555E+03  0.49021208630E+03  0.00000000000E+00 0. -1.
         11    1    1    2    0    0  0.10685733667E+02  0.23689434797E+01 -0.48964244200E+03  0.48976475762E+03  0.00000000000E+00 0. -1.
        -15    1    1    2    0    0  0.72584424590E+01  0.69109987819E+01  0.52843674527E+01  0.11468616284E+02  0.17770000000E+01 0. -1.
         15    1    1    2    0    0 -0.54975211228E+01  0.30147988260E+01 -0.55417210036E+01  0.85545397970E+01  0.17770000000E+01 0.  1.
</event>
<event>
 6    1  0.1860328E-003  0.5019117E+03  0.7546771E-02  0.9395542E-01
        -11   -1    0    0    0    0  0.00000000000E+00  0.00000000000E+00  0.50000000000E+03  0.50000000000E+03  0.00000000000E+00 0.  1.
         11   -1    0    0    0    0 -0.00000000000E+00 -0.00000000000E+00 -0.50000000000E+03  0.50000000000E+03  0.00000000000E+00 0. -1.
        -11    1    1    2    0    0  0.19035665952E+01  0.98109607416E+01  0.36980561332E+03  0.36994063059E+03  0.00000000000E+00 0.  1.
         11    1    1    2    0    0  0.91853370978E+01 -0.63349456194E+01 -0.49796330289E+03  0.49808829838E+03  0.00000000000E+00 0. -1.
        -15    1    1    2    0    0 -0.31079285110E+00 -0.58128348865E+01  0.11288572307E+03  0.11304967865E+03  0.17770000000E+01 0. -1.
         15    1    1    2    0    0 -0.10778110842E+02  0.23368197643E+01  0.15271966495E+02  0.18921392379E+02  0.17770000000E+01 0. -1.
</event>
<event>
 6    1  0.1860328E-003  0.5002283E+03  0.7546771E-02  0.9399299E-01
        -11   -1    0    0    0    0  0.00000000000E+00  0.00000000000E+00  0.50000000000E+03  0.50000000000E+03  0.00000000000E+00 0. -1.
         11   -1    0    0    0    0 -0.00000000000E+00 -0.00000000000E+00 -0.50000000000E+03  0.50000000000E+03  0.00000000000E+00 0. -1.
        -11    1    1    2    0    0 -0.36225095959E+00 -0.23982367432E+01  0.56490086117E+02  0.56542131148E+02  0.00000000000E+00 0. -1.
         11    1    1    2    0    0 -0.86919777931E+00  0.69573329232E+01 -0.49972254556E+03  0.49977173042E+03  0.00000000000E+00 0. -1.
        -15    1    1    2    0    0 -0.58744688911E+01 -0.65516760138E+01  0.35902714806E+03  0.35913936656E+03  0.17770000000E+01 0. -1.
         15    1    1    2    0    0  0.71059176300E+01  0.19925798338E+01  0.84205311382E+02  0.84546771871E+02  0.17770000000E+01 0.  1.
</event>
<event>
 6    1  0.1860328E-003  0.5000912E+03  0.7546771E-02  0.9399606E-01
        -11   -1    0    0    0    0  0.00000000000E+00  0.00000000000E+00  0.50000000000E+03  0.50000000000E+03  0.00000000000E+00 0.  1.
         11   -1    0    0    0    0 -0.00000000000E+00 -0.00000000000E+00 -0.50000000000E+03  0.50000000000E+03  0.00000000000E+00 0. -1.
        -11    1    1    2    0    0  0.16690733003E+01 -0.12382922554E+01  0.12830435672E+03  0.12832118737E+03  0.00000000000E+00 0.  1.
         11    1    1    2    0    0  0.70547663022E+01 -0.18179765128E+01 -0.49985571239E+03  0.49990879965E+03  0.00000000000E+00 0. -1.
        -15    1    1    2    0    0 -0.61968403480E+01  0.40472441768E+01  0.33153164007E+03  0.33161900898E+03  0.17770000000E+01 0.  1.
         15    1    1    2    0    0 -0.25269992545E+01 -0.99097540860E+00  0.40019715588E+02  0.40151004000E+02  0.17770000000E+01 0.  1.
</event>
<event>
 6    1  0.1860328E-003  0.5096807E+03  0.7546771E-02  0.9378405E-01
        -11   -1    0    0    0    0  0.00000000000E+00  0.00000000000E+00  0.50000000000E+03  0.50000000000E+03  0.00000000000E+00 0. -1.
         11   -1    0    0    0    0 -0.00000000000E+00 -0.00000000000E+00 -0.50000000000E+03  0.50000000000E+03  0.00000000000E+00 0.  1.
        -11    1    1    2    0    0  0.74076503897E+01 -0.75441956785E+00  0.48510313586E+03  0.48516027750E+03  0.00000000000E+00 0. -1.
         11    1    1    2    0    0 -0.11789536823E+02  0.60090557796E+01 -0.49014066871E+03  0.49031926033E+03  0.00000000000E+00 0.  1.
        -15    1    1    2    0    0  0.75157485944E+01 -0.69046853312E+01 -0.65619221353E+01  0.12262858866E+02  0.17770000000E+01 0. -1.
         15    1    1    2    0    0 -0.31338621612E+01  0.16500491195E+01  0.11599454977E+02  0.12257603310E+02  0.17770000000E+01 0.  1.
</event>
<event>
 6    1  0.1860328E-003  0.5106780E+03  0.7546771E-02  0.9376229E-01
        -11   -1    0    0    0    0  0.00000000000E+00  0.00000000000E+00  0.50000000000E+03  0.50000000000E+03  0.00000000000E+00 0. -1.
         11   -1    0    0    0    0 -0.00000000000E+00 -0.00000000000E+00 -0.50000000000E+03  0.50000000000E+03  0.00000000000E+00 0.  1.
        -11    1    1    2    0    0  0.71873062899E+01 -0.73188814224E+01  0.48921448816E+03  0.48932201956E+03  0.00000000000E+00 0. -1.
         11    1    1    2    0    0  0.83209319775E+01  0.72677166274E+01 -0.47665344502E+03  0.47678146385E+03  0.00000000000E+00 0.  1.
        -15    1    1    2    0    0 -0.56957736891E+01  0.45041618116E+01  0.77921616033E+01  0.10798371312E+02  0.17770000000E+01 0.  1.
         15    1    1    2    0    0 -0.98124645783E+01 -0.44529970165E+01 -0.20353204738E+02  0.23098145286E+02  0.17770000000E+01 0. -1.
</event>
<event>
 6    1  0.1860328E-003  0.5026382E+03  0.7546771E-02  0.9393926E-01
        -11   -1    0    0    0    0  0.00000000000E+00  0.00000000000E+00  0.50000000000E+03  0.50000000000E+03  0.00000000000E+00 0. -1.
         11   -1    0    0    0    0 -0.00000000000E+00 -0.00000000000E+00 -0.50000000000E+03  0.50000000000E+03  0.00000000000E+00 0.  1.
        -11    1    1    2    0    0 -0.61358475667E+01 -0.12919993093E+02  0.49715614040E+03  0.49736184291E+03  0.00000000000E+00 0. -1.
         11    1    1    2    0    0 -0.15130744192E+02  0.84293047640E+01 -0.37235587572E+03  0.37275848854E+03  0.00000000000E+00 0.  1.
        -15    1    1    2    0    0  0.29988983652E+01  0.14478421865E+02 -0.58422761691E+02  0.60290918916E+02  0.17770000000E+01 0. -1.
         15    1    1    2    0    0  0.18267693393E+02 -0.99877335362E+01 -0.66377502989E+02  0.69588749631E+02  0.17770000000E+01 0.  1.
</event>
<event>
 6    1  0.1860328E-003  0.5091329E+03  0.7546771E-02  0.9379603E-01
        -11   -1    0    0    0    0  0.00000000000E+00  0.00000000000E+00  0.50000000000E+03  0.50000000000E+03  0.00000000000E+00 0. -1.
         11   -1    0    0    0    0 -0.00000000000E+00 -0.00000000000E+00 -0.50000000000E+03  0.50000000000E+03  0.00000000000E+00 0. -1.
        -11    1    1    2    0    0 -0.20614452748E+02 -0.62692920625E+00  0.49043360466E+03  0.49086705866E+03  0.00000000000E+00 0. -1.
         11    1    1    2    0    0  0.73133043000E+01  0.41789697025E+01 -0.39405531894E+03  0.39414533182E+03  0.00000000000E+00 0. -1.
        -15    1    1    2    0    0 -0.76853578573E+01 -0.22297431071E+01 -0.93302113710E+02  0.93661510940E+02  0.17770000000E+01 0.  1.
         15    1    1    2    0    0  0.20986506305E+02 -0.13222973891E+01 -0.30761720038E+01  0.21326098576E+02  0.17770000000E+01 0. -1.
</event>
<event>
 6    1  0.1860328E-003  0.5094537E+03  0.7546771E-02  0.9378901E-01
        -11   -1    0    0    0    0  0.00000000000E+00  0.00000000000E+00  0.50000000000E+03  0.50000000000E+03  0.00000000000E+00 0. -1.
         11   -1    0    0    0    0 -0.00000000000E+00 -0.00000000000E+00 -0.50000000000E+03  0.50000000000E+03  0.00000000000E+00 0. -1.
        -11    1    1    2    0    0  0.10694642751E+01 -0.31170793333E+02  0.34705576256E+03  0.34845439363E+03  0.00000000000E+00 0. -1.
         11    1    1    2    0    0 -0.91991309635E+01 -0.21089731036E+02 -0.49000634970E+03  0.49054625012E+03  0.00000000000E+00 0. -1.
        -15    1    1    2    0    0 -0.10921792166E+02  0.46462644674E-01  0.47721240040E+01  0.12050668006E+02  0.17770000000E+01 0. -1.
         15    1    1    2    0    0  0.19051458854E+02  0.52214061724E+02  0.13817846313E+03  0.14894868824E+03  0.17770000000E+01 0.  1.
</event>
<event>
 6    1  0.1860328E-003  0.5005911E+03  0.7546771E-02  0.9398488E-01
        -11   -1    0    0    0    0  0.00000000000E+00  0.00000000000E+00  0.50000000000E+03  0.50000000000E+03  0.00000000000E+00 0.  1.
         11   -1    0    0    0    0 -0.00000000000E+00 -0.00000000000E+00 -0.50000000000E+03  0.50000000000E+03  0.00000000000E+00 0.  1.
        -11    1    1    2    0    0 -0.87067770152E+01 -0.53190195436E+01  0.42808518057E+03  0.42820675119E+03  0.00000000000E+00 0.  1.
         11    1    1    2    0    0  0.77902080506E+01 -0.16635066423E+00 -0.49934810299E+03  0.49940889357E+03  0.00000000000E+00 0.  1.
        -15    1    1    2    0    0 -0.24491305056E+01  0.10755707320E+01  0.55276807693E+02  0.55370012555E+02  0.17770000000E+01 0. -1.
         15    1    1    2    0    0  0.33656994702E+01  0.44097994758E+01  0.15986114723E+02  0.17014342693E+02  0.17770000000E+01 0. -1.
</event>
<event>
 6    1  0.1860328E-003  0.5231251E+03  0.7546771E-02  0.9349502E-01
        -11   -1    0    0    0    0  0.00000000000E+00  0.00000000000E+00  0.50000000000E+03  0.50000000000E+03  0.00000000000E+00 0. -1.
         11   -1    0    0    0    0 -0.00000000000E+00 -0.00000000000E+00 -0.50000000000E+03  0.50000000000E+03  0.00000000000E+00 0.  1.
        -11    1    1    2    0    0  0.55597959053E+01  0.32071358779E+01  0.38798703806E+03  0.38804012519E+03  0.00000000000E+00 0. -1.
         11    1    1    2    0    0  0.56319377787E+01 -0.13969556306E+02 -0.47663699369E+03  0.47687492174E+03  0.00000000000E+00 0.  1.
        -15    1    1    2    0    0 -0.17644538020E+02 -0.96377486591E+01  0.10573653732E+03  0.10764566399E+03  0.17770000000E+01 0.  1.
         15    1    1    2    0    0  0.64528043357E+01  0.20400169087E+02 -0.17086581694E+02  0.27439289086E+02  0.17770000000E+01 0. -1.
</event>
<event>
 6    1  0.1860328E-003  0.5187319E+03  0.7546771E-02  0.9358844E-01
        -11   -1    0    0    0    0  0.00000000000E+00  0.00000000000E+00  0.50000000000E+03  0.50000000000E+03  0.00000000000E+00 0.  1.
         11   -1    0    0    0    0 -0.00000000000E+00 -0.00000000000E+00 -0.50000000000E+03  0.50000000000E+03  0.00000000000E+00 0.  1.
        -11    1    1    2    0    0 -0.12450259561E+02  0.56919547665E+00  0.47096218218E+03  0.47112706353E+03  0.00000000000E+00 0.  1.
         11    1    1    2    0    0  0.82757502941E+01 -0.29048828825E+01 -0.48118816167E+03  0.48126808883E+03  0.00000000000E+00 0.  1.
        -15    1    1    2    0    0 -0.59184998934E+01  0.84365404130E+01 -0.15816566650E+02  0.18961154098E+02  0.17770000000E+01 0. -1.
         15    1    1    2    0    0  0.10093009160E+02 -0.61008530071E+01  0.26042546142E+02  0.28643693544E+02  0.17770000000E+01 0.  1.
</event>
<event>
 6    1  0.1860328E-003  0.5002472E+03  0.7546771E-02  0.9399257E-01
        -11   -1    0    0    0    0  0.00000000000E+00  0.00000000000E+00  0.50000000000E+03  0.50000000000E+03  0.00000000000E+00 0. -1.
         11   -1    0    0    0    0 -0.00000000000E+00 -0.00000000000E+00 -0.50000000000E+03  0.50000000000E+03  0.00000000000E+00 0.  1.
        -11    1    1    2    0    0 -0.83368684532E+01  0.39751090367E+00  0.49968305214E+03  0.49975275285E+03  0.00000000000E+00 0. -1.
         11    1    1    2    0    0 -0.11708290437E+01  0.10418191146E+01 -0.22060054713E+02  0.22115656031E+02  0.00000000000E+00 0.  1.
        -15    1    1    2    0    0  0.63230575875E+01  0.32435785217E+00 -0.46007838156E+03  0.46012537550E+03  0.17770000000E+01 0.  1.
         15    1    1    2    0    0  0.31846399094E+01 -0.17636878704E+01 -0.17544615862E+02  0.18006215622E+02  0.17770000000E+01 0. -1.
</event>
<event>
 6    1  0.1860328E-003  0.5079807E+03  0.7546771E-02  0.9382127E-01
        -11   -1    0    0    0    0  0.00000000000E+00  0.00000000000E+00  0.50000000000E+03  0.50000000000E+03  0.00000000000E+00 0. -1.
         11   -1    0    0    0    0 -0.00000000000E+00 -0.00000000000E+00 -0.50000000000E+03  0.50000000000E+03  0.00000000000E+00 0.  1.
        -11    1    1    2    0    0  0.65865062153E+01 -0.21397740048E+01  0.49197053398E+03  0.49201927504E+03  0.00000000000E+00 0. -1.
         11    1    1    2    0    0 -0.49925353936E+01  0.29261319530E+01 -0.41225478882E+03  0.41229540207E+03  0.00000000000E+00 0.  1.
        -15    1    1    2    0    0 -0.76665311431E+01 -0.56742776464E+01  0.47775299578E+01  0.10814603464E+02  0.17770000000E+01 0. -1.
         15    1    1    2    0    0  0.60725603215E+01  0.48879196982E+01 -0.84493275120E+02  0.84870719435E+02  0.17770000000E+01 0.  1.
</event>
<event>
 6    1  0.1860328E-003  0.5057724E+03  0.7546771E-02  0.9386985E-01
        -11   -1    0    0    0    0  0.00000000000E+00  0.00000000000E+00  0.50000000000E+03  0.50000000000E+03  0.00000000000E+00 0. -1.
         11   -1    0    0    0    0 -0.00000000000E+00 -0.00000000000E+00 -0.50000000000E+03  0.50000000000E+03  0.00000000000E+00 0. -1.
        -11    1    1    2    0    0  0.10246442147E+02  0.76305188265E+01  0.49406243315E+03  0.49422758143E+03  0.00000000000E+00 0. -1.
         11    1    1    2    0    0 -0.21779396688E+01 -0.17567816441E+02 -0.45562420242E+03  0.45596796535E+03  0.00000000000E+00 0. -1.
        -15    1    1    2    0    0 -0.11198842726E+02 -0.40911178477E+01 -0.44332679116E+01  0.12843789045E+02  0.17770000000E+01 0.  1.
         15    1    1    2    0    0  0.31303402485E+01  0.14028415462E+02 -0.34004962824E+02  0.36960664174E+02  0.17770000000E+01 0. -1.
</event>
<event>
 6    1  0.1860328E-003  0.5001823E+03  0.7546771E-02  0.9399402E-01
        -11   -1    0    0    0    0  0.00000000000E+00  0.00000000000E+00  0.50000000000E+03  0.50000000000E+03  0.00000000000E+00 0.  1.
         11   -1    0    0    0    0 -0.00000000000E+00 -0.00000000000E+00 -0.50000000000E+03  0.50000000000E+03  0.00000000000E+00 0.  1.
        -11    1    1    2    0    0  0.12808420502E+01  0.77728585270E+00  0.47780035712E+02  0.47803520187E+02  0.00000000000E+00 0.  1.
         11    1    1    2    0    0 -0.85325370065E+01 -0.33102273359E+01 -0.49973390634E+03  0.49981770570E+03  0.00000000000E+00 0.  1.
        -15    1    1    2    0    0  0.71092540462E+01 -0.19300416857E+01  0.41973948188E+03  0.41980788098E+03  0.17770000000E+01 0.  1.
         15    1    1    2    0    0  0.14244091005E+00  0.44629831689E+01  0.32214388739E+02  0.32570893126E+02  0.17770000000E+01 0.  1.
</event>
<event>
 6    1  0.1860328E-003  0.5002635E+03  0.7546771E-02  0.9399220E-01
        -11   -1    0    0    0    0  0.00000000000E+00  0.00000000000E+00  0.50000000000E+03  0.50000000000E+03  0.00000000000E+00 0. -1.
         11   -1    0    0    0    0 -0.00000000000E+00 -0.00000000000E+00 -0.50000000000E+03  0.50000000000E+03  0.00000000000E+00 0.  1.
        -11    1    1    2    0    0  0.21692192878E+01 -0.35614372647E+00  0.10628795724E+03  0.10631068716E+03  0.00000000000E+00 0. -1.
         11    1    1    2    0    0  0.84358505872E+01  0.74433343458E+01 -0.49960983226E+03  0.49973648185E+03  0.00000000000E+00 0.  1.
        -15    1    1    2    0    0  0.99720617777E+00 -0.37971889677E+01  0.26905354937E+03  0.26908805849E+03  0.17770000000E+01 0. -1.
         15    1    1    2    0    0 -0.11602276053E+02 -0.32900016517E+01  0.12426832565E+03  0.12486477250E+03  0.17770000000E+01 0.  1.
</event>
<event>
 6    1  0.1860328E-003  0.4795319E+03  0.7546771E-02  0.9446811E-01
        -11   -1    0    0    0    0  0.00000000000E+00  0.00000000000E+00  0.50000000000E+03  0.50000000000E+03  0.00000000000E+00 0.  1.
         11   -1    0    0    0    0 -0.00000000000E+00 -0.00000000000E+00 -0.50000000000E+03  0.50000000000E+03  0.00000000000E+00 0.  1.
        -11    1    1    2    0    0 -0.19654825407E+02 -0.89935280965E+01  0.47738130291E+03  0.47787038418E+03  0.00000000000E+00 0.  1.
         11    1    1    2    0    0 -0.12488152658E+02  0.12338325055E+02 -0.48142623114E+03  0.48174620315E+03  0.00000000000E+00 0.  1.
        -15    1    1    2    0    0  0.21703442243E+02  0.50797927480E+01  0.11273378722E+02  0.25041775024E+02  0.17770000000E+01 0.  1.
         15    1    1    2    0    0  0.10439535823E+02 -0.84245897066E+01 -0.72284504964E+01  0.15341637641E+02  0.17770000000E+01 0. -1.
</event>
<event>
 6    1  0.1860328E-003  0.5104961E+03  0.7546771E-02  0.9376625E-01
        -11   -1    0    0    0    0  0.00000000000E+00  0.00000000000E+00  0.50000000000E+03  0.50000000000E+03  0.00000000000E+00 0. -1.
         11   -1    0    0    0    0 -0.00000000000E+00 -0.00000000000E+00 -0.50000000000E+03  0.50000000000E+03  0.00000000000E+00 0. -1.
        -11    1    1    2    0    0  0.24543403103E+01 -0.11506019747E+02  0.32480322747E+03  0.32501622859E+03  0.00000000000E+00 0. -1.
         11    1    1    2    0    0  0.44763119299E+01  0.98667307392E+01 -0.48938402672E+03  0.48950394825E+03  0.00000000000E+00 0. -1.
        -15    1    1    2    0    0  0.82997718167E+01 -0.27665498326E+02  0.15606692715E+02  0.32878451854E+02  0.17770000000E+01 0.  1.
         15    1    1    2    0    0 -0.15230424057E+02  0.29304787334E+02  0.14897410653E+03  0.15260137131E+03  0.17770000000E+01 0. -1.
</event>
<event>
 6    1  0.1860328E-003  0.5008829E+03  0.7546771E-02  0.9397836E-01
        -11   -1    0    0    0    0  0.00000000000E+00  0.00000000000E+00  0.50000000000E+03  0.50000000000E+03  0.00000000000E+00 0. -1.
         11   -1    0    0    0    0 -0.00000000000E+00 -0.00000000000E+00 -0.50000000000E+03  0.50000000000E+03  0.00000000000E+00 0.  1.
        -11    1    1    2    0    0 -0.29919190905E+00  0.89050806321E+01  0.49903753695E+03  0.49911707370E+03  0.00000000000E+00 0. -1.
         11    1    1    2    0    0 -0.51240891630E+01 -0.63731786311E+01 -0.20034194053E+03  0.20050876996E+03  0.00000000000E+00 0.  1.
        -15    1    1    2    0    0  0.15307889942E+02 -0.99284376606E+01 -0.14112575462E+03  0.14231142510E+03  0.17770000000E+01 0. -1.
         15    1    1    2    0    0 -0.98846088698E+01  0.73965356596E+01 -0.15756984180E+03  0.15806273124E+03  0.17770000000E+01 0.  1.
</event>
<event>
 6    1  0.1860328E-003  0.5122348E+03  0.7546771E-02  0.9372842E-01
        -11   -1    0    0    0    0  0.00000000000E+00  0.00000000000E+00  0.50000000000E+03  0.50000000000E+03  0.00000000000E+00 0.  1.
         11   -1    0    0    0    0 -0.00000000000E+00 -0.00000000000E+00 -0.50000000000E+03  0.50000000000E+03  0.00000000000E+00 0.  1.
        -11    1    1    2    0    0  0.96543374736E+01  0.20847142434E+01  0.48766519028E+03  0.48776519974E+03  0.00000000000E+00 0.  1.
         11    1    1    2    0    0  0.21430061312E+02 -0.19583017132E+02 -0.44900274751E+03  0.44994022865E+03  0.00000000000E+00 0.  1.
        -15    1    1    2    0    0 -0.17446485333E+02  0.17512710219E+02 -0.41419177996E+02  0.48267804016E+02  0.17770000000E+01 0.  1.
         15    1    1    2    0    0 -0.13637913453E+02 -0.14407330809E-01  0.27567352247E+01  0.14026767590E+02  0.17770000000E+01 0. -1.
</event>
<event>
 6    1  0.1860328E-003  0.5049334E+03  0.7546771E-02  0.9388838E-01
        -11   -1    0    0    0    0  0.00000000000E+00  0.00000000000E+00  0.50000000000E+03  0.50000000000E+03  0.00000000000E+00 0. -1.
         11   -1    0    0    0    0 -0.00000000000E+00 -0.00000000000E+00 -0.50000000000E+03  0.50000000000E+03  0.00000000000E+00 0.  1.
        -11    1    1    2    0    0 -0.11304364274E+02 -0.19373931285E+02  0.20721859808E+03  0.20842908927E+03  0.00000000000E+00 0. -1.
         11    1    1    2    0    0  0.14152935557E+02 -0.25071262937E+02 -0.49422876923E+03  0.49506661183E+03  0.00000000000E+00 0.  1.
        -15    1    1    2    0    0  0.62664266486E+01  0.42590331599E+02  0.95605549114E+02  0.10486554820E+03  0.17770000000E+01 0.  1.
         15    1    1    2    0    0 -0.91149979315E+01  0.18548626222E+01  0.19140462204E+03  0.19163875070E+03  0.17770000000E+01 0. -1.
</event>
<event>
 6    1  0.1860328E-003  0.5003808E+03  0.7546771E-02  0.9398958E-01
        -11   -1    0    0    0    0  0.00000000000E+00  0.00000000000E+00  0.50000000000E+03  0.50000000000E+03  0.00000000000E+00 0. -1.
         11   -1    0    0    0    0 -0.00000000000E+00 -0.00000000000E+00 -0.50000000000E+03  0.50000000000E+03  0.00000000000E+00 0. -1.
        -11    1    1    2    0    0 -0.12127914210E+02 -0.15784659819E+01  0.49946952238E+03  0.49961923666E+03  0.00000000000E+00 0. -1.
         11    1    1    2    0    0 -0.10545237705E+01 -0.30953804048E+01 -0.43239387918E+02  0.43362865078E+02  0.00000000000E+00 0. -1.
        -15    1    1    2    0    0  0.16683992709E+02  0.33961752083E+01 -0.43764017188E+03  0.43797484790E+03  0.17770000000E+01 0. -1.
         15    1    1    2    0    0 -0.35015547288E+01  0.12776711785E+01 -0.18589962578E+02  0.19043050355E+02  0.17770000000E+01 0.  1.
</event>
<event>
 6    1  0.1860328E-003  0.5000483E+03  0.7546771E-02  0.9399702E-01
        -11   -1    0    0    0    0  0.00000000000E+00  0.00000000000E+00  0.50000000000E+03  0.50000000000E+03  0.00000000000E+00 0. -1.
         11   -1    0    0    0    0 -0.00000000000E+00 -0.00000000000E+00 -0.50000000000E+03  0.50000000000E+03  0.00000000000E+00 0.  1.
        -11    1    1    2    0    0 -0.39878913321E+01 -0.12123006898E+01  0.15490265912E+03  0.15495872596E+03  0.00000000000E+00 0. -1.
         11    1    1    2    0    0  0.90367698781E+01  0.86375404534E+00 -0.49986931182E+03  0.49995173585E+03  0.00000000000E+00 0.  1.
        -15    1    1    2    0    0 -0.25190730990E+01  0.28350482873E+01  0.25624369964E+03  0.25627792446E+03  0.17770000000E+01 0. -1.
         15    1    1    2    0    0 -0.25298054470E+01 -0.24865016429E+01  0.88722953055E+02  0.88811613733E+02  0.17770000000E+01 0.  1.
</event>
<event>
 6    1  0.1860328E-003  0.5056533E+03  0.7546771E-02  0.9387248E-01
        -11   -1    0    0    0    0  0.00000000000E+00  0.00000000000E+00  0.50000000000E+03  0.50000000000E+03  0.00000000000E+00 0. -1.
         11   -1    0    0    0    0 -0.00000000000E+00 -0.00000000000E+00 -0.50000000000E+03  0.50000000000E+03  0.00000000000E+00 0. -1.
        -11    1    1    2    0    0 -0.12720082661E+02  0.19815442519E+01  0.24878105775E+03  0.24911391313E+03  0.00000000000E+00 0. -1.
         11    1    1    2    0    0 -0.99141744103E+01  0.40633140585E+01 -0.49423058222E+03  0.49434671009E+03  0.00000000000E+00 0. -1.
        -15    1    1    2    0    0  0.11058746321E+02 -0.26105275066E+00  0.24299022639E+03  0.24324837485E+03  0.17770000000E+01 0. -1.
         15    1    1    2    0    0  0.11575510750E+02 -0.57838055597E+01  0.24592980807E+01  0.13291001916E+02  0.17770000000E+01 0. -1.
</event>
